<event>
 7    1  0.5950675E-006  0.5135993E+02  0.7818608E-02  0.1447269E+00
          2   -1    0    0  502    0  0.00000000000E+00  0.00000000000E+00  0.39141408250E+03  0.39141408250E+03  0.00000000000E+00 0. -1.
          1   -1    0    0  501    0 -0.00000000000E+00 -0.00000000000E+00 -0.22233037374E+03  0.22233037374E+03  0.00000000000E+00 0. -1.
         25    2    1    2    0    0 -0.11700559183E+01  0.74079522740E+01  0.20124029305E+02  0.12683122103E+03  0.12499974114E+03 0.  0.
          2    1    1    2  501    0 -0.40229767934E+02  0.26157835897E+02 -0.16326570156E+03  0.17017154849E+03  0.00000000000E+00 0. -1.
          1    1    1    2  502    0  0.41399823852E+02 -0.33565788171E+02  0.31222538103E+03  0.31674168672E+03  0.00000000000E+00 0. -1.
         22    1    3    3    0    0 -0.56364199535E+02 -0.38313239525E+01  0.37591506343E+02  0.67858112128E+02  0.00000000000E+00 0. -1.
         22    1    3    3    0    0  0.55194143617E+02  0.11239276226E+02 -0.17467477038E+02  0.58973108904E+02  0.00000000000E+00 0. -1.
</event>
<event>
 7    1  0.5950675E-006  0.1179672E+03  0.7818608E-02  0.1248727E+00
          2   -1    0    0  502    0  0.00000000000E+00  0.00000000000E+00  0.31013368848E+03  0.31013368848E+03  0.00000000000E+00 0. -1.
          1   -1    0    0  501    0 -0.00000000000E+00 -0.00000000000E+00 -0.32173861788E+03  0.32173861788E+03  0.00000000000E+00 0. -1.
         25    2    1    2    0    0 -0.52970878834E+01 -0.17000088391E+02 -0.83536950003E+02  0.15139496379E+03  0.12499980360E+03 0.  0.
          2    1    1    2  501    0  0.67613217590E+02 -0.96668072456E+02 -0.16946220823E+03  0.20647930512E+03  0.00000000000E+00 0. -1.
          1    1    1    2  502    0 -0.62316129706E+02  0.11366816085E+03  0.24139422883E+03  0.27399803745E+03  0.00000000000E+00 0. -1.
         22    1    3    3    0    0 -0.43549823563E+02 -0.21361322431E+02  0.10633269329E+02  0.49658429748E+02  0.00000000000E+00 0.  1.
         22    1    3    3    0    0  0.38252735680E+02  0.43612340398E+01 -0.94170219333E+02  0.10173653404E+03  0.00000000000E+00 0.  1.
</event>
<event>
 7    1  0.5950675E-006  0.6711357E+02  0.7818608E-02  0.1424489E+00
          2   -1    0    0  502    0  0.00000000000E+00  0.00000000000E+00  0.11011161844E+04  0.11011161844E+04  0.00000000000E+00 0. -1.
          1   -1    0    0  501    0 -0.00000000000E+00 -0.00000000000E+00 -0.15676958585E+04  0.15676958585E+04  0.00000000000E+00 0. -1.
         25    2    1    2    0    0  0.72467387365E+00  0.58935802001E+02  0.19480131343E+03  0.23884738987E+03  0.12500627993E+03 0.  0.
          2    1    1    2  501    0 -0.43599206423E+02 -0.51119343861E+02 -0.15444050456E+04  0.15458657843E+04  0.00000000000E+00 0. -1.
          1    1    1    2  502    0  0.42874532549E+02 -0.78164581398E+01  0.88302405811E+03  0.88409886877E+03  0.00000000000E+00 0. -1.
         22    1    3    3    0    0 -0.31739921976E+02  0.19535165257E+02 -0.20356031165E+00  0.37270454323E+02  0.00000000000E+00 0.  1.
         22    1    3    3    0    0  0.32464595849E+02  0.39400636744E+02  0.19500487374E+03  0.20157693555E+03  0.00000000000E+00 0.  1.
</event>
<event>
 7    1  0.5950675E-006  0.6563109E+02  0.7818608E-02  0.1472995E+00
          2   -1    0    0  502    0  0.00000000000E+00  0.00000000000E+00  0.18111042985E+03  0.18111042985E+03  0.00000000000E+00 0. -1.
          1   -1    0    0  501    0 -0.00000000000E+00 -0.00000000000E+00 -0.12371411915E+03  0.12371411915E+03  0.00000000000E+00 0. -1.
         25    2    1    2    0    0  0.23928141498E+02 -0.40108132760E+02  0.76165625427E+02  0.15364986740E+03  0.12500344389E+03 0.  0.
          2    1    1    2  501    0 -0.55074972242E+02  0.40665389921E+02 -0.65673532437E+02  0.94868010244E+02  0.00000000000E+00 0. -1.
          1    1    1    2  502    0  0.31146830744E+02 -0.55725716020E+00  0.46904217705E+02  0.56306671358E+02  0.00000000000E+00 0. -1.
         22    1    3    3    0    0  0.29092869457E+02 -0.17245254914E+02 -0.29828727731E+02  0.45094865211E+02  0.00000000000E+00 0. -1.
         22    1    3    3    0    0 -0.51647279587E+01 -0.22862877846E+02  0.10599435316E+03  0.10855500219E+03  0.00000000000E+00 0. -1.
</event>
<event>
 7    1  0.5950675E-006  0.5097734E+02  0.7818608E-02  0.1491078E+00
          2   -1    0    0  502    0  0.00000000000E+00  0.00000000000E+00  0.43483245770E+02  0.43483245770E+02  0.00000000000E+00 0. -1.
          1   -1    0    0  501    0 -0.00000000000E+00 -0.00000000000E+00 -0.20684446274E+04  0.20684446274E+04  0.00000000000E+00 0. -1.
         25    2    1    2    0    0  0.31572044341E+02 -0.16659145178E+02 -0.23789137207E+03  0.27109312566E+03  0.12499942708E+03 0.  0.
          2    1    1    2  501    0 -0.12178946625E+02 -0.33143175300E+02 -0.17870409733E+04  0.17873897832E+04  0.00000000000E+00 0. -1.
          1    1    1    2  502    0 -0.19393097716E+02  0.49802320479E+02 -0.29036220262E-01  0.53444964283E+02  0.00000000000E+00 0. -1.
         22    1    3    3    0    0  0.71082255829E+02  0.21543393034E+02 -0.12201792974E+03  0.14284670124E+03  0.00000000000E+00 0.  1.
         22    1    3    3    0    0 -0.39510211488E+02 -0.38202538212E+02 -0.11587344234E+03  0.12824642442E+03  0.00000000000E+00 0.  1.
</event>
<event>
 7    1  0.5950675E-006  0.1274548E+03  0.7818608E-02  0.1397223E+00
          2   -1    0    0  502    0  0.00000000000E+00  0.00000000000E+00  0.13670869635E+04  0.13670869635E+04  0.00000000000E+00 0. -1.
          1   -1    0    0  501    0 -0.00000000000E+00 -0.00000000000E+00 -0.72456808849E+02  0.72456808849E+02  0.00000000000E+00 0. -1.
         25    2    1    2    0    0  0.30969785498E+02  0.13154260135E+03  0.49931217921E+03  0.53216596936E+03  0.12500153218E+03 0.  0.
          2    1    1    2  501    0 -0.53837522927E+02 -0.11473117341E+03  0.16226372962E+02  0.12776938682E+03  0.00000000000E+00 0. -1.
          1    1    1    2  502    0  0.22867737429E+02 -0.16811427941E+02  0.77909160248E+03  0.77960841618E+03  0.00000000000E+00 0. -1.
         22    1    3    3    0    0  0.23974960848E+00 -0.21128015554E+02  0.23920612336E+02  0.31916237492E+02  0.00000000000E+00 0.  1.
         22    1    3    3    0    0  0.30730035889E+02  0.15267061691E+03  0.47539156688E+03  0.50024973186E+03  0.00000000000E+00 0.  1.
</event>
<event>
 7    1  0.5950675E-006  0.6271053E+02  0.7818608E-02  0.1399996E+00
          2   -1    0    0  502    0  0.00000000000E+00  0.00000000000E+00  0.26558037111E+03  0.26558037111E+03  0.00000000000E+00 0. -1.
          1   -1    0    0  501    0 -0.00000000000E+00 -0.00000000000E+00 -0.19482737132E+04  0.19482737132E+04  0.00000000000E+00 0. -1.
         25    2    1    2    0    0  0.10456283369E+03 -0.42989807246E+02 -0.92197213848E+02  0.19211302289E+03  0.12500231040E+03 0.  0.
          2    1    1    2  501    0 -0.43715245804E+02  0.35682908757E+02 -0.18013131967E+04  0.18021968608E+04  0.00000000000E+00 0. -1.
          1    1    1    2  502    0 -0.60847587891E+02  0.73068984884E+01  0.21081706838E+03  0.21954420065E+03  0.00000000000E+00 0. -1.
         22    1    3    3    0    0  0.95215594127E+02  0.24585477857E+02 -0.39770633336E+02  0.10607619131E+03  0.00000000000E+00 0. -1.
         22    1    3    3    0    0  0.93472395675E+01 -0.67575285103E+02 -0.52426580512E+02  0.86036831581E+02  0.00000000000E+00 0. -1.
</event>
<event>
 7    1  0.5950675E-006  0.6400265E+02  0.7818608E-02  0.1499690E+00
          2   -1    0    0  502    0  0.00000000000E+00  0.00000000000E+00  0.18738732213E+02  0.18738732213E+02  0.00000000000E+00 0. -1.
          1   -1    0    0  501    0 -0.00000000000E+00 -0.00000000000E+00 -0.15943687600E+04  0.15943687600E+04  0.00000000000E+00 0. -1.
         25    2    1    2    0    0 -0.32152741645E+01 -0.75491935082E+02 -0.85955950512E+03  0.87188079989E+03  0.12499686442E+03 0.  0.
          2    1    1    2  501    0  0.22946225167E+02  0.57804844321E+02 -0.71165011359E+03  0.71436252243E+03  0.00000000000E+00 0. -1.
          1    1    1    2  502    0 -0.19730951002E+02  0.17687090762E+02 -0.44204090555E+01  0.26864169879E+02  0.00000000000E+00 0. -1.
         22    1    3    3    0    0 -0.52473296351E+02 -0.50122585944E+02 -0.68269023594E+03  0.68653599956E+03  0.00000000000E+00 0.  1.
         22    1    3    3    0    0  0.49258022186E+02 -0.25369349139E+02 -0.17686926919E+03  0.18534480033E+03  0.00000000000E+00 0.  1.
</event>
<event>
 7    1  0.5950675E-006  0.1159415E+03  0.7818608E-02  0.1367883E+00
          2   -1    0    0  502    0  0.00000000000E+00  0.00000000000E+00  0.68929279340E+03  0.68929279340E+03  0.00000000000E+00 0. -1.
          1   -1    0    0  501    0 -0.00000000000E+00 -0.00000000000E+00 -0.41582071580E+03  0.41582071580E+03  0.00000000000E+00 0. -1.
         25    2    1    2    0    0  0.13028803043E+03  0.39137573978E+02 -0.16211945306E+03  0.24579020542E+03  0.12499354962E+03 0.  0.
          2    1    1    2  501    0 -0.14758425460E+02 -0.36747524196E+02 -0.20479812973E+03  0.20859162399E+03  0.00000000000E+00 0. -1.
          1    1    1    2  502    0 -0.11552960497E+03 -0.23900497819E+01  0.64038966039E+03  0.65073167980E+03  0.00000000000E+00 0. -1.
         22    1    3    3    0    0 -0.72045974339E+01 -0.22348549437E+01 -0.80056631548E+02  0.80411224687E+02  0.00000000000E+00 0. -1.
         22    1    3    3    0    0  0.13749262787E+03  0.41372428922E+02 -0.82062821512E+02  0.16537898073E+03  0.00000000000E+00 0. -1.
</event>
<event>
 7    1  0.5950675E-006  0.1196837E+03  0.7818608E-02  0.1314262E+00
          2   -1    0    0  502    0  0.00000000000E+00  0.00000000000E+00  0.30628661450E+04  0.30628661450E+04  0.00000000000E+00 0. -1.
          1   -1    0    0  501    0 -0.00000000000E+00 -0.00000000000E+00 -0.10061069641E+03  0.10061069641E+03  0.00000000000E+00 0. -1.
         25    2    1    2    0    0 -0.56792737002E+02 -0.25827251427E+02 -0.29847987748E+01  0.13973908795E+03  0.12500256711E+03 0.  0.
          2    1    1    2  501    0 -0.61005385075E+02 -0.45233778160E+00  0.51894540447E+01  0.61227379912E+02  0.00000000000E+00 0. -1.
          1    1    1    2  502    0  0.11779812208E+03  0.26279589208E+02  0.29600507933E+04  0.29625103736E+04  0.00000000000E+00 0. -1.
         22    1    3    3    0    0  0.23403116628E+02  0.99858022896E+01 -0.37545242874E+02  0.45354904671E+02  0.00000000000E+00 0.  1.
         22    1    3    3    0    0 -0.80195853630E+02 -0.35813053716E+02  0.34560444099E+02  0.94384183274E+02  0.00000000000E+00 0.  1.
</event>
<event>
 7    1  0.5950675E-006  0.7307582E+02  0.7818608E-02  0.1405012E+00
          2   -1    0    0  502    0  0.00000000000E+00  0.00000000000E+00  0.84908005216E+03  0.84908005216E+03  0.00000000000E+00 0. -1.
          1   -1    0    0  501    0 -0.00000000000E+00 -0.00000000000E+00 -0.46965676954E+03  0.46965676954E+03  0.00000000000E+00 0. -1.
         25    2    1    2    0    0 -0.17306589913E+02 -0.31116077122E+02 -0.25104565528E+03  0.28269724768E+03  0.12500433792E+03 0.  0.
          2    1    1    2  501    0 -0.46217951424E+02 -0.55236882875E+01 -0.19847402502E+03  0.20385913954E+03  0.00000000000E+00 0. -1.
          1    1    1    2  502    0  0.63524541338E+02  0.36639765409E+02  0.82894296292E+03  0.83218043448E+03  0.00000000000E+00 0. -1.
         22    1    3    3    0    0 -0.15783375782E+02 -0.67428717597E+02 -0.23107158898E+03  0.24122567471E+03  0.00000000000E+00 0.  1.
         22    1    3    3    0    0 -0.15232141314E+01  0.36312640476E+02 -0.19974066307E+02  0.41471572968E+02  0.00000000000E+00 0.  1.
</event>
<event>
 7    1  0.7379823E-006  0.1078511E+03  0.7818608E-02  0.1370827E+00
          2   -1    0    0  502    0  0.00000000000E+00  0.00000000000E+00  0.11601468643E+04  0.11601468643E+04  0.00000000000E+00 0. -1.
          1   -1    0    0  501    0 -0.00000000000E+00 -0.00000000000E+00 -0.21707799523E+04  0.21707799523E+04  0.00000000000E+00 0. -1.
         25    2    1    2    0    0  0.84501846047E+02 -0.53361407402E+02 -0.71951499967E+03  0.73709909625E+03  0.12500096461E+03 0.  0.
          2    1    1    2  501    0 -0.10939513186E+03  0.20100094709E+02 -0.14399527583E+04  0.14442421039E+04  0.00000000000E+00 0. -1.
          1    1    1    2  502    0  0.24893285810E+02  0.33261312694E+02  0.11488346700E+04  0.11495856164E+04  0.00000000000E+00 0. -1.
         22    1    3    3    0    0 -0.20736478592E+02 -0.71665331504E+01 -0.33644191665E+03  0.33715652748E+03  0.00000000000E+00 0.  1.
         22    1    3    3    0    0  0.10523832464E+03 -0.46194874252E+02 -0.38307308302E+03  0.39994256877E+03  0.00000000000E+00 0.  1.
</event>
<event>
 7    1  0.5950675E-006  0.9692416E+02  0.7818608E-02  0.1319905E+00
          2   -1    0    0  502    0  0.00000000000E+00  0.00000000000E+00  0.98496173908E+02  0.98496173908E+02  0.00000000000E+00 0. -1.
          1   -1    0    0  501    0 -0.00000000000E+00 -0.00000000000E+00 -0.63429474797E+03  0.63429474797E+03  0.00000000000E+00 0. -1.
         25    2    1    2    0    0  0.31101266082E+02  0.15023971945E+03 -0.35433649702E+03  0.40585583153E+03  0.12500136325E+03 0.  0.
          2    1    1    2  501    0 -0.41823117310E+02 -0.58130815365E+02 -0.21632268192E+03  0.22786809243E+03  0.00000000000E+00 0. -1.
          1    1    1    2  502    0  0.10721851228E+02 -0.92108904085E+02  0.34860604871E+02  0.99066997922E+02  0.00000000000E+00 0. -1.
         22    1    3    3    0    0  0.23062726574E+02 -0.18117746642E+02 -0.50345780347E+02  0.58265252932E+02  0.00000000000E+00 0. -1.
         22    1    3    3    0    0  0.80385395088E+01  0.16835746609E+03 -0.30399071667E+03  0.34759057859E+03  0.00000000000E+00 0. -1.
</event>
<event>
 7    1  0.5950675E-006  0.1451876E+03  0.7818608E-02  0.1207992E+00
          2   -1    0    0  502    0  0.00000000000E+00  0.00000000000E+00  0.10174782985E+04  0.10174782985E+04  0.00000000000E+00 0. -1.
          1   -1    0    0  501    0 -0.00000000000E+00 -0.00000000000E+00 -0.13628172058E+03  0.13628172058E+03  0.00000000000E+00 0. -1.
         25    2    1    2    0    0 -0.15755549449E+02  0.61923292471E+02  0.22342649127E+03  0.26387543250E+03  0.12501246093E+03 0.  0.
          2    1    1    2  501    0  0.14130301589E+02  0.14220460809E+03 -0.51439612001E+02  0.15188103788E+03  0.00000000000E+00 0. -1.
          1    1    1    2  502    0  0.16252478605E+01 -0.20412790056E+03  0.70920969870E+03  0.73800354874E+03  0.00000000000E+00 0. -1.
         22    1    3    3    0    0  0.15544893007E+02  0.38202491542E+01 -0.11593399769E+02  0.19764739320E+02  0.00000000000E+00 0. -1.
         22    1    3    3    0    0 -0.31300442456E+02  0.58103043317E+02  0.23501989104E+03  0.24411069318E+03  0.00000000000E+00 0. -1.
</event>
<event>
 7    1  0.5950675E-006  0.2935860E+03  0.7818608E-02  0.1102279E+00
          2   -1    0    0  502    0  0.00000000000E+00  0.00000000000E+00  0.15692230141E+04  0.15692230141E+04  0.00000000000E+00 0. -1.
          1   -1    0    0  501    0 -0.00000000000E+00 -0.00000000000E+00 -0.17498404830E+04  0.17498404830E+04  0.00000000000E+00 0. -1.
         25    2    1    2    0    0  0.24391436330E+03  0.72366974952E+02  0.90870599600E+02  0.29768039774E+03  0.12499983056E+03 0.  0.
          2    1    1    2  501    0 -0.11702192292E+03  0.21538471777E+03 -0.16191062247E+04  0.16375560064E+04  0.00000000000E+00 0. -1.
          1    1    1    2  502    0 -0.12689244038E+03 -0.28775169272E+03  0.13476181562E+04  0.13838270929E+04  0.00000000000E+00 0. -1.
         22    1    3    3    0    0  0.15757317634E+03  0.10340785258E+03  0.81872698974E+02  0.20548875569E+03  0.00000000000E+00 0. -1.
         22    1    3    3    0    0  0.86341186959E+02 -0.31040877625E+02  0.89979006262E+01  0.92191642056E+02  0.00000000000E+00 0. -1.
</event>
<event>
 7    1  0.5950675E-006  0.4513659E+02  0.7818608E-02  0.1515570E+00
          2   -1    0    0  502    0  0.00000000000E+00  0.00000000000E+00  0.10559884433E+04  0.10559884433E+04  0.00000000000E+00 0. -1.
          1   -1    0    0  501    0 -0.00000000000E+00 -0.00000000000E+00 -0.82712470242E+03  0.82712470242E+03  0.00000000000E+00 0. -1.
         25    2    1    2    0    0  0.42782113993E+02 -0.62132204176E+01 -0.17132139119E+03  0.21644049777E+03  0.12500622629E+03 0.  0.
          2    1    1    2  501    0 -0.36816196520E+02 -0.26982517480E+02 -0.63214544664E+03  0.63379125450E+03  0.00000000000E+00 0. -1.
          1    1    1    2  502    0 -0.59659174732E+01  0.33195737897E+02  0.10323305787E+04  0.10328813934E+04  0.00000000000E+00 0. -1.
         22    1    3    3    0    0  0.22336740305E+02  0.34742265775E+02 -0.23406304866E+01  0.41369476063E+02  0.00000000000E+00 0.  1.
         22    1    3    3    0    0  0.20445373687E+02 -0.40955486193E+02 -0.16898076070E+03  0.17507102170E+03  0.00000000000E+00 0.  1.
</event>
<event>
 7    1  0.5950675E-006  0.1185844E+03  0.7818608E-02  0.1372187E+00
          2   -1    0    0  502    0  0.00000000000E+00  0.00000000000E+00  0.50371820914E+03  0.50371820914E+03  0.00000000000E+00 0. -1.
          1   -1    0    0  501    0 -0.00000000000E+00 -0.00000000000E+00 -0.43382863814E+03  0.43382863814E+03  0.00000000000E+00 0. -1.
         25    2    1    2    0    0  0.45656432403E+02  0.72984751627E+02  0.31764377190E+02  0.15506757372E+03  0.12500277185E+03 0.  0.
          2    1    1    2  501    0 -0.74442113548E+02 -0.96803767833E+02 -0.36126447221E+03  0.38134579665E+03  0.00000000000E+00 0. -1.
          1    1    1    2  502    0  0.28785681145E+02  0.23819016206E+02  0.39938966602E+03  0.40113347691E+03  0.00000000000E+00 0. -1.
         22    1    3    3    0    0  0.47079338968E+02  0.28828686443E+02 -0.41808390315E+02  0.69249540219E+02  0.00000000000E+00 0. -1.
         22    1    3    3    0    0 -0.14229065657E+01  0.44156065184E+02  0.73572767506E+02  0.85818033501E+02  0.00000000000E+00 0. -1.
</event>
<event>
 7    1  0.5950675E-006  0.2042499E+03  0.7818608E-02  0.1312239E+00
          2   -1    0    0  502    0  0.00000000000E+00  0.00000000000E+00  0.13459793302E+04  0.13459793302E+04  0.00000000000E+00 0. -1.
          1   -1    0    0  501    0 -0.00000000000E+00 -0.00000000000E+00 -0.58461049140E+03  0.58461049140E+03  0.00000000000E+00 0. -1.
         25    2    1    2    0    0  0.19095417115E+03 -0.15899071247E+02 -0.48881013885E+02  0.23394401093E+03  0.12499668311E+03 0.  0.
          2    1    1    2  501    0 -0.20187427229E+03  0.50630034947E+02 -0.41847935062E+03  0.46737735199E+03  0.00000000000E+00 0. -1.
          1    1    1    2  502    0  0.10920101146E+02 -0.34730963700E+02  0.12287292033E+04  0.12292684587E+04  0.00000000000E+00 0. -1.
         22    1    3    3    0    0  0.19288035276E+03 -0.34237425841E+02 -0.68018998566E+02  0.20736830996E+03  0.00000000000E+00 0. -1.
         22    1    3    3    0    0 -0.19261816101E+01  0.18338354594E+02  0.19137984681E+02  0.26575700978E+02  0.00000000000E+00 0. -1.
</event>
<event>
 7    1  0.5950675E-006  0.4302234E+02  0.7818608E-02  0.1526050E+00
          2   -1    0    0  502    0  0.00000000000E+00  0.00000000000E+00  0.24711613187E+04  0.24711613187E+04  0.00000000000E+00 0. -1.
          1   -1    0    0  501    0 -0.00000000000E+00 -0.00000000000E+00 -0.12805973628E+03  0.12805973628E+03  0.00000000000E+00 0. -1.
         25    2    1    2    0    0 -0.14087476726E+02 -0.60667969123E+02  0.91335140777E+03  0.92396684048E+03  0.12499947499E+03 0.  0.
          2    1    1    2  501    0 -0.14685433316E+02  0.29544367313E+02 -0.12024012785E+03  0.12468448154E+03  0.00000000000E+00 0. -1.
          1    1    1    2  502    0  0.28772910042E+02  0.31123601810E+02  0.15499903025E+04  0.15505697330E+04  0.00000000000E+00 0. -1.
         22    1    3    3    0    0 -0.77088935970E+01 -0.91536083322E+02  0.82619165819E+03  0.83128270621E+03  0.00000000000E+00 0. -1.
         22    1    3    3    0    0 -0.63785831286E+01  0.30868114200E+02  0.87159749583E+02  0.92684134264E+02  0.00000000000E+00 0. -1.
</event>
<event>
 7    1  0.5950675E-006  0.6828855E+02  0.7818608E-02  0.1420450E+00
          2   -1    0    0  502    0  0.00000000000E+00  0.00000000000E+00  0.12810861151E+03  0.12810861151E+03  0.00000000000E+00 0. -1.
          1   -1    0    0  501    0 -0.00000000000E+00 -0.00000000000E+00 -0.94059548986E+03  0.94059548986E+03  0.00000000000E+00 0. -1.
         25    2    1    2    0    0 -0.29738385816E+02  0.51036198747E+02 -0.59460482938E+03  0.61046632285E+03  0.12500065215E+03 0.  0.
          2    1    1    2  501    0  0.40894832112E+02  0.16712266866E+02 -0.32664310805E+03  0.32961706144E+03  0.00000000000E+00 0. -1.
          1    1    1    2  502    0 -0.11156446296E+02 -0.67748465613E+02  0.10876105908E+03  0.12862071707E+03  0.00000000000E+00 0. -1.
         22    1    3    3    0    0  0.10302475621E+02  0.26043956303E+02 -0.52849077765E+03  0.52923239765E+03  0.00000000000E+00 0.  1.
         22    1    3    3    0    0 -0.40040861437E+02  0.24992242444E+02 -0.66114051735E+02  0.81233925203E+02  0.00000000000E+00 0.  1.
</event>
<event>
 7    1  0.5950675E-006  0.1277524E+03  0.7818608E-02  0.1271733E+00
          2   -1    0    0  502    0  0.00000000000E+00  0.00000000000E+00  0.13278424181E+04  0.13278424181E+04  0.00000000000E+00 0. -1.
          1   -1    0    0  501    0 -0.00000000000E+00 -0.00000000000E+00 -0.20410989139E+04  0.20410989139E+04  0.00000000000E+00 0. -1.
         25    2    1    2    0    0  0.34727110234E+02 -0.20785470563E+03 -0.71460175939E+02  0.25522634524E+03  0.12499751886E+03 0.  0.
          2    1    1    2  501    0 -0.19855302750E+02  0.82613564554E+02 -0.18735728992E+04  0.18754985051E+04  0.00000000000E+00 0. -1.
          1    1    1    2  502    0 -0.14871807483E+02  0.12524114108E+03  0.12317765794E+04  0.12382164817E+04  0.00000000000E+00 0. -1.
         22    1    3    3    0    0  0.49820893977E+01 -0.21437095192E+03 -0.65382003951E+02  0.22417522763E+03  0.00000000000E+00 0. -1.
         22    1    3    3    0    0  0.29745020836E+02  0.65162462868E+01 -0.60781719882E+01  0.31051117611E+02  0.00000000000E+00 0. -1.
</event>
<event>
 7    1  0.5950675E-006  0.1269073E+03  0.7818608E-02  0.1339421E+00
          2   -1    0    0  502    0  0.00000000000E+00  0.00000000000E+00  0.34648741257E+03  0.34648741257E+03  0.00000000000E+00 0. -1.
          1   -1    0    0  501    0 -0.00000000000E+00 -0.00000000000E+00 -0.52894570920E+03  0.52894570920E+03  0.00000000000E+00 0. -1.
         25    2    1    2    0    0 -0.16042917665E+03 -0.39441920704E+01  0.10314952020E+03  0.22807482356E+03  0.12500089700E+03 0.  0.
          2    1    1    2  501    0  0.43950113123E+02  0.13785083910E+02 -0.44628688055E+03  0.44865757625E+03  0.00000000000E+00 0. -1.
          1    1    1    2  502    0  0.11647906352E+03 -0.98408918400E+01  0.16067906371E+03  0.19870072196E+03  0.00000000000E+00 0. -1.
         22    1    3    3    0    0 -0.11340259003E+03 -0.60782838985E+02  0.76195123697E+02  0.14953393533E+03  0.00000000000E+00 0. -1.
         22    1    3    3    0    0 -0.47026586616E+02  0.56838646915E+02  0.26954396507E+02  0.78540888223E+02  0.00000000000E+00 0. -1.
</event>
<event>
 7    1  0.5950675E-006  0.1122500E+03  0.7818608E-02  0.1277653E+00
          2   -1    0    0  502    0  0.00000000000E+00  0.00000000000E+00  0.13336675976E+04  0.13336675976E+04  0.00000000000E+00 0. -1.
          1   -1    0    0  501    0 -0.00000000000E+00 -0.00000000000E+00 -0.57822321213E+02  0.57822321213E+02  0.00000000000E+00 0. -1.
         25    2    1    2    0    0  0.36392660309E+02  0.10303730087E+02  0.23899803554E+03  0.27235246536E+03  0.12500084726E+03 0.  0.
          2    1    1    2  501    0 -0.70150871724E+02  0.96749704346E+02  0.56154532635E+02  0.13204159053E+03  0.00000000000E+00 0. -1.
          1    1    1    2  502    0  0.33758211414E+02 -0.10705343443E+03  0.98069270823E+03  0.98709586295E+03  0.00000000000E+00 0. -1.
         22    1    3    3    0    0  0.21709823371E+02 -0.29538722867E+02  0.80482731503E+01  0.37531683683E+02  0.00000000000E+00 0.  1.
         22    1    3    3    0    0  0.14682836938E+02  0.39842452953E+02  0.23094976239E+03  0.23482078168E+03  0.00000000000E+00 0.  1.
</event>
<event>
 7    1  0.5950675E-006  0.1389281E+03  0.7818608E-02  0.1243696E+00
          2   -1    0    0  502    0  0.00000000000E+00  0.00000000000E+00  0.69699751107E+03  0.69699751107E+03  0.00000000000E+00 0. -1.
          1   -1    0    0  501    0 -0.00000000000E+00 -0.00000000000E+00 -0.37396772835E+03  0.37396772835E+03  0.00000000000E+00 0. -1.
         25    2    1    2    0    0  0.11886527829E+03  0.25673120460E+02  0.74118491070E+02  0.18949145236E+03  0.12500158521E+03 0.  0.
          2    1    1    2  501    0 -0.80102721399E+02 -0.12112914422E+03 -0.29451292528E+03  0.32836957641E+03  0.00000000000E+00 0. -1.
          1    1    1    2  502    0 -0.38762556887E+02  0.95456023763E+02  0.54342421693E+03  0.55310421065E+03  0.00000000000E+00 0. -1.
         22    1    3    3    0    0 -0.12410802102E+02 -0.28083609735E+02  0.31256310724E+01  0.30862383482E+02  0.00000000000E+00 0. -1.
         22    1    3    3    0    0  0.13127608039E+03  0.53756730196E+02  0.70992859998E+02  0.15862906888E+03  0.00000000000E+00 0. -1.
</event>
<event>
 7    1  0.5950675E-006  0.1654008E+03  0.7818608E-02  0.1200888E+00
          2   -1    0    0  502    0  0.00000000000E+00  0.00000000000E+00  0.11771285571E+04  0.11771285571E+04  0.00000000000E+00 0. -1.
          1   -1    0    0  501    0 -0.00000000000E+00 -0.00000000000E+00 -0.86680766210E+02  0.86680766210E+02  0.00000000000E+00 0. -1.
         25    2    1    2    0    0  0.95853716348E+02 -0.88082565205E+02  0.11456915274E+03  0.21377132970E+03  0.12500246962E+03 0.  0.
          2    1    1    2  501    0  0.25127391305E+02  0.20087001950E+03  0.36739525361E+03  0.41947517555E+03  0.00000000000E+00 0. -1.
          1    1    1    2  502    0 -0.12098110765E+03 -0.11278745430E+03  0.60848338458E+03  0.63056281810E+03  0.00000000000E+00 0. -1.
         22    1    3    3    0    0  0.35187011506E+00 -0.27481289252E+02 -0.22884652175E+02  0.35763841749E+02  0.00000000000E+00 0.  1.
         22    1    3    3    0    0  0.95501846233E+02 -0.60601275953E+02  0.13745380492E+03  0.17800748795E+03  0.00000000000E+00 0.  1.
</event>
<event>
 7    1  0.5950675E-006  0.1955672E+03  0.7818608E-02  0.1220040E+00
          2   -1    0    0  502    0  0.00000000000E+00  0.00000000000E+00  0.12412422429E+04  0.12412422429E+04  0.00000000000E+00 0. -1.
          1   -1    0    0  501    0 -0.00000000000E+00 -0.00000000000E+00 -0.85624899553E+03  0.85624899553E+03  0.00000000000E+00 0. -1.
         25    2    1    2    0    0 -0.45798702729E+02  0.27713485759E+03  0.30786776295E+02  0.30898974672E+03  0.12500235005E+03 0.  0.
          2    1    1    2  501    0  0.45555850539E+02 -0.18376915422E+03 -0.70255712139E+03  0.72762143067E+03  0.00000000000E+00 0. -1.
          1    1    1    2  502    0  0.24285218995E+00 -0.93365703372E+02  0.10567635925E+04  0.10608800610E+04  0.00000000000E+00 0. -1.
         22    1    3    3    0    0 -0.31179443190E+02  0.12520070004E+03 -0.47447192124E+02  0.13747221177E+03  0.00000000000E+00 0. -1.
         22    1    3    3    0    0 -0.14619259539E+02  0.15193415756E+03  0.78233968419E+02  0.17151753495E+03  0.00000000000E+00 0. -1.
</event>
<event>
 7    1  0.5950675E-006  0.1167575E+03  0.7818608E-02  0.1259508E+00
          2   -1    0    0  502    0  0.00000000000E+00  0.00000000000E+00  0.58854260915E+03  0.58854260915E+03  0.00000000000E+00 0. -1.
          1   -1    0    0  501    0 -0.00000000000E+00 -0.00000000000E+00 -0.13465287360E+04  0.13465287360E+04  0.00000000000E+00 0. -1.
         25    2    1    2    0    0  0.37903841637E+02  0.10310207457E+03 -0.22900784957E+03  0.28308239519E+03  0.12499723322E+03 0.  0.
          2    1    1    2  501    0 -0.10456560435E+03 -0.57001481101E+01 -0.10817244916E+04  0.10867816400E+04  0.00000000000E+00 0. -1.
          1    1    1    2  502    0  0.66661762710E+02 -0.97401926458E+02  0.55274621427E+03  0.56520731000E+03  0.00000000000E+00 0. -1.
         22    1    3    3    0    0  0.77440980078E+02  0.89278249044E+02 -0.13062530084E+03  0.17615527346E+03  0.00000000000E+00 0. -1.
         22    1    3    3    0    0 -0.39537138441E+02  0.13823825524E+02 -0.98382548723E+02  0.10692712173E+03  0.00000000000E+00 0. -1.
</event>
<event>
 7    1  0.5950675E-006  0.1443348E+03  0.7818608E-02  0.1397704E+00
          2   -1    0    0  502    0  0.00000000000E+00  0.00000000000E+00  0.20595376950E+04  0.20595376950E+04  0.00000000000E+00 0. -1.
          1   -1    0    0  501    0 -0.00000000000E+00 -0.00000000000E+00 -0.38587329623E+03  0.38587329623E+03  0.00000000000E+00 0. -1.
         25    2    1    2    0    0 -0.11330998820E+03 -0.40972762318E+02 -0.10877043924E+03  0.20487816768E+03  0.12500453776E+03 0.  0.
          2    1    1    2  501    0 -0.24884056522E+02 -0.20386726125E+01 -0.22575638618E+03  0.22713282095E+03  0.00000000000E+00 0. -1.
          1    1    1    2  502    0  0.13819404472E+03  0.43011434931E+02  0.20081912241E+04  0.20134000025E+04  0.00000000000E+00 0. -1.
         22    1    3    3    0    0  0.19913090432E+02  0.71932891261E+01  0.66026379310E+01  0.22178129016E+02  0.00000000000E+00 0. -1.
         22    1    3    3    0    0 -0.13322307863E+03 -0.48166051444E+02 -0.11537307717E+03  0.18270003866E+03  0.00000000000E+00 0. -1.
</event>
<event>
 7    1  0.5950675E-006  0.7295900E+02  0.7818608E-02  0.1363713E+00
          2   -1    0    0  502    0  0.00000000000E+00  0.00000000000E+00  0.61452801614E+03  0.61452801614E+03  0.00000000000E+00 0. -1.
          1   -1    0    0  501    0 -0.00000000000E+00 -0.00000000000E+00 -0.40717819041E+03  0.40717819041E+03  0.00000000000E+00 0. -1.
         25    2    1    2    0    0 -0.69909912006E+02  0.51286455749E+02  0.39959517230E+03  0.42756990686E+03  0.12498810821E+03 0.  0.
          2    1    1    2  501    0  0.83390374713E+01 -0.72596486012E+02 -0.38437517444E+03  0.39125958653E+03  0.00000000000E+00 0. -1.
          1    1    1    2  502    0  0.61570874534E+02  0.21310030263E+02  0.19212982788E+03  0.20287671316E+03  0.00000000000E+00 0. -1.
         22    1    3    3    0    0 -0.14529169925E+02  0.80558125060E+02  0.29004880971E+03  0.30137853325E+03  0.00000000000E+00 0. -1.
         22    1    3    3    0    0 -0.55380742081E+02 -0.29271669311E+02  0.10954636258E+03  0.12619137361E+03  0.00000000000E+00 0. -1.
</event>
<event>
 7    1  0.5950675E-006  0.6047360E+02  0.7818608E-02  0.1446824E+00
          2   -1    0    0  502    0  0.00000000000E+00  0.00000000000E+00  0.16640314757E+04  0.16640314757E+04  0.00000000000E+00 0. -1.
          1   -1    0    0  501    0 -0.00000000000E+00 -0.00000000000E+00 -0.34552115382E+03  0.34552115382E+03  0.00000000000E+00 0. -1.
         25    2    1    2    0    0 -0.27166935794E+02 -0.18109436170E+02 -0.64690990634E+02  0.14448140054E+03  0.12499582694E+03 0.  0.
          2    1    1    2  501    0  0.92136497648E+01 -0.39837099716E+02 -0.23862899509E+03  0.24210675982E+03  0.00000000000E+00 0. -1.
          1    1    1    2  502    0  0.17953286029E+02  0.57946535885E+02  0.16218303076E+04  0.16229644692E+04  0.00000000000E+00 0. -1.
         22    1    3    3    0    0  0.28449834769E+02 -0.48937102211E+02 -0.57163877924E+02  0.80448381031E+02  0.00000000000E+00 0.  1.
         22    1    3    3    0    0 -0.55616770563E+02  0.30827666041E+02 -0.75271127103E+01  0.64033019507E+02  0.00000000000E+00 0.  1.
</event>
<event>
 7    1  0.5950675E-006  0.1504940E+03  0.7818608E-02  0.1288562E+00
          2   -1    0    0  502    0  0.00000000000E+00  0.00000000000E+00  0.29431229270E+03  0.29431229270E+03  0.00000000000E+00 0. -1.
          1   -1    0    0  501    0 -0.00000000000E+00 -0.00000000000E+00 -0.17302178102E+04  0.17302178102E+04  0.00000000000E+00 0. -1.
         25    2    1    2    0    0 -0.17340490273E+03  0.10513021226E+03 -0.21459546639E+03  0.32062181317E+03  0.12500204424E+03 0.  0.
          2    1    1    2  501    0  0.60172150540E+02 -0.12493293568E+02 -0.14397182222E+04  0.14410292604E+04  0.00000000000E+00 0. -1.
          1    1    1    2  502    0  0.11323275219E+03 -0.92636918688E+02  0.21840817107E+03  0.26287902933E+03  0.00000000000E+00 0. -1.
         22    1    3    3    0    0 -0.11201478148E+03  0.11330495981E+03 -0.93834593421E+02  0.18490607375E+03  0.00000000000E+00 0.  1.
         22    1    3    3    0    0 -0.61390121245E+02 -0.81747475578E+01 -0.12076087297E+03  0.13571573942E+03  0.00000000000E+00 0.  1.
</event>
<event>
 7    1  0.5950675E-006  0.4718954E+02  0.7818608E-02  0.1507510E+00
          2   -1    0    0  502    0  0.00000000000E+00  0.00000000000E+00  0.23587097254E+04  0.23587097254E+04  0.00000000000E+00 0. -1.
          1   -1    0    0  501    0 -0.00000000000E+00 -0.00000000000E+00 -0.25159170830E+03  0.25159170830E+03  0.00000000000E+00 0. -1.
         25    2    1    2    0    0  0.17745336087E+02  0.23840743315E+01  0.34422198892E+03  0.36665273634E+03  0.12499948259E+03 0.  0.
          2    1    1    2  501    0 -0.42470908326E+02  0.21052350092E+02 -0.23789297500E+03  0.24256967464E+03  0.00000000000E+00 0. -1.
          1    1    1    2  502    0  0.24725572239E+02 -0.23436424424E+02  0.20007890032E+04  0.20010790227E+04  0.00000000000E+00 0. -1.
         22    1    3    3    0    0  0.21896352695E+02  0.61855341707E+02  0.15673736971E+03  0.16991802913E+03  0.00000000000E+00 0. -1.
         22    1    3    3    0    0 -0.41510166084E+01 -0.59471267376E+02  0.18748461921E+03  0.19673470721E+03  0.00000000000E+00 0. -1.
</event>
<event>
 7    1  0.5950675E-006  0.7312477E+02  0.7818608E-02  0.1509295E+00
          2   -1    0    0  502    0  0.00000000000E+00  0.00000000000E+00  0.84162296643E+03  0.84162296643E+03  0.00000000000E+00 0. -1.
          1   -1    0    0  501    0 -0.00000000000E+00 -0.00000000000E+00 -0.51061604482E+02  0.51061604482E+02  0.00000000000E+00 0. -1.
         25    2    1    2    0    0 -0.34569244031E+02 -0.70679267269E+02  0.28107647831E+03  0.31752009166E+03  0.12499772194E+03 0.  0.
          2    1    1    2  501    0  0.12867946565E+02  0.71579795790E+02  0.79510816520E+01  0.73160583059E+02  0.00000000000E+00 0. -1.
          1    1    1    2  502    0  0.21701297466E+02 -0.90052852101E+00  0.50153380198E+03  0.50200389619E+03  0.00000000000E+00 0. -1.
         22    1    3    3    0    0  0.28129395537E+02  0.17857590385E+02  0.11007632672E+03  0.11500849591E+03  0.00000000000E+00 0.  1.
         22    1    3    3    0    0 -0.62698639568E+02 -0.88536857654E+02  0.17100015160E+03  0.20251159575E+03  0.00000000000E+00 0.  1.
</event>
<event>
 7    1  0.5950675E-006  0.2496908E+03  0.7818608E-02  0.1131306E+00
          2   -1    0    0  502    0  0.00000000000E+00  0.00000000000E+00  0.26322364669E+04  0.26322364669E+04  0.00000000000E+00 0. -1.
          1   -1    0    0  501    0 -0.00000000000E+00 -0.00000000000E+00 -0.10060915964E+04  0.10060915964E+04  0.00000000000E+00 0. -1.
         25    2    1    2    0    0 -0.13522524793E+03 -0.16505837096E+03  0.89857524480E+02  0.26311124491E+03  0.12499207571E+03 0.  0.
          2    1    1    2  501    0  0.26045511427E+03  0.90621487043E+01 -0.89681008747E+03  0.93390969696E+03  0.00000000000E+00 0. -1.
          1    1    1    2  502    0 -0.12522986634E+03  0.15599622225E+03  0.24330974335E+04  0.24413071215E+04  0.00000000000E+00 0. -1.
         22    1    3    3    0    0 -0.11568009780E+03 -0.17509216130E+03  0.10670466222E+03  0.23542522149E+03  0.00000000000E+00 0.  1.
         22    1    3    3    0    0 -0.19545150132E+02  0.10033790346E+02 -0.16847137739E+02  0.27686023412E+02  0.00000000000E+00 0.  1.
</event>
<event>
 7    1  0.5950675E-006  0.1012258E+03  0.7818608E-02  0.1360192E+00
          2   -1    0    0  502    0  0.00000000000E+00  0.00000000000E+00  0.12891486914E+04  0.12891486914E+04  0.00000000000E+00 0. -1.
          1   -1    0    0  501    0 -0.00000000000E+00 -0.00000000000E+00 -0.15857435531E+04  0.15857435531E+04  0.00000000000E+00 0. -1.
         25    2    1    2    0    0  0.10043688379E+03 -0.45770579901E+02  0.62327858488E+03  0.64519909784E+03  0.12499267130E+03 0.  0.
          2    1    1    2  501    0  0.38929126330E+00  0.48364823559E+02 -0.15705255751E+04  0.15712701518E+04  0.00000000000E+00 0. -1.
          1    1    1    2  502    0 -0.10082617505E+03 -0.25942436579E+01  0.65065212865E+03  0.65842299489E+03  0.00000000000E+00 0. -1.
         22    1    3    3    0    0  0.41813734180E+02  0.34215894245E+02  0.35676958787E+03  0.36083743516E+03  0.00000000000E+00 0.  1.
         22    1    3    3    0    0  0.58623149608E+02 -0.79986474146E+02  0.26650899701E+03  0.28436166268E+03  0.00000000000E+00 0.  1.
</event>
<event>
 7    1  0.5950675E-006  0.1838146E+03  0.7818608E-02  0.1340934E+00
          2   -1    0    0  502    0  0.00000000000E+00  0.00000000000E+00  0.19465343440E+03  0.19465343440E+03  0.00000000000E+00 0. -1.
          1   -1    0    0  501    0 -0.00000000000E+00 -0.00000000000E+00 -0.20010680095E+04  0.20010680095E+04  0.00000000000E+00 0. -1.
         25    2    1    2    0    0  0.14546389937E+03 -0.93867865812E+02 -0.14264923285E+04  0.14423876109E+04  0.12502293657E+03 0.  0.
          2    1    1    2  501    0  0.23604362208E+02  0.20687937263E+02 -0.52059503723E+03  0.52154036224E+03  0.00000000000E+00 0. -1.
          1    1    1    2  502    0 -0.16906826158E+03  0.73179928549E+02  0.14067279067E+03  0.23179347068E+03  0.00000000000E+00 0. -1.
         22    1    3    3    0    0  0.11444656323E+02 -0.36186766428E+02 -0.71931429951E+03  0.72031487816E+03  0.00000000000E+00 0. -1.
         22    1    3    3    0    0  0.13401924304E+03 -0.57681099384E+02 -0.70717802900E+03  0.72207273279E+03  0.00000000000E+00 0. -1.
</event>
<event>
 7    1  0.5950675E-006  0.2095785E+03  0.7818608E-02  0.1317541E+00
          2   -1    0    0  502    0  0.00000000000E+00  0.00000000000E+00  0.27952414729E+04  0.27952414729E+04  0.00000000000E+00 0. -1.
          1   -1    0    0  501    0 -0.00000000000E+00 -0.00000000000E+00 -0.97732055677E+03  0.97732055677E+03  0.00000000000E+00 0. -1.
         25    2    1    2    0    0 -0.40197350307E+02  0.17692599917E+03  0.52239921783E+03  0.56696141118E+03  0.12500265127E+03 0.  0.
          2    1    1    2  501    0  0.27697368425E+02 -0.20835902083E+03 -0.94334501403E+03  0.96647837083E+03  0.00000000000E+00 0. -1.
          1    1    1    2  502    0  0.12499981882E+02  0.31433021660E+02  0.22388667123E+04  0.22391222477E+04  0.00000000000E+00 0. -1.
         22    1    3    3    0    0 -0.70027298087E+02  0.41291038630E+02  0.20330908587E+03  0.21895971490E+03  0.00000000000E+00 0.  1.
         22    1    3    3    0    0  0.29829947780E+02  0.13563496054E+03  0.31909013196E+03  0.34800169628E+03  0.00000000000E+00 0.  1.
</event>
<event>
 7    1  0.5950675E-006  0.6434264E+02  0.7818608E-02  0.1521255E+00
          2   -1    0    0  502    0  0.00000000000E+00  0.00000000000E+00  0.12876660824E+04  0.12876660824E+04  0.00000000000E+00 0. -1.
          1   -1    0    0  501    0 -0.00000000000E+00 -0.00000000000E+00 -0.17595139517E+02  0.17595139517E+02  0.00000000000E+00 0. -1.
         25    2    1    2    0    0 -0.47398056876E+02 -0.40875404664E+02  0.11055239737E+04  0.11143273516E+04  0.12499926197E+03 0.  0.
          2    1    1    2  501    0  0.10616196028E+02 -0.20150094937E+02  0.62096721779E+02  0.66141762902E+02  0.00000000000E+00 0. -1.
          1    1    1    2  502    0  0.36781860848E+02  0.61025499601E+02  0.10245024735E+03  0.12479210740E+03  0.00000000000E+00 0. -1.
         22    1    3    3    0    0 -0.31022114167E+02  0.16959276434E+01  0.57882994876E+02  0.65693902562E+02  0.00000000000E+00 0. -1.
         22    1    3    3    0    0 -0.16375942709E+02 -0.42571332307E+02  0.10476409789E+04  0.10486334490E+04  0.00000000000E+00 0. -1.
</event>
<event>
 7    1  0.5950675E-006  0.1118641E+03  0.7818608E-02  0.1373175E+00
          2   -1    0    0  502    0  0.00000000000E+00  0.00000000000E+00  0.17057652654E+04  0.17057652654E+04  0.00000000000E+00 0. -1.
          1   -1    0    0  501    0 -0.00000000000E+00 -0.00000000000E+00 -0.18143743781E+04  0.18143743781E+04  0.00000000000E+00 0. -1.
         25    2    1    2    0    0 -0.99406933721E+02  0.10664765339E+03  0.96603482296E+02  0.21497268335E+03  0.12500224538E+03 0.  0.
          2    1    1    2  501    0  0.13289929464E+02 -0.36969868388E+02 -0.17529901714E+04  0.17534303335E+04  0.00000000000E+00 0. -1.
          1    1    1    2  502    0  0.86117004257E+02 -0.69677785000E+02  0.15477775765E+04  0.15517366266E+04  0.00000000000E+00 0. -1.
         22    1    3    3    0    0 -0.11691793418E+03  0.51841018024E+02  0.39370180745E+02  0.13381818118E+03  0.00000000000E+00 0.  1.
         22    1    3    3    0    0  0.17511000455E+02  0.54806635364E+02  0.57233301551E+02  0.81154502175E+02  0.00000000000E+00 0.  1.
</event>
<event>
 7    1  0.5950675E-006  0.4021151E+02  0.7818608E-02  0.1568269E+00
          2   -1    0    0  502    0  0.00000000000E+00  0.00000000000E+00  0.20628058203E+04  0.20628058203E+04  0.00000000000E+00 0. -1.
          1   -1    0    0  501    0 -0.00000000000E+00 -0.00000000000E+00 -0.12364474795E+02  0.12364474795E+02  0.00000000000E+00 0. -1.
         25    2    1    2    0    0 -0.26576776673E+01 -0.53808109397E+02  0.15756962853E+04  0.15815638802E+04  0.12499259103E+03 0.  0.
          2    1    1    2  501    0 -0.17475574215E+02  0.35988970383E+02  0.35343873355E+02  0.53383434388E+02  0.00000000000E+00 0. -1.
          1    1    1    2  502    0  0.20133251882E+02  0.17819139014E+02  0.43940118686E+03  0.44022298050E+03  0.00000000000E+00 0. -1.
         22    1    3    3    0    0 -0.35425865810E+02 -0.26497413130E+02  0.14022999939E+04  0.14029976399E+04  0.00000000000E+00 0. -1.
         22    1    3    3    0    0  0.32768188142E+02 -0.27310696267E+02  0.17339629141E+03  0.17856624025E+03  0.00000000000E+00 0. -1.
</event>
<event>
 7    1  0.5950675E-006  0.6542060E+02  0.7818608E-02  0.1406232E+00
          2   -1    0    0  502    0  0.00000000000E+00  0.00000000000E+00  0.60122615292E+03  0.60122615292E+03  0.00000000000E+00 0. -1.
          1   -1    0    0  501    0 -0.00000000000E+00 -0.00000000000E+00 -0.52925759277E+02  0.52925759277E+02  0.00000000000E+00 0. -1.
         25    2    1    2    0    0 -0.15491163944E+02 -0.57601586180E+02  0.34566590728E+03  0.37238181267E+03  0.12500150423E+03 0.  0.
          2    1    1    2  501    0 -0.47674876967E+02  0.19471101529E+02 -0.13625720438E+02  0.53269859639E+02  0.00000000000E+00 0. -1.
          1    1    1    2  502    0  0.63166040911E+02  0.38130484651E+02  0.21626020680E+03  0.22850023989E+03  0.00000000000E+00 0. -1.
         22    1    3    3    0    0  0.89485974169E+01  0.18288430168E+02  0.30208385249E+01  0.20583234418E+02  0.00000000000E+00 0. -1.
         22    1    3    3    0    0 -0.24439761361E+02 -0.75890016347E+02  0.34264506875E+03  0.35179857825E+03  0.00000000000E+00 0. -1.
</event>
<event>
 7    1  0.5950675E-006  0.7513018E+02  0.7818608E-02  0.1392935E+00
          2   -1    0    0  502    0  0.00000000000E+00  0.00000000000E+00  0.77019002782E+03  0.77019002782E+03  0.00000000000E+00 0. -1.
          1   -1    0    0  501    0 -0.00000000000E+00 -0.00000000000E+00 -0.16039574384E+03  0.16039574384E+03  0.00000000000E+00 0. -1.
         25    2    1    2    0    0  0.89381572069E+02  0.19251547515E+02  0.23293086951E+03  0.27971606205E+03  0.12499839154E+03 0.  0.
          2    1    1    2  501    0 -0.70129737348E+02  0.26702932467E+02 -0.12540153225E+03  0.14613955985E+03  0.00000000000E+00 0. -1.
          1    1    1    2  502    0 -0.19251834722E+02 -0.45954479983E+02  0.50226494672E+03  0.50473014975E+03  0.00000000000E+00 0. -1.
         22    1    3    3    0    0 -0.15263785227E+02  0.44576389993E+02  0.75225086776E+02  0.88762894076E+02  0.00000000000E+00 0.  1.
         22    1    3    3    0    0  0.10464535730E+03 -0.25324842478E+02  0.15770578273E+03  0.19095316797E+03  0.00000000000E+00 0.  1.
</event>
<event>
 7    1  0.5950675E-006  0.1182181E+03  0.7818608E-02  0.1306875E+00
          2   -1    0    0  502    0  0.00000000000E+00  0.00000000000E+00  0.14066107273E+03  0.14066107273E+03  0.00000000000E+00 0. -1.
          1   -1    0    0  501    0 -0.00000000000E+00 -0.00000000000E+00 -0.58107471088E+03  0.58107471088E+03  0.00000000000E+00 0. -1.
         25    2    1    2    0    0 -0.15851186364E+03 -0.83456582267E+02 -0.34540801295E+02  0.22113357433E+03  0.12496390962E+03 0.  0.
          2    1    1    2  501    0  0.98255064433E+02  0.56427464457E+02 -0.41832422067E+03  0.43339735812E+03  0.00000000000E+00 0. -1.
          1    1    1    2  502    0  0.60256799203E+02  0.27029117810E+02  0.12451383815E+02  0.67204851154E+02  0.00000000000E+00 0. -1.
         22    1    3    3    0    0 -0.50964714112E+02 -0.73670884732E+02  0.31019072807E+02  0.94799705799E+02  0.00000000000E+00 0. -1.
         22    1    3    3    0    0 -0.10754714952E+03 -0.97856975350E+01 -0.65559874101E+02  0.12633386854E+03  0.00000000000E+00 0. -1.
</event>
<event>
 7    1  0.5950675E-006  0.8849976E+02  0.7818608E-02  0.1360422E+00
          2   -1    0    0  502    0  0.00000000000E+00  0.00000000000E+00  0.88934908292E+03  0.88934908292E+03  0.00000000000E+00 0. -1.
          1   -1    0    0  501    0 -0.00000000000E+00 -0.00000000000E+00 -0.25987377682E+03  0.25987377682E+03  0.00000000000E+00 0. -1.
         25    2    1    2    0    0  0.21212152779E+02 -0.37789148229E+02 -0.10349614266E+03  0.16796966822E+03  0.12499753096E+03 0.  0.
          2    1    1    2  501    0  0.54299216255E+02 -0.10012528158E+02 -0.11553631735E+03  0.12805192788E+03  0.00000000000E+00 0. -1.
          1    1    1    2  502    0 -0.75511369034E+02  0.47801676387E+02  0.84850776612E+03  0.85320126365E+03  0.00000000000E+00 0. -1.
         22    1    3    3    0    0 -0.36689241624E+02  0.22981334760E+02 -0.58362828869E+02  0.72666787406E+02  0.00000000000E+00 0. -1.
         22    1    3    3    0    0  0.57901394404E+02 -0.60770482989E+02 -0.45133313794E+02  0.95302880810E+02  0.00000000000E+00 0. -1.
</event>
<event>
 7    1  0.5950675E-006  0.2504786E+03  0.7818608E-02  0.1171372E+00
          2   -1    0    0  502    0  0.00000000000E+00  0.00000000000E+00  0.55739948535E+03  0.55739948535E+03  0.00000000000E+00 0. -1.
          1   -1    0    0  501    0 -0.00000000000E+00 -0.00000000000E+00 -0.23141830135E+04  0.23141830135E+04  0.00000000000E+00 0. -1.
         25    2    1    2    0    0 -0.12911478613E+03 -0.25109741583E+03 -0.86078398182E+02  0.32054345594E+03  0.12497230204E+03 0.  0.
          2    1    1    2  501    0 -0.70598162694E+02  0.10215393406E+03 -0.20736120042E+04  0.20773267125E+04  0.00000000000E+00 0. -1.
          1    1    1    2  502    0  0.19971294882E+03  0.14894348177E+03  0.40290687418E+03  0.47371233038E+03  0.00000000000E+00 0. -1.
         22    1    3    3    0    0 -0.26089222195E+02 -0.15063872452E+03 -0.88456305642E+02  0.17662726530E+03  0.00000000000E+00 0. -1.
         22    1    3    3    0    0 -0.10302556393E+03 -0.10045869131E+03  0.23779074605E+01  0.14391619064E+03  0.00000000000E+00 0. -1.
</event>
<event>
 7    1  0.5950675E-006  0.1591124E+03  0.7818608E-02  0.1227292E+00
          2   -1    0    0  502    0  0.00000000000E+00  0.00000000000E+00  0.46756306093E+03  0.46756306093E+03  0.00000000000E+00 0. -1.
          1   -1    0    0  501    0 -0.00000000000E+00 -0.00000000000E+00 -0.11185366254E+04  0.11185366254E+04  0.00000000000E+00 0. -1.
         25    2    1    2    0    0  0.29133974074E+02  0.72069204140E+02 -0.38141544274E+03  0.40883393536E+03  0.12499875245E+03 0.  0.
          2    1    1    2  501    0  0.10434322673E+03  0.20791847157E+02 -0.70472581531E+03  0.71271192261E+03  0.00000000000E+00 0. -1.
          1    1    1    2  502    0 -0.13347720080E+03 -0.92861051297E+02  0.43516769354E+03  0.46455382840E+03  0.00000000000E+00 0. -1.
         22    1    3    3    0    0  0.28904020211E+02  0.22686956612E+02 -0.15966091044E+02  0.40063155741E+02  0.00000000000E+00 0.  1.
         22    1    3    3    0    0  0.22995386227E+00  0.49382247528E+02 -0.36544935169E+03  0.36877077962E+03  0.00000000000E+00 0.  1.
</event>
<event>
 7    1  0.5950675E-006  0.5882414E+02  0.7818608E-02  0.1440280E+00
          2   -1    0    0  502    0  0.00000000000E+00  0.00000000000E+00  0.23643140381E+04  0.23643140381E+04  0.00000000000E+00 0. -1.
          1   -1    0    0  501    0 -0.00000000000E+00 -0.00000000000E+00 -0.31350162602E+02  0.31350162602E+02  0.00000000000E+00 0. -1.
         25    2    1    2    0    0  0.15997629336E+02  0.11920661203E+02  0.37795837735E+03  0.39859511484E+03  0.12501001662E+03 0.  0.
          2    1    1    2  501    0 -0.44747684458E+02 -0.45401837536E+02  0.28112204387E+02  0.69670496995E+02  0.00000000000E+00 0. -1.
          1    1    1    2  502    0  0.28750055121E+02  0.33481176333E+02  0.19268932937E+04  0.19273985888E+04  0.00000000000E+00 0. -1.
         22    1    3    3    0    0  0.57782132434E+01 -0.48859485727E+02  0.26856193590E+03  0.27303140938E+03  0.00000000000E+00 0. -1.
         22    1    3    3    0    0  0.10219416093E+02  0.60780146930E+02  0.10939644146E+03  0.12556370546E+03  0.00000000000E+00 0. -1.
</event>
<event>
 7    1  0.5950675E-006  0.5981793E+02  0.7818608E-02  0.1410356E+00
          2   -1    0    0  502    0  0.00000000000E+00  0.00000000000E+00  0.75809537996E+03  0.75809537996E+03  0.00000000000E+00 0. -1.
          1   -1    0    0  501    0 -0.00000000000E+00 -0.00000000000E+00 -0.67678930122E+03  0.67678930122E+03  0.00000000000E+00 0. -1.
         25    2    1    2    0    0 -0.73281836194E+02  0.34533190030E+02  0.44689045160E+03  0.47106177173E+03  0.12500139329E+03 0.  0.
          2    1    1    2  501    0  0.50867808333E+02  0.19655722682E+02 -0.66069530483E+03  0.66294205417E+03  0.00000000000E+00 0. -1.
          1    1    1    2  502    0  0.22414027861E+02 -0.54188912711E+02  0.29511093197E+03  0.30088085528E+03  0.00000000000E+00 0. -1.
         22    1    3    3    0    0  0.88523992608E+01 -0.22257841143E+02  0.24148724746E+03  0.24267234525E+03  0.00000000000E+00 0.  1.
         22    1    3    3    0    0 -0.82134235455E+02  0.56791031173E+02  0.20540320414E+03  0.22838942648E+03  0.00000000000E+00 0.  1.
</event>
<event>
 7    1  0.5950675E-006  0.7203230E+02  0.7818608E-02  0.1410527E+00
          2   -1    0    0  502    0  0.00000000000E+00  0.00000000000E+00  0.39197456628E+04  0.39197456628E+04  0.00000000000E+00 0. -1.
          1   -1    0    0  501    0 -0.00000000000E+00 -0.00000000000E+00 -0.26067638662E+03  0.26067638662E+03  0.00000000000E+00 0. -1.
         25    2    1    2    0    0  0.64152011048E+02  0.93580826365E+02  0.33789213556E+04  0.33831356897E+04  0.12499886470E+03 0.  0.
          2    1    1    2  501    0 -0.28114162149E+02 -0.66256000729E+02 -0.25258387833E+03  0.26263830516E+03  0.00000000000E+00 0. -1.
          1    1    1    2  502    0 -0.36037848899E+02 -0.27324825636E+02  0.53273179895E+03  0.53464805457E+03  0.00000000000E+00 0. -1.
         22    1    3    3    0    0 -0.10578933614E+02  0.58523843201E+02  0.58930766486E+03  0.59230100280E+03  0.00000000000E+00 0. -1.
         22    1    3    3    0    0  0.74730944661E+02  0.35056983165E+02  0.27896136907E+04  0.27908346869E+04  0.00000000000E+00 0. -1.
</event>
<event>
 7    1  0.5950675E-006  0.1647620E+03  0.7818608E-02  0.1247389E+00
          2   -1    0    0  502    0  0.00000000000E+00  0.00000000000E+00  0.78605518077E+03  0.78605518077E+03  0.00000000000E+00 0. -1.
          1   -1    0    0  501    0 -0.00000000000E+00 -0.00000000000E+00 -0.65414095885E+03  0.65414095885E+03  0.00000000000E+00 0. -1.
         25    2    1    2    0    0  0.10789314684E+03 -0.16801728927E+03  0.52305813502E+03  0.57365983214E+03  0.12500019907E+03 0.  0.
          2    1    1    2  501    0  0.44550291981E+01  0.83584309933E+02 -0.60493003901E+03  0.61069348797E+03  0.00000000000E+00 0. -1.
          1    1    1    2  502    0 -0.11234817603E+03  0.84432979335E+02  0.21378612592E+03  0.25584281951E+03  0.00000000000E+00 0. -1.
         22    1    3    3    0    0  0.76341416117E+02 -0.16712553568E+03  0.32705912820E+03  0.37513548197E+03  0.00000000000E+00 0. -1.
         22    1    3    3    0    0  0.31551730718E+02 -0.89175358906E+00  0.19599900682E+03  0.19852435017E+03  0.00000000000E+00 0. -1.
</event>
<event>
 7    1  0.5950675E-006  0.1283768E+03  0.7818608E-02  0.1404694E+00
          2   -1    0    0  502    0  0.00000000000E+00  0.00000000000E+00  0.72889268018E+03  0.72889268018E+03  0.00000000000E+00 0. -1.
          1   -1    0    0  501    0 -0.00000000000E+00 -0.00000000000E+00 -0.17015263978E+04  0.17015263978E+04  0.00000000000E+00 0. -1.
         25    2    1    2    0    0  0.49274705374E+02 -0.98119411528E+02  0.83934507899E+02  0.18635122425E+03  0.12500544650E+03 0.  0.
          2    1    1    2  501    0 -0.75027635475E+02  0.10462584903E+03 -0.16475082633E+04  0.16525311470E+04  0.00000000000E+00 0. -1.
          1    1    1    2  502    0  0.25752930101E+02 -0.65064375032E+01  0.59094003776E+03  0.59153670669E+03  0.00000000000E+00 0. -1.
         22    1    3    3    0    0 -0.41955188833E+02 -0.33007366619E+02  0.36364001515E+02  0.64591522101E+02  0.00000000000E+00 0. -1.
         22    1    3    3    0    0  0.91229894207E+02 -0.65112044909E+02  0.47570506385E+02  0.12175970215E+03  0.00000000000E+00 0. -1.
</event>
<event>
 7    1  0.5950675E-006  0.1470200E+03  0.7818608E-02  0.1251243E+00
          2   -1    0    0  502    0  0.00000000000E+00  0.00000000000E+00  0.20710005131E+04  0.20710005131E+04  0.00000000000E+00 0. -1.
          1   -1    0    0  501    0 -0.00000000000E+00 -0.00000000000E+00 -0.27653246485E+03  0.27653246485E+03  0.00000000000E+00 0. -1.
         25    2    1    2    0    0  0.11401401697E+03  0.73834081506E+02  0.91505859380E+02  0.20602784462E+03  0.12499393106E+03 0.  0.
          2    1    1    2  501    0 -0.55582869959E+02 -0.14262462136E+03 -0.19135054876E+03  0.24504340546E+03  0.00000000000E+00 0. -1.
          1    1    1    2  502    0 -0.58431147007E+02  0.68790539852E+02  0.18943127376E+04  0.18964617278E+04  0.00000000000E+00 0. -1.
         22    1    3    3    0    0  0.14410102921E+02 -0.24034589502E+02 -0.13699278694E+02  0.31192672144E+02  0.00000000000E+00 0. -1.
         22    1    3    3    0    0  0.99603914044E+02  0.97868671008E+02  0.10520513807E+03  0.17483517248E+03  0.00000000000E+00 0. -1.
</event>
<event>
 7    1  0.5950675E-006  0.6461233E+02  0.7818608E-02  0.1520234E+00
          2   -1    0    0  502    0  0.00000000000E+00  0.00000000000E+00  0.71085486517E+02  0.71085486517E+02  0.00000000000E+00 0. -1.
          1   -1    0    0  501    0 -0.00000000000E+00 -0.00000000000E+00 -0.61452686515E+03  0.61452686515E+03  0.00000000000E+00 0. -1.
         25    2    1    2    0    0 -0.55297224171E+02 -0.10962999210E+02 -0.19216087518E+03  0.23607077440E+03  0.12500255286E+03 0.  0.
          2    1    1    2  501    0  0.56724263036E+02  0.33754135139E+02 -0.39486129150E+03  0.40034038415E+03  0.00000000000E+00 0. -1.
          1    1    1    2  502    0 -0.14270388650E+01 -0.22791135929E+02  0.43580788052E+02  0.49201193117E+02  0.00000000000E+00 0. -1.
         22    1    3    3    0    0 -0.50478220031E+02 -0.35843782579E+02 -0.20014361718E+03  0.20950010727E+03  0.00000000000E+00 0. -1.
         22    1    3    3    0    0 -0.48190041400E+01  0.24880783369E+02  0.79827419988E+01  0.26570667131E+02  0.00000000000E+00 0. -1.
</event>
<event>
 7    1  0.5950675E-006  0.1466090E+03  0.7818608E-02  0.1247122E+00
          2   -1    0    0  502    0  0.00000000000E+00  0.00000000000E+00  0.53902426993E+03  0.53902426993E+03  0.00000000000E+00 0. -1.
          1   -1    0    0  501    0 -0.00000000000E+00 -0.00000000000E+00 -0.16837277248E+03  0.16837277248E+03  0.00000000000E+00 0. -1.
         25    2    1    2    0    0  0.13257747621E+03  0.45545628100E+02  0.88949116247E+02  0.20781902777E+03  0.12500244632E+03 0.  0.
          2    1    1    2  501    0 -0.45796041475E+02  0.82455123178E+02 -0.68620643659E+02  0.11664011955E+03  0.00000000000E+00 0. -1.
          1    1    1    2  502    0 -0.86781434738E+02 -0.12800075128E+03  0.35032302486E+03  0.38293789508E+03  0.00000000000E+00 0. -1.
         22    1    3    3    0    0  0.13372953556E+02  0.14565649454E+02 -0.30432443996E+02  0.36292253696E+02  0.00000000000E+00 0. -1.
         22    1    3    3    0    0  0.11920452266E+03  0.30979978646E+02  0.11938156024E+03  0.17152677408E+03  0.00000000000E+00 0. -1.
</event>
<event>
 7    1  0.5950675E-006  0.3469172E+02  0.7818608E-02  0.1632876E+00
          2   -1    0    0  502    0  0.00000000000E+00  0.00000000000E+00  0.13967997336E+03  0.13967997336E+03  0.00000000000E+00 0. -1.
          1   -1    0    0  501    0 -0.00000000000E+00 -0.00000000000E+00 -0.17575827677E+04  0.17575827677E+04  0.00000000000E+00 0. -1.
         25    2    1    2    0    0 -0.11434608904E+01 -0.40747929158E+02  0.43276715158E+02  0.13842365421E+03  0.12500613080E+03 0.  0.
          2    1    1    2  501    0  0.18806713460E+02  0.29151306915E+02 -0.17075389767E+04  0.17078913455E+04  0.00000000000E+00 0. -1.
          1    1    1    2  502    0 -0.17663252570E+02  0.11596622243E+02  0.46359467244E+02  0.50947741284E+02  0.00000000000E+00 0. -1.
         22    1    3    3    0    0 -0.38644144474E+02  0.17917468329E+02  0.53136333217E+02  0.68101949173E+02  0.00000000000E+00 0. -1.
         22    1    3    3    0    0  0.37500683583E+02 -0.58665397487E+02 -0.98596180588E+01  0.70321705041E+02  0.00000000000E+00 0. -1.
</event>
<event>
 7    1  0.5950675E-006  0.4866143E+02  0.7818608E-02  0.1468180E+00
          2   -1    0    0  502    0  0.00000000000E+00  0.00000000000E+00  0.35473736325E+03  0.35473736325E+03  0.00000000000E+00 0. -1.
          1   -1    0    0  501    0 -0.00000000000E+00 -0.00000000000E+00 -0.96427043803E+03  0.96427043803E+03  0.00000000000E+00 0. -1.
         25    2    1    2    0    0  0.57674757543E+02  0.29675922339E+02  0.19864649667E+03  0.24350077960E+03  0.12500064402E+03 0.  0.
          2    1    1    2  501    0 -0.40679954038E+02  0.15374844546E+02 -0.93698629070E+03  0.93799496452E+03  0.00000000000E+00 0. -1.
          1    1    1    2  502    0 -0.16994803505E+02 -0.45050766885E+02  0.12880671924E+03  0.13751205716E+03  0.00000000000E+00 0. -1.
         22    1    3    3    0    0 -0.15755597029E+02  0.54904356208E+02  0.12043461968E+03  0.13329375374E+03  0.00000000000E+00 0.  1.
         22    1    3    3    0    0  0.73430354572E+02 -0.25228433869E+02  0.78211876991E+02  0.11020702587E+03  0.00000000000E+00 0.  1.
</event>
<event>
 7    1  0.5950675E-006  0.5766103E+02  0.7818608E-02  0.1433535E+00
          2   -1    0    0  502    0  0.00000000000E+00  0.00000000000E+00  0.15779866406E+03  0.15779866406E+03  0.00000000000E+00 0. -1.
          1   -1    0    0  501    0 -0.00000000000E+00 -0.00000000000E+00 -0.34347170483E+03  0.34347170483E+03  0.00000000000E+00 0. -1.
         25    2    1    2    0    0 -0.66849382542E+02 -0.34910788711E+02 -0.82171742772E+02  0.16752548312E+03  0.12499995627E+03 0.  0.
          2    1    1    2  501    0  0.10431211094E+02  0.46196130546E+02 -0.20861047404E+03  0.21391872878E+03  0.00000000000E+00 0. -1.
          1    1    1    2  502    0  0.56418171448E+02 -0.11285341836E+02  0.10510917604E+03  0.11982615699E+03  0.00000000000E+00 0. -1.
         22    1    3    3    0    0  0.24880195894E+02 -0.36119459497E+02  0.74966732658E+00  0.43865721277E+02  0.00000000000E+00 0.  1.
         22    1    3    3    0    0 -0.91729578436E+02  0.12086707860E+01 -0.82921410098E+02  0.12365976184E+03  0.00000000000E+00 0.  1.
</event>
<event>
 7    1  0.5950675E-006  0.8214609E+02  0.7818608E-02  0.1398232E+00
          2   -1    0    0  502    0  0.00000000000E+00  0.00000000000E+00  0.27971981655E+03  0.27971981655E+03  0.00000000000E+00 0. -1.
          1   -1    0    0  501    0 -0.00000000000E+00 -0.00000000000E+00 -0.14396649072E+03  0.14396649072E+03  0.00000000000E+00 0. -1.
         25    2    1    2    0    0  0.15814121986E+02 -0.79728774967E+02  0.62696124517E+02  0.16174667040E+03  0.12499766935E+03 0.  0.
          2    1    1    2  501    0  0.27868180983E+02  0.79221628595E+02 -0.71892705286E+02  0.11054982145E+03  0.00000000000E+00 0. -1.
          1    1    1    2  502    0 -0.43682302969E+02  0.50714637171E+00  0.14494990660E+03  0.15138981542E+03  0.00000000000E+00 0. -1.
         22    1    3    3    0    0 -0.32952625338E+02 -0.92879947485E+02  0.43220122229E+02  0.10761291338E+03  0.00000000000E+00 0.  1.
         22    1    3    3    0    0  0.48766747324E+02  0.13151172518E+02  0.19476002287E+02  0.54133757012E+02  0.00000000000E+00 0.  1.
</event>
<event>
 7    1  0.5950675E-006  0.9058609E+02  0.7818608E-02  0.1319870E+00
          2   -1    0    0  502    0  0.00000000000E+00  0.00000000000E+00  0.42789082185E+03  0.42789082185E+03  0.00000000000E+00 0. -1.
          1   -1    0    0  501    0 -0.00000000000E+00 -0.00000000000E+00 -0.56922423593E+03  0.56922423593E+03  0.00000000000E+00 0. -1.
         25    2    1    2    0    0  0.30463268091E+02 -0.15419542897E+03  0.16448532155E+03  0.25958601556E+03  0.12500094981E+03 0.  0.
          2    1    1    2  501    0 -0.42867351007E+02  0.78558248682E+02 -0.51085507922E+03  0.51863466928E+03  0.00000000000E+00 0. -1.
          1    1    1    2  502    0  0.12404082916E+02  0.75637180284E+02  0.20503634359E+03  0.21889437294E+03  0.00000000000E+00 0. -1.
         22    1    3    3    0    0 -0.34674942645E+02 -0.35893580461E+01  0.43349897973E+02  0.55627769979E+02  0.00000000000E+00 0.  1.
         22    1    3    3    0    0  0.65138210736E+02 -0.15060607092E+03  0.12113542358E+03  0.20395824558E+03  0.00000000000E+00 0.  1.
</event>
<event>
 7    1  0.5950675E-006  0.7317086E+02  0.7818608E-02  0.1493014E+00
          2   -1    0    0  502    0  0.00000000000E+00  0.00000000000E+00  0.13951483423E+04  0.13951483423E+04  0.00000000000E+00 0. -1.
          1   -1    0    0  501    0 -0.00000000000E+00 -0.00000000000E+00 -0.40027804024E+03  0.40027804024E+03  0.00000000000E+00 0. -1.
         25    2    1    2    0    0  0.72126508105E+02  0.30478223224E+02  0.88358375552E+02  0.17194472673E+03  0.12500652486E+03 0.  0.
          2    1    1    2  501    0 -0.16877634192E+02  0.17442643391E+02 -0.35701539112E+03  0.35783947497E+03  0.00000000000E+00 0. -1.
          1    1    1    2  502    0 -0.55248873913E+02 -0.47920866615E+02  0.12635273177E+04  0.12656421809E+04  0.00000000000E+00 0. -1.
         22    1    3    3    0    0  0.45444310002E+01  0.44872024231E+02  0.92304776610E+02  0.10273423089E+03  0.00000000000E+00 0.  1.
         22    1    3    3    0    0  0.67582077105E+02 -0.14393801007E+02 -0.39464010582E+01  0.69210495841E+02  0.00000000000E+00 0.  1.
</event>
<event>
 7    1  0.5950675E-006  0.7246638E+02  0.7818608E-02  0.1418760E+00
          2   -1    0    0  502    0  0.00000000000E+00  0.00000000000E+00  0.36152163630E+04  0.36152163630E+04  0.00000000000E+00 0. -1.
          1   -1    0    0  501    0 -0.00000000000E+00 -0.00000000000E+00 -0.65910907839E+02  0.65910907839E+02  0.00000000000E+00 0. -1.
         25    2    1    2    0    0  0.83352138579E+01 -0.53034211990E+02  0.29023859474E+03  0.32053909012E+03  0.12499905193E+03 0.  0.
          2    1    1    2  501    0 -0.40150348711E+02 -0.12913495227E+02 -0.41523215580E+02  0.59186031229E+02  0.00000000000E+00 0. -1.
          1    1    1    2  502    0  0.31815134853E+02  0.65947707217E+02  0.33005900760E+04  0.33014021495E+04  0.00000000000E+00 0. -1.
         22    1    3    3    0    0  0.54449413407E+02 -0.12770381204E+02  0.58836253349E+02  0.81175895219E+02  0.00000000000E+00 0.  1.
         22    1    3    3    0    0 -0.46114199549E+02 -0.40263830786E+02  0.23140234139E+03  0.23936319490E+03  0.00000000000E+00 0.  1.
</event>
<event>
 7    1  0.5950675E-006  0.1324679E+03  0.7818608E-02  0.1356998E+00
          2   -1    0    0  502    0  0.00000000000E+00  0.00000000000E+00  0.15533457867E+04  0.15533457867E+04  0.00000000000E+00 0. -1.
          1   -1    0    0  501    0 -0.00000000000E+00 -0.00000000000E+00 -0.10392336902E+04  0.10392336902E+04  0.00000000000E+00 0. -1.
         25    2    1    2    0    0 -0.34351858787E+02 -0.94214591947E+02  0.15261953300E+03  0.22130136418E+03  0.12500052959E+03 0.  0.
          2    1    1    2  501    0  0.31419550861E+01 -0.37836671552E+02 -0.10011633960E+04  0.10018830426E+04  0.00000000000E+00 0. -1.
          1    1    1    2  502    0  0.31209903701E+02  0.13205126350E+03  0.13626559595E+04  0.13693950702E+04  0.00000000000E+00 0. -1.
         22    1    3    3    0    0  0.59557215054E+01 -0.60529015925E+02  0.15721571593E+03  0.16857050075E+03  0.00000000000E+00 0. -1.
         22    1    3    3    0    0 -0.40307580292E+02 -0.33685576021E+02 -0.45961829259E+01  0.52730863433E+02  0.00000000000E+00 0. -1.
</event>
<event>
 7    1  0.5950675E-006  0.3810980E+02  0.7818608E-02  0.1550938E+00
          2   -1    0    0  502    0  0.00000000000E+00  0.00000000000E+00  0.10268862406E+04  0.10268862406E+04  0.00000000000E+00 0. -1.
          1   -1    0    0  501    0 -0.00000000000E+00 -0.00000000000E+00 -0.63520028578E+02  0.63520028578E+02  0.00000000000E+00 0. -1.
         25    2    1    2    0    0  0.58855231087E+01 -0.43097659483E+01  0.40700839999E+03  0.42583317750E+03  0.12499937573E+03 0.  0.
          2    1    1    2  501    0 -0.23859083577E+02  0.30379253092E+02 -0.46744583034E+02  0.60640010971E+02  0.00000000000E+00 0. -1.
          1    1    1    2  502    0  0.17973560468E+02 -0.26069487144E+02  0.60310239502E+03  0.60393308066E+03  0.00000000000E+00 0. -1.
         22    1    3    3    0    0 -0.15810082160E+02 -0.17531426399E+02  0.64538934525E+01  0.24473707324E+02  0.00000000000E+00 0.  1.
         22    1    3    3    0    0  0.21695605269E+02  0.13221660451E+02  0.40055450654E+03  0.40135947018E+03  0.00000000000E+00 0.  1.
</event>
<event>
 7    1  0.5950675E-006  0.3613088E+02  0.7818608E-02  0.1606500E+00
          2   -1    0    0  502    0  0.00000000000E+00  0.00000000000E+00  0.23250060193E+01  0.23250060193E+01  0.00000000000E+00 0. -1.
          1   -1    0    0  501    0 -0.00000000000E+00 -0.00000000000E+00 -0.44372448406E+04  0.44372448406E+04  0.00000000000E+00 0. -1.
         25    2    1    2    0    0  0.22052328437E+02  0.28168317329E+01 -0.22723447385E+04  0.22758887604E+04  0.12499919778E+03 0.  0.
          2    1    1    2  501    0 -0.28297961914E+02 -0.25662215628E+02 -0.17568824275E+04  0.17572976947E+04  0.00000000000E+00 0. -1.
          1    1    1    2  502    0  0.62456334769E+01  0.22845383895E+02 -0.40569266864E+03  0.40638339151E+03  0.00000000000E+00 0. -1.
         22    1    3    3    0    0 -0.24726986735E+02  0.52598838775E+02 -0.11486423673E+04  0.11501118857E+04  0.00000000000E+00 0. -1.
         22    1    3    3    0    0  0.46779315172E+02 -0.49782007042E+02 -0.11237023712E+04  0.11257768747E+04  0.00000000000E+00 0. -1.
</event>
<event>
 7    1  0.5950675E-006  0.4013705E+03  0.7818608E-02  0.1043609E+00
          2   -1    0    0  502    0  0.00000000000E+00  0.00000000000E+00  0.13540573338E+04  0.13540573338E+04  0.00000000000E+00 0. -1.
          1   -1    0    0  501    0 -0.00000000000E+00 -0.00000000000E+00 -0.82388233125E+03  0.82388233125E+03  0.00000000000E+00 0. -1.
         25    2    1    2    0    0 -0.22301311954E+03  0.86894592697E+02  0.53175441059E+03  0.59638326423E+03  0.12499889173E+03 0.  0.
          2    1    1    2  501    0  0.31257953496E+03  0.30255551275E+03 -0.67232536296E+03  0.80079160688E+03  0.00000000000E+00 0. -1.
          1    1    1    2  502    0 -0.89566415420E+02 -0.38945010545E+03  0.67074595489E+03  0.78076479390E+03  0.00000000000E+00 0. -1.
         22    1    3    3    0    0 -0.94871905440E+02  0.26084624610E+02  0.36219319854E+03  0.37531986245E+03  0.00000000000E+00 0.  1.
         22    1    3    3    0    0 -0.12814121410E+03  0.60809968087E+02  0.16956121205E+03  0.22106340177E+03  0.00000000000E+00 0.  1.
</event>
<event>
 7    1  0.5950675E-006  0.7309089E+02  0.7818608E-02  0.1401329E+00
          2   -1    0    0  502    0  0.00000000000E+00  0.00000000000E+00  0.18470771372E+03  0.18470771372E+03  0.00000000000E+00 0. -1.
          1   -1    0    0  501    0 -0.00000000000E+00 -0.00000000000E+00 -0.58424292721E+03  0.58424292721E+03  0.00000000000E+00 0. -1.
         25    2    1    2    0    0 -0.11996299173E+03 -0.22868300455E+01  0.90789702655E+02  0.19561360622E+03  0.12500225539E+03 0.  0.
          2    1    1    2  501    0  0.72240665576E+02 -0.19226778904E+01 -0.51458666507E+03  0.51963626348E+03  0.00000000000E+00 0. -1.
          1    1    1    2  502    0  0.47722326151E+02  0.42095079359E+01  0.24261748925E+02  0.53700771235E+02  0.00000000000E+00 0. -1.
         22    1    3    3    0    0 -0.53563654397E+02 -0.84184257154E+01 -0.26761996408E+02  0.60466018685E+02  0.00000000000E+00 0.  1.
         22    1    3    3    0    0 -0.66399337329E+02  0.61315956699E+01  0.11755169906E+03  0.13514758753E+03  0.00000000000E+00 0.  1.
</event>
<event>
 7    1  0.5950675E-006  0.3305024E+02  0.7818608E-02  0.1646149E+00
          2   -1    0    0  502    0  0.00000000000E+00  0.00000000000E+00  0.29994654563E+03  0.29994654563E+03  0.00000000000E+00 0. -1.
          1   -1    0    0  501    0 -0.00000000000E+00 -0.00000000000E+00 -0.56924108065E+02  0.56924108065E+02  0.00000000000E+00 0. -1.
         25    2    1    2    0    0 -0.11549133582E+02 -0.88040263761E+01  0.13343341918E+03  0.18341391348E+03  0.12500117174E+03 0.  0.
          2    1    1    2  501    0 -0.11860795142E+02 -0.16790732371E+02 -0.26203000244E+02  0.33304720037E+02  0.00000000000E+00 0. -1.
          1    1    1    2  502    0  0.23409928723E+02  0.25594758747E+02  0.13579201863E+03  0.14015202018E+03  0.00000000000E+00 0. -1.
         22    1    3    3    0    0  0.54716558210E+02  0.11513146694E+02  0.50632331787E+02  0.75432667402E+02  0.00000000000E+00 0.  1.
         22    1    3    3    0    0 -0.66265691791E+02 -0.20317173070E+02  0.82801087395E+02  0.10798124607E+03  0.00000000000E+00 0.  1.
</event>
<event>
 7    1  0.5950675E-006  0.1378082E+03  0.7818608E-02  0.1260588E+00
          2   -1    0    0  502    0  0.00000000000E+00  0.00000000000E+00  0.14645374866E+04  0.14645374866E+04  0.00000000000E+00 0. -1.
          1   -1    0    0  501    0 -0.00000000000E+00 -0.00000000000E+00 -0.56017770588E+02  0.56017770588E+02  0.00000000000E+00 0. -1.
         25    2    1    2    0    0 -0.59179354288E+02  0.61882125334E+02  0.48518541838E+03  0.50829101122E+03  0.12499307366E+03 0.  0.
          2    1    1    2  501    0  0.14634464444E+03 -0.51447016150E+02  0.10066506463E+03  0.18492432416E+03  0.00000000000E+00 0. -1.
          1    1    1    2  502    0 -0.87165290152E+02 -0.10435109184E+02  0.82266923294E+03  0.82733992176E+03  0.00000000000E+00 0. -1.
         22    1    3    3    0    0 -0.76518565814E+02 -0.56995064941E+01  0.18863725163E+03  0.20364574140E+03  0.00000000000E+00 0. -1.
         22    1    3    3    0    0  0.17339211526E+02  0.67581631828E+02  0.29654816676E+03  0.30464526982E+03  0.00000000000E+00 0. -1.
</event>
<event>
 7    1  0.5950675E-006  0.6210439E+02  0.7818608E-02  0.1419056E+00
          2   -1    0    0  502    0  0.00000000000E+00  0.00000000000E+00  0.56820985539E+02  0.56820985539E+02  0.00000000000E+00 0. -1.
          1   -1    0    0  501    0 -0.00000000000E+00 -0.00000000000E+00 -0.20074817311E+04  0.20074817311E+04  0.00000000000E+00 0. -1.
         25    2    1    2    0    0  0.99949299559E+02 -0.24368917702E+02 -0.17152316269E+03  0.23586038081E+03  0.12500486896E+03 0.  0.
          2    1    1    2  501    0 -0.44124578100E+02  0.21538424618E+02 -0.17713217085E+04  0.17720021098E+04  0.00000000000E+00 0. -1.
          1    1    1    2  502    0 -0.55824721459E+02  0.28304930836E+01 -0.78158743196E+01  0.56440225978E+02  0.00000000000E+00 0. -1.
         22    1    3    3    0    0  0.11301397975E+03 -0.51298571623E+02 -0.10372284880E+03  0.16174712496E+03  0.00000000000E+00 0.  1.
         22    1    3    3    0    0 -0.13064680195E+02  0.26929653921E+02 -0.67800313887E+02  0.74113255846E+02  0.00000000000E+00 0.  1.
</event>
<event>
 7    1  0.5950675E-006  0.3268736E+02  0.7818608E-02  0.1610977E+00
          2   -1    0    0  502    0  0.00000000000E+00  0.00000000000E+00  0.24245455303E+03  0.24245455303E+03  0.00000000000E+00 0. -1.
          1   -1    0    0  501    0 -0.00000000000E+00 -0.00000000000E+00 -0.18911139242E+03  0.18911139242E+03  0.00000000000E+00 0. -1.
         25    2    1    2    0    0 -0.38193299152E+02  0.42589885349E+02  0.17992005140E+00  0.13747017224E+03  0.12500155779E+03 0.  0.
          2    1    1    2  501    0  0.14217996997E+02 -0.21157210620E+02 -0.11759993053E+03  0.12033088822E+03  0.00000000000E+00 0. -1.
          1    1    1    2  502    0  0.23975302155E+02 -0.21432674729E+02  0.17076317108E+03  0.17376488500E+03  0.00000000000E+00 0. -1.
         22    1    3    3    0    0 -0.56108462316E+01 -0.44286782650E+02  0.16805055347E+01  0.44672416677E+02  0.00000000000E+00 0. -1.
         22    1    3    3    0    0 -0.32582452920E+02  0.86876667999E+02 -0.15005854833E+01  0.92797755564E+02  0.00000000000E+00 0. -1.
</event>
<event>
 7    1  0.5950675E-006  0.8704179E+02  0.7818608E-02  0.1331491E+00
          2   -1    0    0  502    0  0.00000000000E+00  0.00000000000E+00  0.88429802058E+03  0.88429802058E+03  0.00000000000E+00 0. -1.
          1   -1    0    0  501    0 -0.00000000000E+00 -0.00000000000E+00 -0.32858237758E+04  0.32858237758E+04  0.00000000000E+00 0. -1.
         25    2    1    2    0    0  0.95407882095E+02  0.51578429918E+02  0.33606938452E+03  0.37460709235E+03  0.12499937611E+03 0.  0.
          2    1    1    2  501    0 -0.30047641513E+02 -0.81700797862E+02 -0.32635239590E+04  0.32646847492E+04  0.00000000000E+00 0. -1.
          1    1    1    2  502    0 -0.65360240582E+02  0.30122367944E+02  0.52592881919E+03  0.53082995484E+03  0.00000000000E+00 0. -1.
         22    1    3    3    0    0  0.41399777798E+02 -0.23206223472E+02  0.22630012985E+03  0.23122331020E+03  0.00000000000E+00 0.  1.
         22    1    3    3    0    0  0.54008104297E+02  0.74784653390E+02  0.10976925467E+03  0.14338378215E+03  0.00000000000E+00 0.  1.
</event>
<event>
 7    1  0.5950675E-006  0.1253493E+03  0.7818608E-02  0.1285580E+00
          2   -1    0    0  502    0  0.00000000000E+00  0.00000000000E+00  0.31962423602E+03  0.31962423602E+03  0.00000000000E+00 0. -1.
          1   -1    0    0  501    0 -0.00000000000E+00 -0.00000000000E+00 -0.41457492342E+03  0.41457492342E+03  0.00000000000E+00 0. -1.
         25    2    1    2    0    0  0.97516068631E+02 -0.73782659249E+02 -0.16709486147E+03  0.24186514887E+03  0.12499917225E+03 0.  0.
          2    1    1    2  501    0 -0.13513801475E+03  0.78826243209E+01 -0.18215934531E+03  0.22695031588E+03  0.00000000000E+00 0. -1.
          1    1    1    2  502    0  0.37621946116E+02  0.65900034928E+02  0.25430351939E+03  0.26538369469E+03  0.00000000000E+00 0. -1.
         22    1    3    3    0    0  0.11302037551E+03 -0.20222229429E+02 -0.13613296949E+03  0.17808629714E+03  0.00000000000E+00 0. -1.
         22    1    3    3    0    0 -0.15504306882E+02 -0.53560429820E+02 -0.30961891976E+02  0.63778851739E+02  0.00000000000E+00 0. -1.
</event>
<event>
 7    1  0.5950675E-006  0.4411488E+02  0.7818608E-02  0.1536654E+00
          2   -1    0    0  502    0  0.00000000000E+00  0.00000000000E+00  0.96853532004E+03  0.96853532004E+03  0.00000000000E+00 0. -1.
          1   -1    0    0  501    0 -0.00000000000E+00 -0.00000000000E+00 -0.21124584181E+02  0.21124584181E+02  0.00000000000E+00 0. -1.
         25    2    1    2    0    0 -0.51080380215E+02 -0.32129279971E+02  0.43758717759E+03  0.45907403704E+03  0.12499975046E+03 0.  0.
          2    1    1    2  501    0  0.42938267281E+02  0.32493424675E+01  0.36891959882E+02  0.56703348468E+02  0.00000000000E+00 0. -1.
          1    1    1    2  502    0  0.81421129347E+01  0.28879937503E+02  0.47293159839E+03  0.47388251872E+03  0.00000000000E+00 0. -1.
         22    1    3    3    0    0 -0.91291414318E+02 -0.10189679583E+02  0.26311325318E+03  0.27868716493E+03  0.00000000000E+00 0.  1.
         22    1    3    3    0    0  0.40211034102E+02 -0.21939600387E+02  0.17447392442E+03  0.18038687211E+03  0.00000000000E+00 0.  1.
</event>
<event>
 7    1  0.5950675E-006  0.5116899E+02  0.7818608E-02  0.1446247E+00
          2   -1    0    0  502    0  0.00000000000E+00  0.00000000000E+00  0.96704484469E+02  0.96704484469E+02  0.00000000000E+00 0. -1.
          1   -1    0    0  501    0 -0.00000000000E+00 -0.00000000000E+00 -0.12921196792E+04  0.12921196792E+04  0.00000000000E+00 0. -1.
         25    2    1    2    0    0 -0.75334111619E+02 -0.35529020082E+02 -0.53674276219E+03  0.55736474545E+03  0.12500050826E+03 0.  0.
          2    1    1    2  501    0  0.49171125201E+02 -0.53456543378E+01 -0.73735597531E+03  0.73901299711E+03  0.00000000000E+00 0. -1.
          1    1    1    2  502    0  0.26162986418E+02  0.40874674420E+02  0.78683542786E+02  0.92446421091E+02  0.00000000000E+00 0. -1.
         22    1    3    3    0    0 -0.67911919222E+02  0.35547423739E+02 -0.32384742175E+03  0.33279543368E+03  0.00000000000E+00 0.  1.
         22    1    3    3    0    0 -0.74221923970E+01 -0.71076443821E+02 -0.21289534044E+03  0.22456931177E+03  0.00000000000E+00 0.  1.
</event>
<event>
 7    1  0.5950675E-006  0.2292958E+03  0.7818608E-02  0.1242164E+00
          2   -1    0    0  502    0  0.00000000000E+00  0.00000000000E+00  0.29432386812E+04  0.29432386812E+04  0.00000000000E+00 0. -1.
          1   -1    0    0  501    0 -0.00000000000E+00 -0.00000000000E+00 -0.70171378644E+03  0.70171378644E+03  0.00000000000E+00 0. -1.
         25    2    1    2    0    0  0.81517406973E+02  0.16747274355E+03  0.11673158797E+03  0.25287451808E+03  0.12500820290E+03 0.  0.
          2    1    1    2  501    0 -0.59747843401E+02 -0.22701385437E+03 -0.61152116559E+03  0.65502918319E+03  0.00000000000E+00 0. -1.
          1    1    1    2  502    0 -0.21769563571E+02  0.59541110821E+02  0.27363144724E+04  0.27370487664E+04  0.00000000000E+00 0. -1.
         22    1    3    3    0    0  0.83693506067E+02  0.11400791429E+03  0.20693530138E+02  0.14293575364E+03  0.00000000000E+00 0. -1.
         22    1    3    3    0    0 -0.21760990944E+01  0.53464829256E+02  0.96038057827E+02  0.10993876444E+03  0.00000000000E+00 0. -1.
</event>
<event>
 7    1  0.5950675E-006  0.8193541E+02  0.7818608E-02  0.1378332E+00
          2   -1    0    0  502    0  0.00000000000E+00  0.00000000000E+00  0.74488874479E+02  0.74488874479E+02  0.00000000000E+00 0. -1.
          1   -1    0    0  501    0 -0.00000000000E+00 -0.00000000000E+00 -0.86164234694E+03  0.86164234694E+03  0.00000000000E+00 0. -1.
         25    2    1    2    0    0  0.42037865720E+02  0.28165725258E+02 -0.49430929690E+03  0.51237392432E+03  0.12499946835E+03 0.  0.
          2    1    1    2  501    0 -0.11265473663E+02  0.50163878454E+02 -0.32839776507E+03  0.33239798089E+03  0.00000000000E+00 0. -1.
          1    1    1    2  502    0 -0.30772392057E+02 -0.78329603711E+02  0.35553589510E+02  0.91359316206E+02  0.00000000000E+00 0. -1.
         22    1    3    3    0    0  0.36156059207E+02 -0.23435602363E+02 -0.41711776548E+03  0.41933723702E+03  0.00000000000E+00 0. -1.
         22    1    3    3    0    0  0.58818065131E+01  0.51601327621E+02 -0.77191531425E+02  0.93036687300E+02  0.00000000000E+00 0. -1.
</event>
<event>
 7    1  0.5950675E-006  0.1172649E+03  0.7818608E-02  0.1382851E+00
          2   -1    0    0  502    0  0.00000000000E+00  0.00000000000E+00  0.21489968634E+03  0.21489968634E+03  0.00000000000E+00 0. -1.
          1   -1    0    0  501    0 -0.00000000000E+00 -0.00000000000E+00 -0.15711090988E+03  0.15711090988E+03  0.00000000000E+00 0. -1.
         25    2    1    2    0    0 -0.56883022049E+02 -0.96950816193E+02  0.94169740512E+02  0.19268616930E+03  0.12499952341E+03 0.  0.
          2    1    1    2  501    0  0.24519292327E+02 -0.24447619623E+02 -0.40920864773E+02  0.53604094762E+02  0.00000000000E+00 0. -1.
          1    1    1    2  502    0  0.32363729722E+02  0.12139843582E+03  0.45399007151E+01  0.12572033216E+03  0.00000000000E+00 0. -1.
         22    1    3    3    0    0  0.29567477275E+01 -0.38341649306E+02  0.10156336493E+03  0.10859991494E+03  0.00000000000E+00 0. -1.
         22    1    3    3    0    0 -0.59839769776E+02 -0.58609166887E+02 -0.73936244194E+01  0.84086254359E+02  0.00000000000E+00 0. -1.
</event>
<event>
 7    1  0.5950675E-006  0.1730418E+03  0.7818608E-02  0.1265912E+00
          2   -1    0    0  502    0  0.00000000000E+00  0.00000000000E+00  0.68793878148E+03  0.68793878148E+03  0.00000000000E+00 0. -1.
          1   -1    0    0  501    0 -0.00000000000E+00 -0.00000000000E+00 -0.76707645012E+03  0.76707645012E+03  0.00000000000E+00 0. -1.
         25    2    1    2    0    0 -0.37019815826E+02 -0.14398569429E+03  0.12011937242E+03  0.22837848330E+03  0.12500288429E+03 0.  0.
          2    1    1    2  501    0  0.54624412225E+02 -0.37693477052E+02 -0.69510160940E+03  0.69826275285E+03  0.00000000000E+00 0. -1.
          1    1    1    2  502    0 -0.17604596399E+02  0.18167917134E+03  0.49584456834E+03  0.52837399545E+03  0.00000000000E+00 0. -1.
         22    1    3    3    0    0  0.19826444612E+02  0.14074746045E+02  0.52206313848E+01  0.24868481543E+02  0.00000000000E+00 0. -1.
         22    1    3    3    0    0 -0.56846260438E+02 -0.15806044034E+03  0.11489874103E+03  0.20351000176E+03  0.00000000000E+00 0. -1.
</event>
<event>
 7    1  0.5950675E-006  0.5106056E+02  0.7818608E-02  0.1522629E+00
          2   -1    0    0  502    0  0.00000000000E+00  0.00000000000E+00  0.86786912254E+03  0.86786912254E+03  0.00000000000E+00 0. -1.
          1   -1    0    0  501    0 -0.00000000000E+00 -0.00000000000E+00 -0.81886457555E+03  0.81886457555E+03  0.00000000000E+00 0. -1.
         25    2    1    2    0    0  0.42407407243E+02 -0.95251311424E+01  0.88356479534E+02  0.15912524441E+03  0.12499943848E+03 0.  0.
          2    1    1    2  501    0 -0.68236744377E+01 -0.27607576990E+02 -0.78233289381E+03  0.78284960087E+03  0.00000000000E+00 0. -1.
          1    1    1    2  502    0 -0.35583732805E+02  0.37132708132E+02  0.74298096126E+03  0.74475885282E+03  0.00000000000E+00 0. -1.
         22    1    3    3    0    0 -0.34544323659E+02  0.27031225373E+02  0.47455660435E+02  0.64622265123E+02  0.00000000000E+00 0.  1.
         22    1    3    3    0    0  0.76951730902E+02 -0.36556356516E+02  0.40900819099E+02  0.94502979284E+02  0.00000000000E+00 0.  1.
</event>
<event>
 7    1  0.5950675E-006  0.8723291E+02  0.7818608E-02  0.1349273E+00
          2   -1    0    0  502    0  0.00000000000E+00  0.00000000000E+00  0.11520171828E+04  0.11520171828E+04  0.00000000000E+00 0. -1.
          1   -1    0    0  501    0 -0.00000000000E+00 -0.00000000000E+00 -0.56967467998E+02  0.56967467998E+02  0.00000000000E+00 0. -1.
         25    2    1    2    0    0  0.13936380232E+02  0.13087222565E+03  0.16512025007E+03  0.24537484613E+03  0.12498942350E+03 0.  0.
          2    1    1    2  501    0 -0.11583148788E+02 -0.69354004680E+02  0.62734924688E+02  0.94232786633E+02  0.00000000000E+00 0. -1.
          1    1    1    2  502    0 -0.23532314444E+01 -0.61518220975E+02  0.86719454005E+03  0.86937701805E+03  0.00000000000E+00 0. -1.
         22    1    3    3    0    0  0.42861105381E+02  0.10578609208E+03  0.51022410014E+02  0.12502422948E+03  0.00000000000E+00 0. -1.
         22    1    3    3    0    0 -0.28924725149E+02  0.25086133571E+02  0.11409784005E+03  0.12035061665E+03  0.00000000000E+00 0. -1.
</event>
<event>
 7    1  0.5950675E-006  0.6246455E+02  0.7818608E-02  0.1468779E+00
          2   -1    0    0  502    0  0.00000000000E+00  0.00000000000E+00  0.32040555316E+03  0.32040555316E+03  0.00000000000E+00 0. -1.
          1   -1    0    0  501    0 -0.00000000000E+00 -0.00000000000E+00 -0.16632808100E+03  0.16632808100E+03  0.00000000000E+00 0. -1.
         25    2    1    2    0    0 -0.28505436334E+02 -0.11681401227E+02 -0.76181459398E+01  0.12896651520E+03  0.12500124343E+03 0.  0.
          2    1    1    2  501    0 -0.32834929185E+02 -0.77330335585E+01 -0.90978037294E+02  0.97030591323E+02  0.00000000000E+00 0. -1.
          1    1    1    2  502    0  0.61340365519E+02  0.19414434785E+02  0.25267365539E+03  0.26073652765E+03  0.00000000000E+00 0. -1.
         22    1    3    3    0    0 -0.17201692787E+02  0.70210862025E+01  0.57422159233E+02  0.60353113070E+02  0.00000000000E+00 0.  1.
         22    1    3    3    0    0 -0.11303743547E+02 -0.18702487429E+02 -0.65040305173E+02  0.68613402125E+02  0.00000000000E+00 0.  1.
</event>
<event>
 7    1  0.5950675E-006  0.1208976E+03  0.7818608E-02  0.1250332E+00
          2   -1    0    0  502    0  0.00000000000E+00  0.00000000000E+00  0.18758545940E+04  0.18758545940E+04  0.00000000000E+00 0. -1.
          1   -1    0    0  501    0 -0.00000000000E+00 -0.00000000000E+00 -0.14378793892E+04  0.14378793892E+04  0.00000000000E+00 0. -1.
         25    2    1    2    0    0  0.21182649271E+03  0.70514803774E+02  0.32543738466E+03  0.41397787848E+03  0.12500156788E+03 0.  0.
          2    1    1    2  501    0 -0.97281109074E+02 -0.52957989084E+02 -0.13891725413E+04  0.13935811825E+04  0.00000000000E+00 0. -1.
          1    1    1    2  502    0 -0.11454538363E+03 -0.17556814690E+02  0.15017103614E+04  0.15061749222E+04  0.00000000000E+00 0. -1.
         22    1    3    3    0    0  0.20450273836E+03  0.82200044370E+02  0.33216208285E+03  0.39863500420E+03  0.00000000000E+00 0. -1.
         22    1    3    3    0    0  0.73237543474E+01 -0.11685240596E+02 -0.67246981863E+01  0.15342874282E+02  0.00000000000E+00 0. -1.
</event>
<event>
 7    1  0.5950675E-006  0.6405048E+02  0.7818608E-02  0.1447385E+00
          2   -1    0    0  502    0  0.00000000000E+00  0.00000000000E+00  0.92284990190E+03  0.92284990190E+03  0.00000000000E+00 0. -1.
          1   -1    0    0  501    0 -0.00000000000E+00 -0.00000000000E+00 -0.18855814597E+03  0.18855814597E+03  0.00000000000E+00 0. -1.
         25    2    1    2    0    0 -0.41933202511E+02  0.60081014945E+02  0.89024986677E+01  0.14514267048E+03  0.12497607163E+03 0.  0.
          2    1    1    2  501    0 -0.16841754240E+02 -0.34560391081E+02 -0.11612060407E+03  0.12231949970E+03  0.00000000000E+00 0. -1.
          1    1    1    2  502    0  0.58774956751E+02 -0.25520623865E+02  0.84150986132E+03  0.84394587770E+03  0.00000000000E+00 0. -1.
         22    1    3    3    0    0  0.43466478703E+02  0.13722475228E+02  0.14440501934E+02  0.47813901674E+02  0.00000000000E+00 0. -1.
         22    1    3    3    0    0 -0.85399681214E+02  0.46358539717E+02 -0.55380032662E+01  0.97328768801E+02  0.00000000000E+00 0. -1.
</event>
<event>
 7    1  0.5950675E-006  0.9969969E+02  0.7818608E-02  0.1359975E+00
          2   -1    0    0  502    0  0.00000000000E+00  0.00000000000E+00  0.25474304474E+03  0.25474304474E+03  0.00000000000E+00 0. -1.
          1   -1    0    0  501    0 -0.00000000000E+00 -0.00000000000E+00 -0.11222769579E+04  0.11222769579E+04  0.00000000000E+00 0. -1.
         25    2    1    2    0    0  0.11142824915E+03  0.26716582490E+02 -0.48210215312E+03  0.51105594827E+03  0.12500266292E+03 0.  0.
          2    1    1    2  501    0 -0.13938962785E+02 -0.47180305193E+02 -0.61434722351E+03  0.61631387046E+03  0.00000000000E+00 0. -1.
          1    1    1    2  502    0 -0.97489286360E+02  0.20463722703E+02  0.22891546348E+03  0.24965018390E+03  0.00000000000E+00 0. -1.
         22    1    3    3    0    0  0.50511657028E+02 -0.15295671299E+02 -0.50125650508E+02  0.72787127262E+02  0.00000000000E+00 0. -1.
         22    1    3    3    0    0  0.60916592117E+02  0.42012253789E+02 -0.43197650261E+03  0.43826882101E+03  0.00000000000E+00 0. -1.
</event>
<event>
 7    1  0.5950675E-006  0.1329928E+03  0.7818608E-02  0.1229461E+00
          2   -1    0    0  502    0  0.00000000000E+00  0.00000000000E+00  0.10828880412E+04  0.10828880412E+04  0.00000000000E+00 0. -1.
          1   -1    0    0  501    0 -0.00000000000E+00 -0.00000000000E+00 -0.37145604362E+03  0.37145604362E+03  0.00000000000E+00 0. -1.
         25    2    1    2    0    0  0.14824578515E+03  0.11648048741E+03  0.35194787546E+03  0.41837419798E+03  0.12500058293E+03 0.  0.
          2    1    1    2  501    0 -0.18773500760E+02 -0.12304007941E+03 -0.32045783262E+03  0.34377976665E+03  0.00000000000E+00 0. -1.
          1    1    1    2  502    0 -0.12947228439E+03  0.65595920028E+01  0.67994195476E+03  0.69219012021E+03  0.00000000000E+00 0. -1.
         22    1    3    3    0    0  0.38841619454E+02 -0.23825077785E+02  0.10049194571E+03  0.11034009645E+03  0.00000000000E+00 0.  1.
         22    1    3    3    0    0  0.10940416569E+03  0.14030556519E+03  0.25145592975E+03  0.30803410152E+03  0.00000000000E+00 0.  1.
</event>
<event>
 7    1  0.5950675E-006  0.6531168E+02  0.7818608E-02  0.1533776E+00
          2   -1    0    0  502    0  0.00000000000E+00  0.00000000000E+00  0.36873015949E+02  0.36873015949E+02  0.00000000000E+00 0. -1.
          1   -1    0    0  501    0 -0.00000000000E+00 -0.00000000000E+00 -0.45720233301E+03  0.45720233301E+03  0.00000000000E+00 0. -1.
         25    2    1    2    0    0  0.20014302632E+01  0.51355024896E+02 -0.12347758825E+03  0.18306543005E+03  0.12499957030E+03 0.  0.
          2    1    1    2  501    0  0.12186398648E+02 -0.66363722471E+02 -0.26152523606E+03  0.27008906136E+03  0.00000000000E+00 0. -1.
          1    1    1    2  502    0 -0.14187828911E+02  0.15008697575E+02 -0.35326492754E+02  0.40920857547E+02  0.00000000000E+00 0. -1.
         22    1    3    3    0    0  0.57173712360E+02  0.91437446036E+00 -0.73585917373E+02  0.93190968990E+02  0.00000000000E+00 0.  1.
         22    1    3    3    0    0 -0.55172282096E+02  0.50440650436E+02 -0.49891670878E+02  0.89874461061E+02  0.00000000000E+00 0.  1.
</event>
<event>
 7    1  0.5950675E-006  0.1515789E+03  0.7818608E-02  0.1266917E+00
          2   -1    0    0  502    0  0.00000000000E+00  0.00000000000E+00  0.42031183197E+03  0.42031183197E+03  0.00000000000E+00 0. -1.
          1   -1    0    0  501    0 -0.00000000000E+00 -0.00000000000E+00 -0.67215908528E+03  0.67215908528E+03  0.00000000000E+00 0. -1.
         25    2    1    2    0    0 -0.96780387575E+01  0.11167143745E+03 -0.46401482340E+03  0.49345578756E+03  0.12499873427E+03 0.  0.
          2    1    1    2  501    0 -0.73010893620E+02  0.17277214259E+02 -0.17079755032E+03  0.18654998235E+03  0.00000000000E+00 0. -1.
          1    1    1    2  502    0  0.82688932377E+02 -0.12894865171E+03  0.38296512041E+03  0.41246514733E+03  0.00000000000E+00 0. -1.
         22    1    3    3    0    0  0.55957884693E+02  0.64146621468E+02 -0.20221662960E+03  0.21940291519E+03  0.00000000000E+00 0.  1.
         22    1    3    3    0    0 -0.65635923451E+02  0.47524815982E+02 -0.26179819380E+03  0.27405287237E+03  0.00000000000E+00 0.  1.
</event>
<event>
 7    1  0.6120861E-006  0.6343845E+02  0.7818608E-02  0.1449586E+00
          2   -1    0    0  502    0  0.00000000000E+00  0.00000000000E+00  0.25594370550E+04  0.25594370550E+04  0.00000000000E+00 0. -1.
          1   -1    0    0  501    0 -0.00000000000E+00 -0.00000000000E+00 -0.54071602243E+03  0.54071602243E+03  0.00000000000E+00 0. -1.
         25    2    1    2    0    0  0.93117425256E+02 -0.28207263364E+02 -0.79182457724E+02  0.17709194438E+03  0.12500076223E+03 0.  0.
          2    1    1    2  501    0 -0.54928105220E+02  0.28551388198E+02 -0.41011047375E+03  0.41475640946E+03  0.00000000000E+00 0. -1.
          1    1    1    2  502    0 -0.38189320036E+02 -0.34412483353E+00  0.25080139640E+04  0.25083047235E+04  0.00000000000E+00 0. -1.
         22    1    3    3    0    0 -0.10380190099E+02  0.29645492513E+02 -0.42755518759E+02  0.53053161613E+02  0.00000000000E+00 0.  1.
         22    1    3    3    0    0  0.10349761535E+03 -0.57852755877E+02 -0.36426938965E+02  0.12403878276E+03  0.00000000000E+00 0.  1.
</event>
<event>
 7    1  0.5950675E-006  0.7396953E+02  0.7818608E-02  0.1377655E+00
          2   -1    0    0  502    0  0.00000000000E+00  0.00000000000E+00  0.12022884872E+04  0.12022884872E+04  0.00000000000E+00 0. -1.
          1   -1    0    0  501    0 -0.00000000000E+00 -0.00000000000E+00 -0.18682840930E+03  0.18682840930E+03  0.00000000000E+00 0. -1.
         25    2    1    2    0    0 -0.78161206809E+02 -0.68206979473E+02  0.75619842410E+02  0.17917840958E+03  0.12500070238E+03 0.  0.
          2    1    1    2  501    0  0.53943814857E+01  0.57011802480E+02 -0.12765284919E+03  0.13990959538E+03  0.00000000000E+00 0. -1.
          1    1    1    2  502    0  0.72766825324E+02  0.11195176993E+02  0.10674930847E+04  0.10700288916E+04  0.00000000000E+00 0. -1.
         22    1    3    3    0    0 -0.10565100449E+03 -0.45829341620E+02  0.84257519295E+02  0.14269475414E+03  0.00000000000E+00 0.  1.
         22    1    3    3    0    0  0.27489797676E+02 -0.22377637853E+02 -0.86376768856E+01  0.36483655438E+02  0.00000000000E+00 0.  1.
</event>
<event>
 7    1  0.5950675E-006  0.8475801E+02  0.7818608E-02  0.1479171E+00
          2   -1    0    0  502    0  0.00000000000E+00  0.00000000000E+00  0.33784761225E+03  0.33784761225E+03  0.00000000000E+00 0. -1.
          1   -1    0    0  501    0 -0.00000000000E+00 -0.00000000000E+00 -0.79556696584E+03  0.79556696584E+03  0.00000000000E+00 0. -1.
         25    2    1    2    0    0  0.84431664157E+02  0.12766407728E+02 -0.94887526175E+01  0.15167881923E+03  0.12499896279E+03 0.  0.
          2    1    1    2  501    0 -0.77397653591E+02 -0.34755451890E+02 -0.71196015895E+03  0.71699763330E+03  0.00000000000E+00 0. -1.
          1    1    1    2  502    0 -0.70340105663E+01  0.21989044162E+02  0.26372955799E+03  0.26473812556E+03  0.00000000000E+00 0. -1.
         22    1    3    3    0    0  0.80595831855E+02  0.59035204550E+02  0.11808429345E+02  0.10059961477E+03  0.00000000000E+00 0. -1.
         22    1    3    3    0    0  0.38358323022E+01 -0.46268796822E+02 -0.21297181962E+02  0.51079204460E+02  0.00000000000E+00 0. -1.
</event>
<event>
 7    1  0.5950675E-006  0.1014334E+03  0.7818608E-02  0.1376598E+00
          2   -1    0    0  502    0  0.00000000000E+00  0.00000000000E+00  0.14751804900E+04  0.14751804900E+04  0.00000000000E+00 0. -1.
          1   -1    0    0  501    0 -0.00000000000E+00 -0.00000000000E+00 -0.45328247132E+03  0.45328247132E+03  0.00000000000E+00 0. -1.
         25    2    1    2    0    0  0.48742346645E+01  0.94931403184E+02  0.34612449809E+02  0.16080776941E+03  0.12500155018E+03 0.  0.
          2    1    1    2  501    0  0.41890428806E+02 -0.44288856944E+01 -0.38715735738E+03  0.38944221963E+03  0.00000000000E+00 0. -1.
          1    1    1    2  502    0 -0.46764663471E+02 -0.90502517490E+02  0.13744429263E+04  0.13782129723E+04  0.00000000000E+00 0. -1.
         22    1    3    3    0    0 -0.40599393257E+02  0.44322239483E+02  0.63010829685E+02  0.87081205224E+02  0.00000000000E+00 0.  1.
         22    1    3    3    0    0  0.45473627922E+02  0.50609163701E+02 -0.28398379876E+02  0.73726564185E+02  0.00000000000E+00 0.  1.
</event>
<event>
 7    1  0.5950675E-006  0.1979671E+03  0.7818608E-02  0.1228019E+00
          2   -1    0    0  502    0  0.00000000000E+00  0.00000000000E+00  0.32815890465E+04  0.32815890465E+04  0.00000000000E+00 0. -1.
          1   -1    0    0  501    0 -0.00000000000E+00 -0.00000000000E+00 -0.13497861057E+03  0.13497861057E+03  0.00000000000E+00 0. -1.
         25    2    1    2    0    0  0.13204603398E+03 -0.34257211473E+02  0.47690324260E+03  0.51153853624E+03  0.12500103851E+03 0.  0.
          2    1    1    2  501    0  0.80943621122E+02  0.25518329563E+02 -0.97704936394E+02  0.12941912355E+03  0.00000000000E+00 0. -1.
          1    1    1    2  502    0 -0.21298965510E+03  0.87388819098E+01  0.27674121298E+04  0.27756099973E+04  0.00000000000E+00 0. -1.
         22    1    3    3    0    0  0.59656858990E+01  0.79855240646E+01  0.23732381430E+03  0.23753305209E+03  0.00000000000E+00 0.  1.
         22    1    3    3    0    0  0.12608034808E+03 -0.42242735537E+02  0.23957942830E+03  0.27400548415E+03  0.00000000000E+00 0.  1.
</event>
<event>
 7    1  0.5950675E-006  0.2113907E+03  0.7818608E-02  0.1240853E+00
          2   -1    0    0  502    0  0.00000000000E+00  0.00000000000E+00  0.14756596704E+04  0.14756596704E+04  0.00000000000E+00 0. -1.
          1   -1    0    0  501    0 -0.00000000000E+00 -0.00000000000E+00 -0.10624682390E+04  0.10624682390E+04  0.00000000000E+00 0. -1.
         25    2    1    2    0    0  0.22052273662E+03  0.20771441145E+02  0.23173876596E+03  0.34407855295E+03  0.12500185924E+03 0.  0.
          2    1    1    2  501    0 -0.14595483851E+02 -0.68139654858E+02 -0.99567293589E+03  0.99810852916E+03  0.00000000000E+00 0. -1.
          1    1    1    2  502    0 -0.20592725277E+03  0.47368213713E+02  0.11771256013E+04  0.11959408273E+04  0.00000000000E+00 0. -1.
         22    1    3    3    0    0  0.20302191845E+03  0.52679759378E+02  0.16059233044E+03  0.26416463241E+03  0.00000000000E+00 0.  1.
         22    1    3    3    0    0  0.17500818176E+02 -0.31908318232E+02  0.71146435515E+02  0.79913920538E+02  0.00000000000E+00 0.  1.
</event>
<event>
 7    1  0.5950675E-006  0.1326654E+03  0.7818608E-02  0.1304752E+00
          2   -1    0    0  502    0  0.00000000000E+00  0.00000000000E+00  0.41714014928E+03  0.41714014928E+03  0.00000000000E+00 0. -1.
          1   -1    0    0  501    0 -0.00000000000E+00 -0.00000000000E+00 -0.47346481861E+03  0.47346481861E+03  0.00000000000E+00 0. -1.
         25    2    1    2    0    0 -0.70559685354E+02 -0.50570361395E+02 -0.13358749920E+03  0.20250341537E+03  0.12500393051E+03 0.  0.
          2    1    1    2  501    0 -0.59297691946E+02  0.91675415149E+01 -0.29011512469E+03  0.29625503483E+03  0.00000000000E+00 0. -1.
          1    1    1    2  502    0  0.12985737730E+03  0.41402819880E+02  0.36737795455E+03  0.39184651769E+03  0.00000000000E+00 0. -1.
         22    1    3    3    0    0 -0.88358523926E+02  0.68844357705E+01 -0.99966230740E+02  0.13359592619E+03  0.00000000000E+00 0.  1.
         22    1    3    3    0    0  0.17798838572E+02 -0.57454797165E+02 -0.33621268459E+02  0.68907489176E+02  0.00000000000E+00 0.  1.
</event>
<event>
 7    1  0.5950675E-006  0.1046849E+03  0.7818608E-02  0.1457652E+00
          2   -1    0    0  502    0  0.00000000000E+00  0.00000000000E+00  0.69228085154E+02  0.69228085154E+02  0.00000000000E+00 0. -1.
          1   -1    0    0  501    0 -0.00000000000E+00 -0.00000000000E+00 -0.17974082098E+04  0.17974082098E+04  0.00000000000E+00 0. -1.
         25    2    1    2    0    0 -0.37766381298E+02  0.98668250333E+02 -0.33187234364E+03  0.37003536297E+03  0.12500077679E+03 0.  0.
          2    1    1    2  501    0 -0.19079292457E+02 -0.10576518899E+02 -0.13914779997E+04  0.13916489880E+04  0.00000000000E+00 0. -1.
          1    1    1    2  502    0  0.56845673755E+02 -0.88091731433E+02 -0.48297813748E+01  0.10495194405E+03  0.00000000000E+00 0. -1.
         22    1    3    3    0    0 -0.82811807177E+02  0.65402772718E+02 -0.24395364215E+03  0.26579822724E+03  0.00000000000E+00 0.  1.
         22    1    3    3    0    0  0.45045425879E+02  0.33265477615E+02 -0.87918701494E+02  0.10423713573E+03  0.00000000000E+00 0.  1.
</event>
<event>
 7    1  0.5950675E-006  0.4062157E+02  0.7818608E-02  0.1545746E+00
          2   -1    0    0  502    0  0.00000000000E+00  0.00000000000E+00  0.21196896172E+03  0.21196896172E+03  0.00000000000E+00 0. -1.
          1   -1    0    0  501    0 -0.00000000000E+00 -0.00000000000E+00 -0.87379723900E+03  0.87379723900E+03  0.00000000000E+00 0. -1.
         25    2    1    2    0    0 -0.15690710500E+02  0.32497221569E+02 -0.17670773083E+01  0.13011470044E+03  0.12499777960E+03 0.  0.
          2    1    1    2  501    0 -0.23567367466E+02 -0.19699926999E+02 -0.80467358937E+03  0.80525964344E+03  0.00000000000E+00 0. -1.
          1    1    1    2  502    0  0.39258077967E+02 -0.12797294570E+02  0.14461238939E+03  0.15039185683E+03  0.00000000000E+00 0. -1.
         22    1    3    3    0    0  0.44058123050E+01  0.19119668129E+01 -0.60620596143E+02  0.60810553984E+02  0.00000000000E+00 0. -1.
         22    1    3    3    0    0 -0.20096522805E+02  0.30585254756E+02  0.58853518835E+02  0.69304146461E+02  0.00000000000E+00 0. -1.
</event>
<event>
 7    1  0.5950675E-006  0.5835437E+02  0.7818608E-02  0.1467572E+00
          2   -1    0    0  502    0  0.00000000000E+00  0.00000000000E+00  0.13300901160E+04  0.13300901160E+04  0.00000000000E+00 0. -1.
          1   -1    0    0  501    0 -0.00000000000E+00 -0.00000000000E+00 -0.18182917514E+02  0.18182917514E+02  0.00000000000E+00 0. -1.
         25    2    1    2    0    0  0.72464664957E+02 -0.50451203044E+02  0.49497559237E+03  0.51809494427E+03  0.12500033073E+03 0.  0.
          2    1    1    2  501    0 -0.42046937431E+02  0.30415515542E+02  0.10315683659E+03  0.11547459230E+03  0.00000000000E+00 0. -1.
          1    1    1    2  502    0 -0.30417727526E+02  0.20035687502E+02  0.71377476948E+03  0.71470349689E+03  0.00000000000E+00 0. -1.
         22    1    3    3    0    0 -0.10345443234E+02  0.32377250531E+02  0.14914582387E+03  0.15296990333E+03  0.00000000000E+00 0. -1.
         22    1    3    3    0    0  0.82810108191E+02 -0.82828453574E+02  0.34582976850E+03  0.36512504094E+03  0.00000000000E+00 0. -1.
</event>
<event>
 7    1  0.5950675E-006  0.9134274E+02  0.7818608E-02  0.1410695E+00
          2   -1    0    0  502    0  0.00000000000E+00  0.00000000000E+00  0.19654970787E+04  0.19654970787E+04  0.00000000000E+00 0. -1.
          1   -1    0    0  501    0 -0.00000000000E+00 -0.00000000000E+00 -0.43611389861E+03  0.43611389861E+03  0.00000000000E+00 0. -1.
         25    2    1    2    0    0  0.12059571432E+03  0.93133696560E+01  0.27333917947E+03  0.32398847566E+03  0.12499664060E+03 0.  0.
          2    1    1    2  501    0 -0.87839199768E+02 -0.23300920823E+02 -0.40556996965E+03  0.41562682566E+03  0.00000000000E+00 0. -1.
          1    1    1    2  502    0 -0.32756514554E+02  0.13987551167E+02  0.16616139703E+04  0.16619956760E+04  0.00000000000E+00 0. -1.
         22    1    3    3    0    0  0.12047719400E+03 -0.12385193416E+02  0.27668699686E+03  0.30203284842E+03  0.00000000000E+00 0.  1.
         22    1    3    3    0    0  0.11852032060E+00  0.21698563072E+02 -0.33478173929E+01  0.21955627246E+02  0.00000000000E+00 0.  1.
</event>
<event>
 7    1  0.5950675E-006  0.1419789E+03  0.7818608E-02  0.1417457E+00
          2   -1    0    0  502    0  0.00000000000E+00  0.00000000000E+00  0.21683177883E+04  0.21683177883E+04  0.00000000000E+00 0. -1.
          1   -1    0    0  501    0 -0.00000000000E+00 -0.00000000000E+00 -0.15425336327E+03  0.15425336327E+03  0.00000000000E+00 0. -1.
         25    2    1    2    0    0 -0.12237028950E+03 -0.18543162415E+02  0.20085347453E+03  0.26699217478E+03  0.12499746612E+03 0.  0.
          2    1    1    2  501    0 -0.17654768954E+02 -0.12693010107E+02 -0.11752525794E+03  0.11951982943E+03  0.00000000000E+00 0. -1.
          1    1    1    2  502    0  0.14002505846E+03  0.31236172523E+02  0.19307362084E+04  0.19360591474E+04  0.00000000000E+00 0. -1.
         22    1    3    3    0    0 -0.11218801756E+03  0.36822369422E+02  0.11891547933E+03  0.16757962107E+03  0.00000000000E+00 0.  1.
         22    1    3    3    0    0 -0.10182271941E+02 -0.55365531837E+02  0.81937995196E+02  0.99412553705E+02  0.00000000000E+00 0.  1.
</event>
<event>
 7    1  0.5950675E-006  0.5596374E+02  0.7818608E-02  0.1445559E+00
          2   -1    0    0  502    0  0.00000000000E+00  0.00000000000E+00  0.18343844029E+03  0.18343844029E+03  0.00000000000E+00 0. -1.
          1   -1    0    0  501    0 -0.00000000000E+00 -0.00000000000E+00 -0.16694326220E+04  0.16694326220E+04  0.00000000000E+00 0. -1.
         25    2    1    2    0    0 -0.81472596667E+02 -0.27435899949E+02 -0.10107431183E+03  0.18229466636E+03  0.12499926503E+03 0.  0.
          2    1    1    2  501    0  0.26905892813E+02  0.35569955928E+02 -0.15220817448E+04  0.15227350350E+04  0.00000000000E+00 0. -1.
          1    1    1    2  502    0  0.54566703854E+02 -0.81340559790E+01  0.13716187500E+03  0.14784136089E+03  0.00000000000E+00 0. -1.
         22    1    3    3    0    0 -0.55392195764E+02  0.45565197823E+02 -0.64983671090E+02  0.96785123405E+02  0.00000000000E+00 0. -1.
         22    1    3    3    0    0 -0.26080400903E+02 -0.73001097772E+02 -0.36090640741E+02  0.85509542954E+02  0.00000000000E+00 0. -1.
</event>
<event>
 7    1  0.5950675E-006  0.6093649E+02  0.7818608E-02  0.1414197E+00
          2   -1    0    0  502    0  0.00000000000E+00  0.00000000000E+00  0.21736244733E+03  0.21736244733E+03  0.00000000000E+00 0. -1.
          1   -1    0    0  501    0 -0.00000000000E+00 -0.00000000000E+00 -0.47004979131E+03  0.47004979131E+03  0.00000000000E+00 0. -1.
         25    2    1    2    0    0 -0.30291558540E+02  0.13975187255E+01 -0.14398588868E+03  0.19307145310E+03  0.12500047315E+03 0.  0.
          2    1    1    2  501    0  0.42562712154E+02 -0.51884435263E+02 -0.29417232184E+03  0.30172990243E+03  0.00000000000E+00 0. -1.
          1    1    1    2  502    0 -0.12271153614E+02  0.50486916538E+02  0.18547086654E+03  0.19261088310E+03  0.00000000000E+00 0. -1.
         22    1    3    3    0    0  0.26542782951E+02  0.77499578422E+01 -0.13170904211E+03  0.13458028439E+03  0.00000000000E+00 0. -1.
         22    1    3    3    0    0 -0.56834341491E+02 -0.63524391167E+01 -0.12276846565E+02  0.58491168710E+02  0.00000000000E+00 0. -1.
</event>
<event>
 7    1  0.5950675E-006  0.9724127E+02  0.7818608E-02  0.1402966E+00
          2   -1    0    0  502    0  0.00000000000E+00  0.00000000000E+00  0.14142936527E+04  0.14142936527E+04  0.00000000000E+00 0. -1.
          1   -1    0    0  501    0 -0.00000000000E+00 -0.00000000000E+00 -0.82722892221E+02  0.82722892221E+02  0.00000000000E+00 0. -1.
         25    2    1    2    0    0  0.92674198407E+02  0.13578016950E+02  0.91320986159E+03  0.92647187883E+03  0.12500008543E+03 0.  0.
          2    1    1    2  501    0 -0.22714427155E+01  0.35474741670E+02 -0.66225754573E+02  0.75162938456E+02  0.00000000000E+00 0. -1.
          1    1    1    2  502    0 -0.90402755692E+02 -0.49052758620E+02  0.48458665350E+03  0.49538172768E+03  0.00000000000E+00 0. -1.
         22    1    3    3    0    0  0.12391301840E+03  0.14028813751E+02  0.70832280785E+03  0.71921654865E+03  0.00000000000E+00 0. -1.
         22    1    3    3    0    0 -0.31238819998E+02 -0.45079680096E+00  0.20488705375E+03  0.20725533017E+03  0.00000000000E+00 0. -1.
</event>
<event>
 7    1  0.5950675E-006  0.4312249E+03  0.7818608E-02  0.1125960E+00
          2   -1    0    0  502    0  0.00000000000E+00  0.00000000000E+00  0.15529521106E+04  0.15529521106E+04  0.00000000000E+00 0. -1.
          1   -1    0    0  501    0 -0.00000000000E+00 -0.00000000000E+00 -0.38536692602E+04  0.38536692602E+04  0.00000000000E+00 0. -1.
         25    2    1    2    0    0  0.47211429695E+03 -0.25193835826E+03  0.95872633009E+02  0.55783612789E+03  0.12499895227E+03 0.  0.
          2    1    1    2  501    0 -0.34848810802E+03  0.24739491785E+03 -0.36069191388E+04  0.36321500355E+04  0.00000000000E+00 0. -1.
          1    1    1    2  502    0 -0.12362618893E+03  0.45434404084E+01  0.12103293561E+04  0.12166352074E+04  0.00000000000E+00 0. -1.
         22    1    3    3    0    0  0.33655576824E+03 -0.23224759863E+03  0.99361804641E+02  0.42081052794E+03  0.00000000000E+00 0.  1.
         22    1    3    3    0    0  0.13555852872E+03 -0.19690759627E+02 -0.34891716318E+01  0.13702559995E+03  0.00000000000E+00 0.  1.
</event>
<event>
 7    1  0.5950675E-006  0.1020796E+03  0.7818608E-02  0.1367494E+00
          2   -1    0    0  502    0  0.00000000000E+00  0.00000000000E+00  0.10751334089E+04  0.10751334089E+04  0.00000000000E+00 0. -1.
          1   -1    0    0  501    0 -0.00000000000E+00 -0.00000000000E+00 -0.65850297636E+03  0.65850297636E+03  0.00000000000E+00 0. -1.
         25    2    1    2    0    0 -0.12936524983E+02  0.62052921674E+02 -0.49366607831E+01  0.14023628758E+03  0.12499570780E+03 0.  0.
          2    1    1    2  501    0 -0.13421431946E+01 -0.10485738785E+03 -0.58071265545E+03  0.59010512735E+03  0.00000000000E+00 0. -1.
          1    1    1    2  502    0  0.14278668177E+02  0.42804466174E+02  0.10022797488E+04  0.10032949703E+04  0.00000000000E+00 0. -1.
         22    1    3    3    0    0  0.42354924016E+02  0.23046699192E+02 -0.41238042732E+02  0.63448137091E+02  0.00000000000E+00 0. -1.
         22    1    3    3    0    0 -0.55291448998E+02  0.39006222482E+02  0.36301381948E+02  0.76788150492E+02  0.00000000000E+00 0. -1.
</event>
<event>
 7    1  0.5950675E-006  0.8139620E+02  0.7818608E-02  0.1406820E+00
          2   -1    0    0  502    0  0.00000000000E+00  0.00000000000E+00  0.81987933653E+03  0.81987933653E+03  0.00000000000E+00 0. -1.
          1   -1    0    0  501    0 -0.00000000000E+00 -0.00000000000E+00 -0.12253456904E+04  0.12253456904E+04  0.00000000000E+00 0. -1.
         25    2    1    2    0    0  0.24876752258E+01 -0.94335901247E+02  0.92876647706E+02  0.18208119358E+03  0.12498815374E+03 0.  0.
          2    1    1    2  501    0 -0.37301606095E+02  0.72303623832E+02 -0.11787180417E+04  0.11815225117E+04  0.00000000000E+00 0. -1.
          1    1    1    2  502    0  0.34813930869E+02  0.22032277415E+02  0.68037504007E+03  0.68162132169E+03  0.00000000000E+00 0. -1.
         22    1    3    3    0    0 -0.38880287765E+02  0.84455959516E+01  0.48496782119E+02  0.62729121973E+02  0.00000000000E+00 0.  1.
         22    1    3    3    0    0  0.41367962991E+02 -0.10278149720E+03  0.44379865588E+02  0.11935207161E+03  0.00000000000E+00 0.  1.
</event>
<event>
 7    1  0.5950675E-006  0.7043843E+02  0.7818608E-02  0.1422666E+00
          2   -1    0    0  502    0  0.00000000000E+00  0.00000000000E+00  0.14078487635E+04  0.14078487635E+04  0.00000000000E+00 0. -1.
          1   -1    0    0  501    0 -0.00000000000E+00 -0.00000000000E+00 -0.19163572134E+03  0.19163572134E+03  0.00000000000E+00 0. -1.
         25    2    1    2    0    0 -0.10365251091E+03  0.36530379351E+02  0.88048557669E+02  0.18829750998E+03  0.12500036849E+03 0.  0.
          2    1    1    2  501    0  0.62787794922E+02 -0.26375741609E+02 -0.13294579044E+03  0.14937392722E+03  0.00000000000E+00 0. -1.
          1    1    1    2  502    0  0.40864715985E+02 -0.10154637742E+02  0.12611102749E+04  0.12618130476E+04  0.00000000000E+00 0. -1.
         22    1    3    3    0    0 -0.32437228001E+02  0.27954026888E+02 -0.28504762979E+02  0.51440479120E+02  0.00000000000E+00 0. -1.
         22    1    3    3    0    0 -0.71215282906E+02  0.85763524622E+01  0.11655332065E+03  0.13685703086E+03  0.00000000000E+00 0. -1.
</event>
<event>
 7    1  0.7905955E-006  0.1082391E+03  0.7818608E-02  0.1344324E+00
          2   -1    0    0  502    0  0.00000000000E+00  0.00000000000E+00  0.13723107218E+04  0.13723107218E+04  0.00000000000E+00 0. -1.
          1   -1    0    0  501    0 -0.00000000000E+00 -0.00000000000E+00 -0.29550964939E+04  0.29550964939E+04  0.00000000000E+00 0. -1.
         25    2    1    2    0    0 -0.88536984444E+02  0.48878681502E+02 -0.77419512524E+03  0.79071391458E+03  0.12498991821E+03 0.  0.
          2    1    1    2  501    0  0.61206825612E+02 -0.92842293778E+02 -0.21707270851E+04  0.21735735656E+04  0.00000000000E+00 0. -1.
          1    1    1    2  502    0  0.27330158831E+02  0.43963612275E+02  0.13621364383E+04  0.13631197355E+04  0.00000000000E+00 0. -1.
         22    1    3    3    0    0 -0.11778247357E+02  0.75448788970E+02 -0.29728076845E+03  0.30693175489E+03  0.00000000000E+00 0.  1.
         22    1    3    3    0    0 -0.76758737087E+02 -0.26570107467E+02 -0.47691435679E+03  0.48378215970E+03  0.00000000000E+00 0.  1.
</event>
<event>
 7    1  0.5950675E-006  0.5583818E+02  0.7818608E-02  0.1452784E+00
          2   -1    0    0  502    0  0.00000000000E+00  0.00000000000E+00  0.39389439131E+03  0.39389439131E+03  0.00000000000E+00 0. -1.
          1   -1    0    0  501    0 -0.00000000000E+00 -0.00000000000E+00 -0.28503645716E+04  0.28503645716E+04  0.00000000000E+00 0. -1.
         25    2    1    2    0    0 -0.40103284196E+02 -0.13549115511E+02  0.17633283192E+03  0.22025002004E+03  0.12499980713E+03 0.  0.
          2    1    1    2  501    0  0.48342292449E+02 -0.28022681202E+02 -0.28258309463E+04  0.28263833401E+04  0.00000000000E+00 0. -1.
          1    1    1    2  502    0 -0.82390082533E+01  0.41571796714E+02  0.19302793410E+03  0.19762560280E+03  0.00000000000E+00 0. -1.
         22    1    3    3    0    0 -0.33390643120E+02  0.23357505141E+02  0.17809417150E+03  0.18269658457E+03  0.00000000000E+00 0.  1.
         22    1    3    3    0    0 -0.67126410760E+01 -0.36906620652E+02 -0.17613395801E+01  0.37553435466E+02  0.00000000000E+00 0.  1.
</event>
<event>
 7    1  0.5950675E-006  0.3417602E+02  0.7818608E-02  0.1567159E+00
          2   -1    0    0  502    0  0.00000000000E+00  0.00000000000E+00  0.57604196279E+03  0.57604196279E+03  0.00000000000E+00 0. -1.
          1   -1    0    0  501    0 -0.00000000000E+00 -0.00000000000E+00 -0.36097372744E+02  0.36097372744E+02  0.00000000000E+00 0. -1.
         25    2    1    2    0    0 -0.43691794343E+01 -0.59826564192E+01  0.40099801693E+03  0.42009065188E+03  0.12498745661E+03 0.  0.
          2    1    1    2  501    0 -0.34122617728E+02  0.19097412443E+01 -0.11997588063E+02  0.36220743664E+02  0.00000000000E+00 0. -1.
          1    1    1    2  502    0  0.38491797163E+02  0.40729151749E+01  0.15094416119E+03  0.15582793999E+03  0.00000000000E+00 0. -1.
         22    1    3    3    0    0 -0.33355174850E+02  0.19758160871E+02  0.36542849301E+03  0.36747916419E+03  0.00000000000E+00 0.  1.
         22    1    3    3    0    0  0.28985995416E+02 -0.25740817290E+02  0.35569523915E+02  0.52611487686E+02  0.00000000000E+00 0.  1.
</event>
<event>
 7    1  0.5950675E-006  0.9526233E+02  0.7818608E-02  0.1384042E+00
          2   -1    0    0  502    0  0.00000000000E+00  0.00000000000E+00  0.14403635356E+04  0.14403635356E+04  0.00000000000E+00 0. -1.
          1   -1    0    0  501    0 -0.00000000000E+00 -0.00000000000E+00 -0.10331710258E+04  0.10331710258E+04  0.00000000000E+00 0. -1.
         25    2    1    2    0    0 -0.76292676827E+02  0.11370844578E+03  0.13386625164E+03  0.22867897170E+03  0.12499486225E+03 0.  0.
          2    1    1    2  501    0  0.53674339858E+02 -0.78067563581E+02 -0.98313313347E+03  0.98768731761E+03  0.00000000000E+00 0. -1.
          1    1    1    2  502    0  0.22618336969E+02 -0.35640882195E+02  0.12564593916E+04  0.12571682721E+04  0.00000000000E+00 0. -1.
         22    1    3    3    0    0 -0.88960531757E+02  0.30870424395E+02  0.10253238649E+03  0.13921152823E+03  0.00000000000E+00 0.  1.
         22    1    3    3    0    0  0.12667854930E+02  0.82838021381E+02  0.31333865153E+02  0.89467443465E+02  0.00000000000E+00 0.  1.
</event>
<event>
 7    1  0.5950675E-006  0.1777520E+03  0.7818608E-02  0.1290952E+00
          2   -1    0    0  502    0  0.00000000000E+00  0.00000000000E+00  0.23243271880E+04  0.23243271880E+04  0.00000000000E+00 0. -1.
          1   -1    0    0  501    0 -0.00000000000E+00 -0.00000000000E+00 -0.19264763773E+03  0.19264763773E+03  0.00000000000E+00 0. -1.
         25    2    1    2    0    0  0.12915159035E+03  0.11622406471E+03  0.32145852207E+03  0.38619621950E+03  0.12499508805E+03 0.  0.
          2    1    1    2  501    0  0.32478853626E+02 -0.39164365220E+02 -0.15205917249E+03  0.16034561227E+03  0.00000000000E+00 0. -1.
          1    1    1    2  502    0 -0.16163044398E+03 -0.77059699486E+02  0.19622802007E+04  0.19704329940E+04  0.00000000000E+00 0. -1.
         22    1    3    3    0    0  0.59883080564E+01  0.19900815620E+02  0.16034359999E+03  0.16168479320E+03  0.00000000000E+00 0. -1.
         22    1    3    3    0    0  0.12316328230E+03  0.96323249087E+02  0.16111492209E+03  0.22451142630E+03  0.00000000000E+00 0. -1.
</event>
<event>
 7    1  0.5950675E-006  0.1562257E+03  0.7818608E-02  0.1205665E+00
          2   -1    0    0  502    0  0.00000000000E+00  0.00000000000E+00  0.85418234645E+03  0.85418234645E+03  0.00000000000E+00 0. -1.
          1   -1    0    0  501    0 -0.00000000000E+00 -0.00000000000E+00 -0.41321019704E+03  0.41321019704E+03  0.00000000000E+00 0. -1.
         25    2    1    2    0    0  0.66284455578E+02 -0.78919500505E+01 -0.21157889393E+02  0.14327942668E+03  0.12500170359E+03 0.  0.
          2    1    1    2  501    0 -0.19861608920E+03  0.39983512887E+02 -0.29332076216E+03  0.35648857164E+03  0.00000000000E+00 0. -1.
          1    1    1    2  502    0  0.13233163363E+03 -0.32091562837E+02  0.75545080096E+03  0.76762454516E+03  0.00000000000E+00 0. -1.
         22    1    3    3    0    0  0.48958782136E+02  0.61913890567E+01 -0.72265386103E+02  0.87507609242E+02  0.00000000000E+00 0.  1.
         22    1    3    3    0    0  0.17325673442E+02 -0.14083339107E+02  0.51107496710E+02  0.55771817440E+02  0.00000000000E+00 0.  1.
</event>
<event>
 7    1  0.5950675E-006  0.7444237E+02  0.7818608E-02  0.1422925E+00
          2   -1    0    0  502    0  0.00000000000E+00  0.00000000000E+00  0.70920583619E+03  0.70920583619E+03  0.00000000000E+00 0. -1.
          1   -1    0    0  501    0 -0.00000000000E+00 -0.00000000000E+00 -0.63460609607E+03  0.63460609607E+03  0.00000000000E+00 0. -1.
         25    2    1    2    0    0  0.39416051031E+02 -0.74962781986E+02 -0.65073386830E+02  0.16441483972E+03  0.12499860033E+03 0.  0.
          2    1    1    2  501    0 -0.61484235108E+02  0.41884861423E+02 -0.51659552576E+03  0.52192488925E+03  0.00000000000E+00 0. -1.
          1    1    1    2  502    0  0.22068184077E+02  0.33077920562E+02  0.65626865271E+03  0.65747220329E+03  0.00000000000E+00 0. -1.
         22    1    3    3    0    0 -0.14195428286E+02 -0.83270895286E+02 -0.67210137743E+01  0.84739153950E+02  0.00000000000E+00 0.  1.
         22    1    3    3    0    0  0.53611479318E+02  0.83081133003E+01 -0.58352373056E+02  0.79675685767E+02  0.00000000000E+00 0.  1.
</event>
<event>
 7    1  0.5950675E-006  0.6953968E+02  0.7818608E-02  0.1510742E+00
          2   -1    0    0  502    0  0.00000000000E+00  0.00000000000E+00  0.10354927079E+04  0.10354927079E+04  0.00000000000E+00 0. -1.
          1   -1    0    0  501    0 -0.00000000000E+00 -0.00000000000E+00 -0.26805262052E+03  0.26805262052E+03  0.00000000000E+00 0. -1.
         25    2    1    2    0    0  0.20197521874E+02 -0.70213628657E+02 -0.28496833518E+02  0.14756234037E+03  0.12499872494E+03 0.  0.
          2    1    1    2  501    0  0.18770262970E+02  0.12617520082E+02 -0.17806811058E+03  0.17949868131E+03  0.00000000000E+00 0. -1.
          1    1    1    2  502    0 -0.38967784844E+02  0.57596108575E+02  0.97400503149E+03  0.97648430676E+03  0.00000000000E+00 0. -1.
         22    1    3    3    0    0 -0.45653712702E+02 -0.44893330085E+02  0.13529109732E+02  0.65442412698E+02  0.00000000000E+00 0. -1.
         22    1    3    3    0    0  0.65851234575E+02 -0.25320298572E+02 -0.42025943250E+02  0.82119927672E+02  0.00000000000E+00 0. -1.
</event>
<event>
 7    1  0.5950675E-006  0.6755990E+02  0.7818608E-02  0.1516757E+00
          2   -1    0    0  502    0  0.00000000000E+00  0.00000000000E+00  0.89656655982E+03  0.89656655982E+03  0.00000000000E+00 0. -1.
          1   -1    0    0  501    0 -0.00000000000E+00 -0.00000000000E+00 -0.32046480353E+03  0.32046480353E+03  0.00000000000E+00 0. -1.
         25    2    1    2    0    0  0.55786847414E+02 -0.31533701089E+02 -0.47891854912E+02  0.14841143153E+03  0.12500310633E+03 0.  0.
          2    1    1    2  501    0 -0.11195329835E+02 -0.19348935857E+02 -0.22039468089E+03  0.22152546602E+03  0.00000000000E+00 0. -1.
          1    1    1    2  502    0 -0.44591517579E+02  0.50882636947E+02  0.84438829209E+03  0.84709446581E+03  0.00000000000E+00 0. -1.
         22    1    3    3    0    0  0.65886005975E+02  0.33157040106E+02 -0.35161554129E+02  0.81711015051E+02  0.00000000000E+00 0. -1.
         22    1    3    3    0    0 -0.10099158560E+02 -0.64690741196E+02 -0.12730300783E+02  0.66700416476E+02  0.00000000000E+00 0. -1.
</event>
<event>
 7    1  0.5950675E-006  0.1146820E+03  0.7818608E-02  0.1269666E+00
          2   -1    0    0  502    0  0.00000000000E+00  0.00000000000E+00  0.77108964895E+03  0.77108964895E+03  0.00000000000E+00 0. -1.
          1   -1    0    0  501    0 -0.00000000000E+00 -0.00000000000E+00 -0.18849664944E+03  0.18849664944E+03  0.00000000000E+00 0. -1.
         25    2    1    2    0    0  0.59349541574E+02  0.41347078199E+02  0.15286522870E+03  0.21029805400E+03  0.12500217761E+03 0.  0.
          2    1    1    2  501    0  0.68859510773E+02 -0.67688896058E+02 -0.13701927040E+03  0.16762368369E+03  0.00000000000E+00 0. -1.
          1    1    1    2  502    0 -0.12820905235E+03  0.26341817859E+02  0.56674704120E+03  0.58166456071E+03  0.00000000000E+00 0. -1.
         22    1    3    3    0    0  0.53415946991E+02  0.74345510182E+02  0.15116910149E+03  0.17672751773E+03  0.00000000000E+00 0.  1.
         22    1    3    3    0    0  0.59335945831E+01 -0.32998431983E+02  0.16961272181E+01  0.33570536272E+02  0.00000000000E+00 0.  1.
</event>
<event>
 7    1  0.5950675E-006  0.9113578E+02  0.7818608E-02  0.1338536E+00
          2   -1    0    0  502    0  0.00000000000E+00  0.00000000000E+00  0.75270636527E+03  0.75270636527E+03  0.00000000000E+00 0. -1.
          1   -1    0    0  501    0 -0.00000000000E+00 -0.00000000000E+00 -0.43002386624E+03  0.43002386624E+03  0.00000000000E+00 0. -1.
         25    2    1    2    0    0  0.61456664181E+02 -0.12992927141E+03 -0.49957983674E+02  0.19695216624E+03  0.12504326656E+03 0.  0.
          2    1    1    2  501    0 -0.57509862754E+02  0.65415055756E+02 -0.29879878119E+03  0.31123500040E+03  0.00000000000E+00 0. -1.
          1    1    1    2  502    0 -0.39468014269E+01  0.64514215654E+02  0.67143926390E+03  0.67454306487E+03  0.00000000000E+00 0. -1.
         22    1    3    3    0    0 -0.16705482288E+02  0.13626082485E+02  0.87612986318E+01  0.23270230254E+02  0.00000000000E+00 0. -1.
         22    1    3    3    0    0  0.78162146468E+02 -0.14355535390E+03 -0.58719282305E+02  0.17368193598E+03  0.00000000000E+00 0. -1.
</event>
<event>
 7    1  0.5950675E-006  0.1900258E+03  0.7818608E-02  0.1295460E+00
          2   -1    0    0  502    0  0.00000000000E+00  0.00000000000E+00  0.12202620586E+04  0.12202620586E+04  0.00000000000E+00 0. -1.
          1   -1    0    0  501    0 -0.00000000000E+00 -0.00000000000E+00 -0.15590267266E+03  0.15590267266E+03  0.00000000000E+00 0. -1.
         25    2    1    2    0    0  0.91452227822E+02 -0.16382819205E+03  0.36804434344E+03  0.43160714769E+03  0.12499961884E+03 0.  0.
          2    1    1    2  501    0  0.39444507932E+02  0.22950505322E+02 -0.10817283838E+03  0.11740510153E+03  0.00000000000E+00 0. -1.
          1    1    1    2  502    0 -0.13089673575E+03  0.14087768673E+03  0.80448788088E+03  0.82715248203E+03  0.00000000000E+00 0. -1.
         22    1    3    3    0    0  0.10877348223E+03 -0.11558091323E+03  0.19663913682E+03  0.25270055020E+03  0.00000000000E+00 0.  1.
         22    1    3    3    0    0 -0.17321254412E+02 -0.48247278820E+02  0.17140520663E+03  0.17890659749E+03  0.00000000000E+00 0.  1.
</event>
<event>
 7    1  0.5950675E-006  0.6646050E+02  0.7818608E-02  0.1434486E+00
          2   -1    0    0  502    0  0.00000000000E+00  0.00000000000E+00  0.16883895846E+03  0.16883895846E+03  0.00000000000E+00 0. -1.
          1   -1    0    0  501    0 -0.00000000000E+00 -0.00000000000E+00 -0.10412387641E+04  0.10412387641E+04  0.00000000000E+00 0. -1.
         25    2    1    2    0    0  0.92281043495E+02  0.43677224051E+02 -0.78699217442E+02  0.17955824311E+03  0.12499641976E+03 0.  0.
          2    1    1    2  501    0 -0.51598966438E+02 -0.40637875005E+02 -0.90737363915E+03  0.90974766351E+03  0.00000000000E+00 0. -1.
          1    1    1    2  502    0 -0.40682077056E+02 -0.30393490466E+01  0.11367305091E+03  0.12077181600E+03  0.00000000000E+00 0. -1.
         22    1    3    3    0    0 -0.19055527683E+02  0.38409789816E+02  0.40638422670E+00  0.42878785397E+02  0.00000000000E+00 0.  1.
         22    1    3    3    0    0  0.11133657118E+03  0.52674342348E+01 -0.79105601669E+02  0.13667945771E+03  0.00000000000E+00 0.  1.
</event>
<event>
 7    1  0.5950675E-006  0.3618045E+02  0.7818608E-02  0.1540918E+00
          2   -1    0    0  502    0  0.00000000000E+00  0.00000000000E+00  0.19460000412E+04  0.19460000412E+04  0.00000000000E+00 0. -1.
          1   -1    0    0  501    0 -0.00000000000E+00 -0.00000000000E+00 -0.39468976201E+02  0.39468976201E+02  0.00000000000E+00 0. -1.
         25    2    1    2    0    0 -0.21516778966E+02  0.16085021228E+02  0.87898294941E+03  0.88823235195E+03  0.12499594399E+03 0.  0.
          2    1    1    2  501    0 -0.83041232751E+01 -0.35497808714E+02 -0.24924946282E+02  0.44162267084E+02  0.00000000000E+00 0. -1.
          1    1    1    2  502    0  0.29820902241E+02  0.19412787485E+02  0.10524730619E+04  0.10530743984E+04  0.00000000000E+00 0. -1.
         22    1    3    3    0    0 -0.38795098150E+01 -0.53657674513E+02  0.45778273163E+03  0.46093299514E+03  0.00000000000E+00 0.  1.
         22    1    3    3    0    0 -0.17637269151E+02  0.69742695741E+02  0.42120021779E+03  0.42729935681E+03  0.00000000000E+00 0.  1.
</event>
<event>
 7    1  0.5950675E-006  0.9029103E+02  0.7818608E-02  0.1310546E+00
          2   -1    0    0  502    0  0.00000000000E+00  0.00000000000E+00  0.14959951465E+04  0.14959951465E+04  0.00000000000E+00 0. -1.
          1   -1    0    0  501    0 -0.00000000000E+00 -0.00000000000E+00 -0.58263657625E+02  0.58263657625E+02  0.00000000000E+00 0. -1.
         25    2    1    2    0    0 -0.68575536136E+01  0.34603699204E+02  0.29406034503E+03  0.32146771464E+03  0.12500225197E+03 0.  0.
          2    1    1    2  501    0  0.71488283593E+02  0.43397919726E+02 -0.10105182828E+01  0.83635968787E+02  0.00000000000E+00 0. -1.
          1    1    1    2  502    0 -0.64630729980E+02 -0.78001618930E+02  0.11446816622E+04  0.11491551207E+04  0.00000000000E+00 0. -1.
         22    1    3    3    0    0  0.23157974803E+02  0.66745646072E+02  0.24765169261E+03  0.25753181147E+03  0.00000000000E+00 0.  1.
         22    1    3    3    0    0 -0.30015528417E+02 -0.32141946869E+02  0.46408652419E+02  0.63935903169E+02  0.00000000000E+00 0.  1.
</event>
<event>
 7    1  0.5950675E-006  0.4540190E+02  0.7818608E-02  0.1553818E+00
          2   -1    0    0  502    0  0.00000000000E+00  0.00000000000E+00  0.25504600250E+04  0.25504600250E+04  0.00000000000E+00 0. -1.
          1   -1    0    0  501    0 -0.00000000000E+00 -0.00000000000E+00 -0.40252265063E+03  0.40252265063E+03  0.00000000000E+00 0. -1.
         25    2    1    2    0    0 -0.22979203388E+02  0.60887869936E+02 -0.22098802598E+03  0.26209877738E+03  0.12499873994E+03 0.  0.
          2    1    1    2  501    0  0.20957713604E+02 -0.15544884998E+02 -0.15971686554E+03  0.16183431758E+03  0.00000000000E+00 0. -1.
          1    1    1    2  502    0  0.20214897833E+01 -0.45342984938E+02  0.25286422659E+04  0.25290495807E+04  0.00000000000E+00 0. -1.
         22    1    3    3    0    0 -0.40345564944E+02 -0.26199813850E+02 -0.10923920095E+03  0.11936246428E+03  0.00000000000E+00 0.  1.
         22    1    3    3    0    0  0.17366361556E+02  0.87087683786E+02 -0.11174882503E+03  0.14273631310E+03  0.00000000000E+00 0.  1.
</event>
<event>
 7    1  0.5950675E-006  0.4195918E+02  0.7818608E-02  0.1568692E+00
          2   -1    0    0  502    0  0.00000000000E+00  0.00000000000E+00  0.96670192908E+03  0.96670192908E+03  0.00000000000E+00 0. -1.
          1   -1    0    0  501    0 -0.00000000000E+00 -0.00000000000E+00 -0.44916765392E+02  0.44916765392E+02  0.00000000000E+00 0. -1.
         25    2    1    2    0    0  0.11801707604E+02 -0.20068647818E+02  0.22516958879E+03  0.25858780878E+03  0.12499712079E+03 0.  0.
          2    1    1    2  501    0 -0.12000156505E+02 -0.22724194472E+02 -0.21582607714E+02  0.33558929159E+02  0.00000000000E+00 0. -1.
          1    1    1    2  502    0  0.19844890134E+00  0.42792842290E+02  0.71819818261E+03  0.71947195654E+03  0.00000000000E+00 0. -1.
         22    1    3    3    0    0  0.46596799690E+02 -0.38937248311E+02  0.20570182823E+03  0.21447753538E+03  0.00000000000E+00 0.  1.
         22    1    3    3    0    0 -0.34795092086E+02  0.18868600493E+02  0.19467760563E+02  0.44110273397E+02  0.00000000000E+00 0.  1.
</event>
<event>
 7    1  0.5950675E-006  0.9117852E+02  0.7818608E-02  0.1460063E+00
          2   -1    0    0  502    0  0.00000000000E+00  0.00000000000E+00  0.57114290419E+03  0.57114290419E+03  0.00000000000E+00 0. -1.
          1   -1    0    0  501    0 -0.00000000000E+00 -0.00000000000E+00 -0.12890889645E+03  0.12890889645E+03  0.00000000000E+00 0. -1.
         25    2    1    2    0    0  0.37096337857E+02 -0.60760187534E+02  0.25356638736E+03  0.29152600845E+03  0.12499424841E+03 0.  0.
          2    1    1    2  501    0 -0.36099715324E+02  0.85350775551E+02 -0.89758732097E+02  0.12901385321E+03  0.00000000000E+00 0. -1.
          1    1    1    2  502    0 -0.99662253383E+00 -0.24590588016E+02  0.27842635248E+03  0.27951193897E+03  0.00000000000E+00 0. -1.
         22    1    3    3    0    0  0.48805057556E+02 -0.32751271062E+01  0.23817233773E+02  0.54405153480E+02  0.00000000000E+00 0.  1.
         22    1    3    3    0    0 -0.11708719699E+02 -0.57485060428E+02  0.22974915359E+03  0.23712085497E+03  0.00000000000E+00 0.  1.
</event>
<event>
 7    1  0.5950675E-006  0.1474559E+03  0.7818608E-02  0.1345969E+00
          2   -1    0    0  502    0  0.00000000000E+00  0.00000000000E+00  0.40693177906E+03  0.40693177906E+03  0.00000000000E+00 0. -1.
          1   -1    0    0  501    0 -0.00000000000E+00 -0.00000000000E+00 -0.12130631090E+04  0.12130631090E+04  0.00000000000E+00 0. -1.
         25    2    1    2    0    0 -0.36610026276E+02 -0.10747456532E+03 -0.22467791673E+02  0.17035760602E+03  0.12500334416E+03 0.  0.
          2    1    1    2  501    0  0.58482652011E+02  0.13789208358E+03 -0.11105529041E+04  0.11206079600E+04  0.00000000000E+00 0. -1.
          1    1    1    2  502    0 -0.21872625735E+02 -0.30417518257E+02  0.32688936588E+03  0.32902932195E+03  0.00000000000E+00 0. -1.
         22    1    3    3    0    0 -0.56480517108E+02 -0.88343160111E+02 -0.62255344952E+02  0.12194380151E+03  0.00000000000E+00 0.  1.
         22    1    3    3    0    0  0.19870490831E+02 -0.19131405211E+02  0.39787553280E+02  0.48413804511E+02  0.00000000000E+00 0.  1.
</event>
<event>
 7    1  0.5950675E-006  0.5539830E+02  0.7818608E-02  0.1431541E+00
          2   -1    0    0  502    0  0.00000000000E+00  0.00000000000E+00  0.18648841904E+04  0.18648841904E+04  0.00000000000E+00 0. -1.
          1   -1    0    0  501    0 -0.00000000000E+00 -0.00000000000E+00 -0.95178181155E+02  0.95178181155E+02  0.00000000000E+00 0. -1.
         25    2    1    2    0    0  0.32764169359E+02 -0.53395172845E+02  0.11043103885E+04  0.11131267767E+04  0.12500100646E+03 0.  0.
          2    1    1    2  501    0  0.24377269949E+02  0.43702640991E+02 -0.82665805525E+02  0.96632331664E+02  0.00000000000E+00 0. -1.
          1    1    1    2  502    0 -0.57141439308E+02  0.96925318540E+01  0.74806142635E+03  0.75030326326E+03  0.00000000000E+00 0. -1.
         22    1    3    3    0    0  0.78479334210E+02 -0.42252770737E+02  0.83425685525E+03  0.83900465021E+03  0.00000000000E+00 0. -1.
         22    1    3    3    0    0 -0.45715164851E+02 -0.11142402109E+02  0.27005353321E+03  0.27412212647E+03  0.00000000000E+00 0. -1.
</event>
<event>
 7    1  0.5950675E-006  0.1474507E+03  0.7818608E-02  0.1316131E+00
          2   -1    0    0  502    0  0.00000000000E+00  0.00000000000E+00  0.13144010995E+04  0.13144010995E+04  0.00000000000E+00 0. -1.
          1   -1    0    0  501    0 -0.00000000000E+00 -0.00000000000E+00 -0.15721190544E+03  0.15721190544E+03  0.00000000000E+00 0. -1.
         25    2    1    2    0    0 -0.91323820017E+02 -0.13828092033E+03  0.28474521776E+03  0.35236908217E+03  0.12498991160E+03 0.  0.
          2    1    1    2  501    0 -0.19851191397E+02  0.44462384342E+02 -0.11303985080E+03  0.12308119796E+03  0.00000000000E+00 0. -1.
          1    1    1    2  502    0  0.11117501141E+03  0.93818535987E+02  0.98548382710E+03  0.99616272483E+03  0.00000000000E+00 0. -1.
         22    1    3    3    0    0  0.13242546469E+02 -0.66333210158E+02  0.45445037901E+02  0.81490559433E+02  0.00000000000E+00 0. -1.
         22    1    3    3    0    0 -0.10456636649E+03 -0.71947710170E+02  0.23930017986E+03  0.27087852274E+03  0.00000000000E+00 0. -1.
</event>
<event>
 7    1  0.5950675E-006  0.1100136E+03  0.7818608E-02  0.1346438E+00
          2   -1    0    0  502    0  0.00000000000E+00  0.00000000000E+00  0.21568965391E+04  0.21568965391E+04  0.00000000000E+00 0. -1.
          1   -1    0    0  501    0 -0.00000000000E+00 -0.00000000000E+00 -0.25262993418E+04  0.25262993418E+04  0.00000000000E+00 0. -1.
         25    2    1    2    0    0 -0.95646873848E+02 -0.18616699729E+02  0.49610309295E+02  0.16607889662E+03  0.12500444444E+03 0.  0.
          2    1    1    2  501    0  0.83640660952E+01 -0.49310201747E+02 -0.24663188876E+04  0.24668259583E+04  0.00000000000E+00 0. -1.
          1    1    1    2  502    0  0.87282807753E+02  0.67926901475E+02  0.20473057755E+04  0.20502910259E+04  0.00000000000E+00 0. -1.
         22    1    3    3    0    0  0.23860788709E+02  0.43142624819E+00 -0.15698091043E+02  0.28564898544E+02  0.00000000000E+00 0. -1.
         22    1    3    3    0    0 -0.11950766256E+03 -0.19048125977E+02  0.65308400338E+02  0.13751399808E+03  0.00000000000E+00 0. -1.
</event>
<event>
 7    1  0.5950675E-006  0.4255666E+02  0.7818608E-02  0.1497941E+00
          2   -1    0    0  502    0  0.00000000000E+00  0.00000000000E+00  0.10775817442E+04  0.10775817442E+04  0.00000000000E+00 0. -1.
          1   -1    0    0  501    0 -0.00000000000E+00 -0.00000000000E+00 -0.57626431532E+03  0.57626431532E+03  0.00000000000E+00 0. -1.
         25    2    1    2    0    0  0.49867651503E+02 -0.19150776620E+02  0.19282544807E+03  0.23591316733E+03  0.12497933504E+03 0.  0.
          2    1    1    2  501    0 -0.37920327880E+02 -0.19373289696E+02 -0.55343095177E+03  0.55506674733E+03  0.00000000000E+00 0. -1.
          1    1    1    2  502    0 -0.11947323623E+02  0.38524066316E+02  0.86192293257E+03  0.86286614485E+03  0.00000000000E+00 0. -1.
         22    1    3    3    0    0  0.76406408550E+01 -0.42796253268E+01  0.19090200709E+03  0.19110277575E+03  0.00000000000E+00 0. -1.
         22    1    3    3    0    0  0.42227010648E+02 -0.14871151293E+02  0.19234409758E+01  0.44810391587E+02  0.00000000000E+00 0. -1.
</event>
<event>
 7    1  0.5950675E-006  0.8041035E+02  0.7818608E-02  0.1478155E+00
          2   -1    0    0  502    0  0.00000000000E+00  0.00000000000E+00  0.40031823901E+03  0.40031823901E+03  0.00000000000E+00 0. -1.
          1   -1    0    0  501    0 -0.00000000000E+00 -0.00000000000E+00 -0.94549644467E+02  0.94549644467E+02  0.00000000000E+00 0. -1.
         25    2    1    2    0    0 -0.42525762669E+02  0.82882286413E+02  0.27263816454E+03  0.31406112820E+03  0.12499963834E+03 0.  0.
          2    1    1    2  501    0  0.52029423124E+02 -0.60289174646E+02 -0.50071835577E+02  0.94069305133E+02  0.00000000000E+00 0. -1.
          1    1    1    2  502    0 -0.95036604552E+01 -0.22593111767E+02  0.83202265574E+02  0.86737450147E+02  0.00000000000E+00 0. -1.
         22    1    3    3    0    0 -0.40454572047E+02  0.11588791233E+03  0.21065703292E+03  0.24380928231E+03  0.00000000000E+00 0.  1.
         22    1    3    3    0    0 -0.20711906216E+01 -0.33005625913E+02  0.61981131629E+02  0.70251845887E+02  0.00000000000E+00 0.  1.
</event>
<event>
 7    1  0.5950675E-006  0.1055388E+03  0.7818608E-02  0.1274465E+00
          2   -1    0    0  502    0  0.00000000000E+00  0.00000000000E+00  0.15710702859E+03  0.15710702859E+03  0.00000000000E+00 0. -1.
          1   -1    0    0  501    0 -0.00000000000E+00 -0.00000000000E+00 -0.19576478292E+04  0.19576478292E+04  0.00000000000E+00 0. -1.
         25    2    1    2    0    0 -0.81136623870E+02  0.73438483875E+02 -0.52346348965E+03  0.54919620485E+03  0.12500433505E+03 0.  0.
          2    1    1    2  501    0 -0.23235399394E+02 -0.97449519063E+02 -0.13993973496E+04  0.14029787007E+04  0.00000000000E+00 0. -1.
          1    1    1    2  502    0  0.10437202326E+03  0.24011035187E+02  0.12232003858E+03  0.16257995230E+03  0.00000000000E+00 0. -1.
         22    1    3    3    0    0 -0.30148443029E+02  0.10225264652E+03 -0.36531236180E+03  0.38054914797E+03  0.00000000000E+00 0. -1.
         22    1    3    3    0    0 -0.50988180841E+02 -0.28814162648E+02 -0.15815112785E+03  0.16864705688E+03  0.00000000000E+00 0. -1.
</event>
<event>
 7    1  0.5950675E-006  0.1607990E+03  0.7818608E-02  0.1298486E+00
          2   -1    0    0  502    0  0.00000000000E+00  0.00000000000E+00  0.32866514789E+03  0.32866514789E+03  0.00000000000E+00 0. -1.
          1   -1    0    0  501    0 -0.00000000000E+00 -0.00000000000E+00 -0.16725191839E+03  0.16725191839E+03  0.00000000000E+00 0. -1.
         25    2    1    2    0    0  0.50677880488E+02  0.12741246362E+03  0.11807380791E+03  0.21993078574E+03  0.12500377172E+03 0.  0.
          2    1    1    2  501    0  0.11533478088E+02  0.51155777463E+02 -0.43282905997E+02  0.67995180978E+02  0.00000000000E+00 0. -1.
          1    1    1    2  502    0 -0.62211358577E+02 -0.17856824109E+03  0.86622327577E+02  0.20799109956E+03  0.00000000000E+00 0. -1.
         22    1    3    3    0    0  0.52628870077E+01  0.11332863765E+03  0.26131957273E+02  0.11642146401E+03  0.00000000000E+00 0.  1.
         22    1    3    3    0    0  0.45414993480E+02  0.14083825976E+02  0.91941850640E+02  0.10350932173E+03  0.00000000000E+00 0.  1.
</event>
<event>
 7    1  0.5950675E-006  0.4616385E+02  0.7818608E-02  0.1572487E+00
          2   -1    0    0  502    0  0.00000000000E+00  0.00000000000E+00  0.14344253916E+04  0.14344253916E+04  0.00000000000E+00 0. -1.
          1   -1    0    0  501    0 -0.00000000000E+00 -0.00000000000E+00 -0.40311116532E+02  0.40311116532E+02  0.00000000000E+00 0. -1.
         25    2    1    2    0    0  0.34953956906E+02  0.47500174771E+02  0.10402875280E+04  0.10494293748E+04  0.12500330443E+03 0.  0.
          2    1    1    2  501    0 -0.38658713021E+02 -0.24993143012E+02 -0.20424211248E+02  0.50361708620E+02  0.00000000000E+00 0. -1.
          1    1    1    2  502    0  0.37047561143E+01 -0.22507031759E+02  0.37425095824E+03  0.37494542461E+03  0.00000000000E+00 0. -1.
         22    1    3    3    0    0 -0.44737804101E+02  0.21914035471E+02  0.26542178895E+03  0.27005633137E+03  0.00000000000E+00 0.  1.
         22    1    3    3    0    0  0.79691761008E+02  0.25586139300E+02  0.77486573908E+03  0.77937304347E+03  0.00000000000E+00 0.  1.
</event>
<event>
 7    1  0.5950675E-006  0.5452138E+02  0.7818608E-02  0.1436133E+00
          2   -1    0    0  502    0  0.00000000000E+00  0.00000000000E+00  0.91680722545E+03  0.91680722545E+03  0.00000000000E+00 0. -1.
          1   -1    0    0  501    0 -0.00000000000E+00 -0.00000000000E+00 -0.56940348348E+02  0.56940348348E+02  0.00000000000E+00 0. -1.
         25    2    1    2    0    0 -0.58900235090E+01 -0.12780134771E+02  0.36104694480E+03  0.38233109239E+03  0.12499657448E+03 0.  0.
          2    1    1    2  501    0  0.50881801717E+02 -0.19586304669E+02 -0.28274001470E+02  0.61416612050E+02  0.00000000000E+00 0. -1.
          1    1    1    2  502    0 -0.44991778208E+02  0.32366439441E+02  0.52709393377E+03  0.52999986936E+03  0.00000000000E+00 0. -1.
         22    1    3    3    0    0  0.59167965632E+02 -0.11042122498E+02  0.19080795744E+03  0.20007611864E+03  0.00000000000E+00 0.  1.
         22    1    3    3    0    0 -0.65057989141E+02 -0.17380122739E+01  0.17023898736E+03  0.18225497374E+03  0.00000000000E+00 0.  1.
</event>
<event>
 7    1  0.5950675E-006  0.5212656E+02  0.7818608E-02  0.1441501E+00
          2   -1    0    0  502    0  0.00000000000E+00  0.00000000000E+00  0.15026299351E+04  0.15026299351E+04  0.00000000000E+00 0. -1.
          1   -1    0    0  501    0 -0.00000000000E+00 -0.00000000000E+00 -0.35935152687E+03  0.35935152687E+03  0.00000000000E+00 0. -1.
         25    2    1    2    0    0  0.27511430884E+02 -0.69271944314E+02 -0.64437121234E+01  0.14568506718E+03  0.12500854480E+03 0.  0.
          2    1    1    2  501    0  0.17458207136E+02  0.48946990388E+02 -0.28047470419E+03  0.28524841201E+03  0.00000000000E+00 0. -1.
          1    1    1    2  502    0 -0.44969638020E+02  0.20324953927E+02  0.14301968246E+04  0.14310479828E+04  0.00000000000E+00 0. -1.
         22    1    3    3    0    0  0.96200426002E+01 -0.45085720385E+02  0.58281286058E+02  0.74309997354E+02  0.00000000000E+00 0. -1.
         22    1    3    3    0    0  0.17891388284E+02 -0.24186223929E+02 -0.64724998181E+02  0.71375069823E+02  0.00000000000E+00 0. -1.
</event>
<event>
 7    1  0.5950675E-006  0.3171795E+03  0.7818608E-02  0.1134529E+00
          2   -1    0    0  502    0  0.00000000000E+00  0.00000000000E+00  0.17825304908E+04  0.17825304908E+04  0.00000000000E+00 0. -1.
          1   -1    0    0  501    0 -0.00000000000E+00 -0.00000000000E+00 -0.29840468264E+04  0.29840468264E+04  0.00000000000E+00 0. -1.
         25    2    1    2    0    0 -0.23247386383E+03 -0.38851137753E+03  0.10174338323E+03  0.48058467896E+03  0.12499891914E+03 0.  0.
          2    1    1    2  501    0  0.49620905494E+02  0.14303634430E+03 -0.27768363859E+04  0.27809606153E+04  0.00000000000E+00 0. -1.
          1    1    1    2  502    0  0.18285295833E+03  0.24547503323E+03  0.14735766670E+04  0.15050320229E+04  0.00000000000E+00 0. -1.
         22    1    3    3    0    0 -0.11540556129E+03 -0.10951094823E+03 -0.65316748068E+01  0.15922862222E+03  0.00000000000E+00 0.  1.
         22    1    3    3    0    0 -0.11706830254E+03 -0.27900042930E+03  0.10827505804E+03  0.32135605674E+03  0.00000000000E+00 0.  1.
</event>
<event>
 7    1  0.5950675E-006  0.5768118E+02  0.7818608E-02  0.1552065E+00
          2   -1    0    0  502    0  0.00000000000E+00  0.00000000000E+00  0.17195846696E+03  0.17195846696E+03  0.00000000000E+00 0. -1.
          1   -1    0    0  501    0 -0.00000000000E+00 -0.00000000000E+00 -0.17505208710E+04  0.17505208710E+04  0.00000000000E+00 0. -1.
         25    2    1    2    0    0  0.20903954911E+02  0.68434302260E+02 -0.15929081829E+04  0.15994064498E+04  0.12499713338E+03 0.  0.
          2    1    1    2  501    0 -0.17693160441E+02 -0.10879229358E+02 -0.14869659436E+03  0.15014021024E+03  0.00000000000E+00 0. -1.
          1    1    1    2  502    0 -0.32107944696E+01 -0.57555072902E+02  0.16304237325E+03  0.17293267792E+03  0.00000000000E+00 0. -1.
         22    1    3    3    0    0  0.51738081102E+02  0.91743374250E+02 -0.11463382635E+04  0.11511668385E+04  0.00000000000E+00 0. -1.
         22    1    3    3    0    0 -0.30834126191E+02 -0.23309071990E+02 -0.44656991939E+03  0.44823961123E+03  0.00000000000E+00 0. -1.
</event>
<event>
 7    1  0.5950675E-006  0.1094096E+03  0.7818608E-02  0.1368286E+00
          2   -1    0    0  502    0  0.00000000000E+00  0.00000000000E+00  0.13171735702E+04  0.13171735702E+04  0.00000000000E+00 0. -1.
          1   -1    0    0  501    0 -0.00000000000E+00 -0.00000000000E+00 -0.40906485349E+03  0.40906485349E+03  0.00000000000E+00 0. -1.
         25    2    1    2    0    0 -0.59069266751E+02  0.13276598259E+03  0.17979794255E+03  0.26278573276E+03  0.12495221803E+03 0.  0.
          2    1    1    2  501    0  0.29419637149E+02 -0.29728142229E+02 -0.36374725133E+03  0.36614387929E+03  0.00000000000E+00 0. -1.
          1    1    1    2  502    0  0.29649629602E+02 -0.10303784036E+03  0.10920580254E+04  0.10973088116E+04  0.00000000000E+00 0. -1.
         22    1    3    3    0    0  0.31332618415E+02  0.32367671701E+01  0.16368296421E+02  0.35498320611E+02  0.00000000000E+00 0.  1.
         22    1    3    3    0    0 -0.90401885166E+02  0.12952921542E+03  0.16342964613E+03  0.22728741215E+03  0.00000000000E+00 0.  1.
</event>
<event>
 7    1  0.5950675E-006  0.1010673E+03  0.7818608E-02  0.1354639E+00
          2   -1    0    0  502    0  0.00000000000E+00  0.00000000000E+00  0.68910004959E+02  0.68910004959E+02  0.00000000000E+00 0. -1.
          1   -1    0    0  501    0 -0.00000000000E+00 -0.00000000000E+00 -0.45251427724E+03  0.45251427724E+03  0.00000000000E+00 0. -1.
         25    2    1    2    0    0 -0.34154671776E+02  0.92362919873E+02 -0.15481178693E+03  0.22201432585E+03  0.12500488366E+03 0.  0.
          2    1    1    2  501    0  0.79274538681E+02 -0.69096060489E+02 -0.22516898922E+03  0.24851517411E+03  0.00000000000E+00 0. -1.
          1    1    1    2  502    0 -0.45119866905E+02 -0.23266859384E+02 -0.36234961407E+01  0.50894782241E+02  0.00000000000E+00 0. -1.
         22    1    3    3    0    0  0.28152583511E+02  0.57407549266E+01  0.56805851801E+01  0.29288108055E+02  0.00000000000E+00 0.  1.
         22    1    3    3    0    0 -0.62307255287E+02  0.86622164946E+02 -0.16049237211E+03  0.19272621780E+03  0.00000000000E+00 0.  1.
</event>
<event>
 7    1  0.5950675E-006  0.1248745E+03  0.7818608E-02  0.1393021E+00
          2   -1    0    0  502    0  0.00000000000E+00  0.00000000000E+00  0.25771318467E+04  0.25771318467E+04  0.00000000000E+00 0. -1.
          1   -1    0    0  501    0 -0.00000000000E+00 -0.00000000000E+00 -0.13581388110E+03  0.13581388110E+03  0.00000000000E+00 0. -1.
         25    2    1    2    0    0  0.11447011259E+03  0.10074873968E+03  0.22515913412E+04  0.22602084550E+04  0.12499990909E+03 0.  0.
          2    1    1    2  501    0 -0.99580306633E+02 -0.74755316104E+02 -0.10108724860E+03  0.16038462078E+03  0.00000000000E+00 0. -1.
          1    1    1    2  502    0 -0.14889805960E+02 -0.25993423577E+02  0.29081387296E+03  0.29235265194E+03  0.00000000000E+00 0. -1.
         22    1    3    3    0    0  0.13652013316E+03  0.83662980064E+02  0.20982650645E+04  0.21043653490E+04  0.00000000000E+00 0. -1.
         22    1    3    3    0    0 -0.22050020566E+02  0.17085759617E+02  0.15332627665E+03  0.15584310604E+03  0.00000000000E+00 0. -1.
</event>
<event>
 7    1  0.5950675E-006  0.1948871E+03  0.7818608E-02  0.1299195E+00
          2   -1    0    0  502    0  0.00000000000E+00  0.00000000000E+00  0.14382948515E+04  0.14382948515E+04  0.00000000000E+00 0. -1.
          1   -1    0    0  501    0 -0.00000000000E+00 -0.00000000000E+00 -0.40747236469E+03  0.40747236469E+03  0.00000000000E+00 0. -1.
         25    2    1    2    0    0 -0.11932374048E+03  0.10037730762E+03  0.28643433944E+03  0.34926343255E+03  0.12500622216E+03 0.  0.
          2    1    1    2  501    0  0.15745778411E+03 -0.12021400633E+03 -0.34951707911E+03  0.40175433997E+03  0.00000000000E+00 0. -1.
          1    1    1    2  502    0 -0.38134043629E+02  0.19836698708E+02  0.10939052265E+04  0.10947494437E+04  0.00000000000E+00 0. -1.
         22    1    3    3    0    0 -0.21957313498E+02  0.90807122688E+02  0.19083052410E+03  0.21247198892E+03  0.00000000000E+00 0.  1.
         22    1    3    3    0    0 -0.97366426983E+02  0.95701849315E+01  0.95603815336E+02  0.13679144363E+03  0.00000000000E+00 0.  1.
</event>
<event>
 7    1  0.5950675E-006  0.1135726E+03  0.7818608E-02  0.1397507E+00
          2   -1    0    0  502    0  0.00000000000E+00  0.00000000000E+00  0.13703608228E+04  0.13703608228E+04  0.00000000000E+00 0. -1.
          1   -1    0    0  501    0 -0.00000000000E+00 -0.00000000000E+00 -0.21071729180E+04  0.21071729180E+04  0.00000000000E+00 0. -1.
         25    2    1    2    0    0 -0.59012850364E+02  0.11480631755E+03  0.81714954714E-01  0.17968505126E+03  0.12499481553E+03 0.  0.
          2    1    1    2  501    0  0.73336050610E+02 -0.86437572088E+02 -0.20155812951E+04  0.20187663528E+04  0.00000000000E+00 0. -1.
          1    1    1    2  502    0 -0.14323200245E+02 -0.28368745464E+02  0.12786874849E+04  0.12790823366E+04  0.00000000000E+00 0. -1.
         22    1    3    3    0    0  0.34064883521E+02  0.14893166918E+02 -0.19093494599E+02  0.41794548043E+02  0.00000000000E+00 0.  1.
         22    1    3    3    0    0 -0.93077733885E+02  0.99913150633E+02  0.19175209553E+02  0.13789050321E+03  0.00000000000E+00 0.  1.
</event>
<event>
 7    1  0.5950675E-006  0.4632107E+02  0.7818608E-02  0.1507050E+00
          2   -1    0    0  502    0  0.00000000000E+00  0.00000000000E+00  0.22058131449E+04  0.22058131449E+04  0.00000000000E+00 0. -1.
          1   -1    0    0  501    0 -0.00000000000E+00 -0.00000000000E+00 -0.17146992211E+03  0.17146992211E+03  0.00000000000E+00 0. -1.
         25    2    1    2    0    0  0.48580640110E+02  0.62655976078E+02  0.17686948499E+02  0.14907632374E+03  0.12500028888E+03 0.  0.
          2    1    1    2  501    0 -0.27513628527E+02 -0.34937946604E+02 -0.10095161029E+03  0.11031268054E+03  0.00000000000E+00 0. -1.
          1    1    1    2  502    0 -0.21067011584E+02 -0.27718029474E+02  0.21176078845E+04  0.21178940627E+04  0.00000000000E+00 0. -1.
         22    1    3    3    0    0  0.11608886872E+01  0.39448809968E+02 -0.49704865995E+02  0.63467550560E+02  0.00000000000E+00 0. -1.
         22    1    3    3    0    0  0.47419751423E+02  0.23207166110E+02  0.67391814494E+02  0.85608773176E+02  0.00000000000E+00 0. -1.
</event>
<event>
 7    1  0.5950675E-006  0.6888434E+02  0.7818608E-02  0.1398401E+00
          2   -1    0    0  502    0  0.00000000000E+00  0.00000000000E+00  0.13887869562E+04  0.13887869562E+04  0.00000000000E+00 0. -1.
          1   -1    0    0  501    0 -0.00000000000E+00 -0.00000000000E+00 -0.25092790568E+03  0.25092790568E+03  0.00000000000E+00 0. -1.
         25    2    1    2    0    0 -0.22061205477E+02  0.45879380874E+02  0.69036161523E+01  0.13514517606E+03  0.12499977728E+03 0.  0.
          2    1    1    2  501    0  0.68515694203E+02 -0.22455931921E+02 -0.17931434627E+03  0.19326744166E+03  0.00000000000E+00 0. -1.
          1    1    1    2  502    0 -0.46454488726E+02 -0.23423448953E+02  0.13102697806E+04  0.13113022441E+04  0.00000000000E+00 0. -1.
         22    1    3    3    0    0  0.40236857540E+02  0.14458040570E+02 -0.33679561559E+02  0.54427497725E+02  0.00000000000E+00 0. -1.
         22    1    3    3    0    0 -0.62298063017E+02  0.31421340304E+02  0.40583177711E+02  0.80717678332E+02  0.00000000000E+00 0. -1.
</event>
<event>
 7    1  0.5950675E-006  0.1120346E+03  0.7818608E-02  0.1257104E+00
          2   -1    0    0  502    0  0.00000000000E+00  0.00000000000E+00  0.31200600246E+03  0.31200600246E+03  0.00000000000E+00 0. -1.
          1   -1    0    0  501    0 -0.00000000000E+00 -0.00000000000E+00 -0.40453459228E+03  0.40453459228E+03  0.00000000000E+00 0. -1.
         25    2    1    2    0    0  0.46106220178E+01  0.10827712640E+03 -0.86172253630E+02  0.18653652900E+03  0.12500010168E+03 0.  0.
          2    1    1    2  501    0  0.10160326116E+03 -0.73533503933E+02 -0.24011979199E+03  0.27090203651E+03  0.00000000000E+00 0. -1.
          1    1    1    2  502    0 -0.10621388318E+03 -0.34743622465E+02  0.23376345580E+03  0.25910202923E+03  0.00000000000E+00 0. -1.
         22    1    3    3    0    0  0.63979877017E+01  0.51003310500E+02 -0.11234068881E+03  0.12354230972E+03  0.00000000000E+00 0. -1.
         22    1    3    3    0    0 -0.17873656839E+01  0.57273815899E+02  0.26168435178E+02  0.62994219285E+02  0.00000000000E+00 0. -1.
</event>
<event>
 7    1  0.5950675E-006  0.8538394E+02  0.7818608E-02  0.1355084E+00
          2   -1    0    0  502    0  0.00000000000E+00  0.00000000000E+00  0.25805483668E+03  0.25805483668E+03  0.00000000000E+00 0. -1.
          1   -1    0    0  501    0 -0.00000000000E+00 -0.00000000000E+00 -0.64870853420E+03  0.64870853420E+03  0.00000000000E+00 0. -1.
         25    2    1    2    0    0  0.83276614752E+02  0.95372035394E+02 -0.89878710128E+02  0.19933019831E+03  0.12499410275E+03 0.  0.
          2    1    1    2  501    0 -0.79704606587E+01 -0.59330939037E+02 -0.49364908571E+03  0.49726563162E+03  0.00000000000E+00 0. -1.
          1    1    1    2  502    0 -0.75306154093E+02 -0.36041096357E+02  0.19287409831E+03  0.21016754095E+03  0.00000000000E+00 0. -1.
         22    1    3    3    0    0 -0.17893100096E+02 -0.15998952063E+02  0.12578333737E+00  0.24003027301E+02  0.00000000000E+00 0. -1.
         22    1    3    3    0    0  0.10116971485E+03  0.11137098746E+03 -0.90004493465E+02  0.17532717101E+03  0.00000000000E+00 0. -1.
</event>
<event>
 7    1  0.5950675E-006  0.2643728E+03  0.7818608E-02  0.1307415E+00
          2   -1    0    0  502    0  0.00000000000E+00  0.00000000000E+00  0.17597481199E+04  0.17597481199E+04  0.00000000000E+00 0. -1.
          1   -1    0    0  501    0 -0.00000000000E+00 -0.00000000000E+00 -0.13051254493E+03  0.13051254493E+03  0.00000000000E+00 0. -1.
         25    2    1    2    0    0 -0.62671438370E+01  0.25456718038E+03  0.98509668718E+03  0.10251266633E+04  0.12500186499E+03 0.  0.
          2    1    1    2  501    0  0.34124713977E+02 -0.26392259562E+03  0.50623809123E+02  0.27089186521E+03  0.00000000000E+00 0. -1.
          1    1    1    2  502    0 -0.27857570140E+02  0.93554152432E+01  0.59351507871E+03  0.59424213640E+03  0.00000000000E+00 0. -1.
         22    1    3    3    0    0  0.45198991825E+02  0.59176348376E+02  0.37874191757E+03  0.38599252479E+03  0.00000000000E+00 0.  1.
         22    1    3    3    0    0 -0.51466135662E+02  0.19539083201E+03  0.60635476961E+03  0.63913413848E+03  0.00000000000E+00 0.  1.
</event>
<event>
 7    1  0.5950675E-006  0.9219799E+02  0.7818608E-02  0.1325583E+00
          2   -1    0    0  502    0  0.00000000000E+00  0.00000000000E+00  0.25634265950E+04  0.25634265950E+04  0.00000000000E+00 0. -1.
          1   -1    0    0  501    0 -0.00000000000E+00 -0.00000000000E+00 -0.24041488839E+02  0.24041488839E+02  0.00000000000E+00 0. -1.
         25    2    1    2    0    0  0.81585229713E+02  0.20274689754E+02  0.95192955402E+03  0.96377214807E+03  0.12497865749E+03 0.  0.
          2    1    1    2  501    0 -0.48346826254E+02 -0.83664517452E+02  0.11807949439E+03  0.15257763298E+03  0.00000000000E+00 0. -1.
          1    1    1    2  502    0 -0.33238403460E+02  0.63389827698E+02  0.14693760578E+04  0.14711183028E+04  0.00000000000E+00 0. -1.
         22    1    3    3    0    0  0.61103435135E+02 -0.44213066353E+02  0.34892337121E+03  0.35698171381E+03  0.00000000000E+00 0.  1.
         22    1    3    3    0    0  0.20481794578E+02  0.64487756107E+02  0.60300618281E+03  0.60679043426E+03  0.00000000000E+00 0.  1.
</event>
<event>
 7    1  0.5950675E-006  0.8281443E+02  0.7818608E-02  0.1421853E+00
          2   -1    0    0  502    0  0.00000000000E+00  0.00000000000E+00  0.41568786437E+04  0.41568786437E+04  0.00000000000E+00 0. -1.
          1   -1    0    0  501    0 -0.00000000000E+00 -0.00000000000E+00 -0.11504244675E+04  0.11504244675E+04  0.00000000000E+00 0. -1.
         25    2    1    2    0    0  0.11357618446E+03  0.14409327344E+02 -0.37077374624E+03  0.40768276383E+03  0.12499954651E+03 0.  0.
          2    1    1    2  501    0 -0.34550968409E+02  0.10247868855E+02 -0.76035539221E+03  0.76120897965E+03  0.00000000000E+00 0. -1.
          1    1    1    2  502    0 -0.79025216051E+02 -0.24657196198E+02  0.41375833147E+04  0.41384113676E+04  0.00000000000E+00 0. -1.
         22    1    3    3    0    0  0.61681035631E+02 -0.32098615125E+02 -0.30153345161E+03  0.30944675421E+03  0.00000000000E+00 0.  1.
         22    1    3    3    0    0  0.51895148830E+02  0.46507942469E+02 -0.69240294630E+02  0.98236009616E+02  0.00000000000E+00 0.  1.
</event>
<event>
 7    1  0.5950675E-006  0.8133356E+02  0.7818608E-02  0.1425034E+00
          2   -1    0    0  502    0  0.00000000000E+00  0.00000000000E+00  0.26618287970E+04  0.26618287970E+04  0.00000000000E+00 0. -1.
          1   -1    0    0  501    0 -0.00000000000E+00 -0.00000000000E+00 -0.37601168412E+03  0.37601168412E+03  0.00000000000E+00 0. -1.
         25    2    1    2    0    0  0.47418855068E+01  0.77653549254E+02  0.32745788938E+03  0.35902866156E+03  0.12498140388E+03 0.  0.
          2    1    1    2  501    0 -0.39935761369E+02 -0.71027003586E+02 -0.35547795613E+03  0.36469751517E+03  0.00000000000E+00 0. -1.
          1    1    1    2  502    0  0.35193875862E+02 -0.66265456676E+01  0.23138371796E+04  0.23141143044E+04  0.00000000000E+00 0. -1.
         22    1    3    3    0    0  0.15034487694E+02  0.65614782317E+02  0.33485037931E+03  0.34154957473E+03  0.00000000000E+00 0. -1.
         22    1    3    3    0    0 -0.10292602187E+02  0.12038766937E+02 -0.73924899248E+01  0.17479086830E+02  0.00000000000E+00 0. -1.
</event>
<event>
 7    1  0.5950675E-006  0.8003206E+02  0.7818608E-02  0.1394030E+00
          2   -1    0    0  502    0  0.00000000000E+00  0.00000000000E+00  0.13625192470E+04  0.13625192470E+04  0.00000000000E+00 0. -1.
          1   -1    0    0  501    0 -0.00000000000E+00 -0.00000000000E+00 -0.93380047177E+03  0.93380047177E+03  0.00000000000E+00 0. -1.
         25    2    1    2    0    0  0.96013628077E+02  0.81564761713E+02  0.20809554453E+03  0.27349391114E+03  0.12499494650E+03 0.  0.
          2    1    1    2  501    0 -0.59323372098E+02 -0.53218258620E+02 -0.89885835532E+03  0.90238450145E+03  0.00000000000E+00 0. -1.
          1    1    1    2  502    0 -0.36690255979E+02 -0.28346503093E+02  0.11194815860E+04  0.11204413061E+04  0.00000000000E+00 0. -1.
         22    1    3    3    0    0  0.12191334256E+03  0.43409214107E+02  0.17016373158E+03  0.21378240926E+03  0.00000000000E+00 0. -1.
         22    1    3    3    0    0 -0.25899714485E+02  0.38155547606E+02  0.37931812955E+02  0.59711501887E+02  0.00000000000E+00 0. -1.
</event>
<event>
 7    1  0.5950675E-006  0.5779966E+03  0.7818608E-02  0.1191456E+00
          2   -1    0    0  502    0  0.00000000000E+00  0.00000000000E+00  0.26183386582E+04  0.26183386582E+04  0.00000000000E+00 0. -1.
          1   -1    0    0  501    0 -0.00000000000E+00 -0.00000000000E+00 -0.60829355531E+03  0.60829355531E+03  0.00000000000E+00 0. -1.
         25    2    1    2    0    0 -0.15963424781E+03  0.51516250766E+03  0.17734133500E+04  0.18578199856E+04  0.12499874591E+03 0.  0.
          2    1    1    2  501    0  0.18160279975E+03 -0.55208226227E+03 -0.41602782916E+03  0.71474020163E+03  0.00000000000E+00 0. -1.
          1    1    1    2  502    0 -0.21968551946E+02  0.36919754611E+02  0.65265958202E+03  0.65407202628E+03  0.00000000000E+00 0. -1.
         22    1    3    3    0    0 -0.11789337560E+03  0.49191611815E+03  0.16194272903E+04  0.16965921914E+04  0.00000000000E+00 0.  1.
         22    1    3    3    0    0 -0.41740872201E+02  0.23246389509E+02  0.15398605969E+03  0.16122779418E+03  0.00000000000E+00 0.  1.
</event>
<event>
 7    1  0.5950675E-006  0.1348723E+03  0.7818608E-02  0.1329707E+00
          2   -1    0    0  502    0  0.00000000000E+00  0.00000000000E+00  0.18421621908E+04  0.18421621908E+04  0.00000000000E+00 0. -1.
          1   -1    0    0  501    0 -0.00000000000E+00 -0.00000000000E+00 -0.27864013906E+03  0.27864013906E+03  0.00000000000E+00 0. -1.
         25    2    1    2    0    0 -0.20501904769E+02 -0.12937689704E+03  0.96751518808E+03  0.98431158747E+03  0.12499980986E+03 0.  0.
          2    1    1    2  501    0  0.66221610079E+02  0.11773295460E+03 -0.25266608644E+03  0.28650741958E+03  0.00000000000E+00 0. -1.
          1    1    1    2  502    0 -0.45719705311E+02  0.11643942435E+02  0.84867295008E+03  0.84998332280E+03  0.00000000000E+00 0. -1.
         22    1    3    3    0    0  0.35976728557E+02 -0.10643557240E+03  0.47858768932E+03  0.49159844634E+03  0.00000000000E+00 0. -1.
         22    1    3    3    0    0 -0.56478633326E+02 -0.22941324638E+02  0.48892749876E+03  0.49271314113E+03  0.00000000000E+00 0. -1.
</event>
<event>
 7    1  0.5950675E-006  0.6915794E+02  0.7818608E-02  0.1409021E+00
          2   -1    0    0  502    0  0.00000000000E+00  0.00000000000E+00  0.34211944120E+03  0.34211944120E+03  0.00000000000E+00 0. -1.
          1   -1    0    0  501    0 -0.00000000000E+00 -0.00000000000E+00 -0.94368080445E+02  0.94368080445E+02  0.00000000000E+00 0. -1.
         25    2    1    2    0    0  0.10100062194E+02  0.90222470637E+02  0.20513067946E+03  0.25679783457E+03  0.12499770686E+03 0.  0.
          2    1    1    2  501    0  0.28429069305E+02 -0.62165293503E+02 -0.43666383320E+02  0.81114047675E+02  0.00000000000E+00 0. -1.
          1    1    1    2  502    0 -0.38529131499E+02 -0.28057177133E+02  0.86287064606E+02  0.98575639390E+02  0.00000000000E+00 0. -1.
         22    1    3    3    0    0  0.55131801796E+02  0.85153566602E+02  0.17532776030E+03  0.20255979119E+03  0.00000000000E+00 0.  1.
         22    1    3    3    0    0 -0.45031739602E+02  0.50689040350E+01  0.29802919162E+02  0.54238043385E+02  0.00000000000E+00 0.  1.
</event>
<event>
 7    1  0.5950675E-006  0.1281585E+03  0.7818608E-02  0.1299535E+00
          2   -1    0    0  502    0  0.00000000000E+00  0.00000000000E+00  0.23236468910E+04  0.23236468910E+04  0.00000000000E+00 0. -1.
          1   -1    0    0  501    0 -0.00000000000E+00 -0.00000000000E+00 -0.59228768361E+03  0.59228768361E+03  0.00000000000E+00 0. -1.
         25    2    1    2    0    0  0.79266264237E+02 -0.69152441191E+02 -0.38928462416E+02  0.16794636026E+03  0.12500141587E+03 0.  0.
          2    1    1    2  501    0 -0.13000496962E+03  0.28266937220E+02 -0.47931775121E+03  0.49743926110E+03  0.00000000000E+00 0. -1.
          1    1    1    2  502    0  0.50738705382E+02  0.40885503971E+02  0.22496054210E+04  0.22505489532E+04  0.00000000000E+00 0. -1.
         22    1    3    3    0    0  0.12308712335E+02  0.18289827105E+02 -0.52536875093E+02  0.56974954317E+02  0.00000000000E+00 0.  1.
         22    1    3    3    0    0  0.66957551903E+02 -0.87442268296E+02  0.13608412677E+02  0.11097140594E+03  0.00000000000E+00 0.  1.
</event>
<event>
 7    1  0.7632977E-006  0.9271613E+02  0.7818608E-02  0.1338550E+00
          2   -1    0    0  502    0  0.00000000000E+00  0.00000000000E+00  0.13710017151E+04  0.13710017151E+04  0.00000000000E+00 0. -1.
          1   -1    0    0  501    0 -0.00000000000E+00 -0.00000000000E+00 -0.17139637160E+04  0.17139637160E+04  0.00000000000E+00 0. -1.
         25    2    1    2    0    0  0.15072214011E+03 -0.37704500052E+02 -0.32842456822E+02  0.20209519063E+03  0.12500018505E+03 0.  0.
          2    1    1    2  501    0 -0.61649716951E+02  0.15322595796E+02 -0.15942222433E+04  0.15954873960E+04  0.00000000000E+00 0. -1.
          1    1    1    2  502    0 -0.89072423161E+02  0.22381904256E+02  0.12841026992E+04  0.12873828445E+04  0.00000000000E+00 0. -1.
         22    1    3    3    0    0  0.12835547939E+03  0.14301484016E+02  0.12236365293E+02  0.12972813947E+03  0.00000000000E+00 0. -1.
         22    1    3    3    0    0  0.22366660726E+02 -0.52005984068E+02 -0.45078822115E+02  0.72367051164E+02  0.00000000000E+00 0. -1.
</event>
<event>
 7    1  0.5950675E-006  0.7501817E+02  0.7818608E-02  0.1408184E+00
          2   -1    0    0  502    0  0.00000000000E+00  0.00000000000E+00  0.18562612558E+04  0.18562612558E+04  0.00000000000E+00 0. -1.
          1   -1    0    0  501    0 -0.00000000000E+00 -0.00000000000E+00 -0.14536669942E+03  0.14536669942E+03  0.00000000000E+00 0. -1.
         25    2    1    2    0    0 -0.28581099566E+02 -0.19904679176E+02  0.29796669744E+03  0.32499523075E+03  0.12499868687E+03 0.  0.
          2    1    1    2  501    0  0.47781962732E+02  0.59747185101E+02 -0.12040933449E+03  0.14265780708E+03  0.00000000000E+00 0. -1.
          1    1    1    2  502    0 -0.19200863166E+02 -0.39842505925E+02  0.15333371934E+04  0.15339749174E+04  0.00000000000E+00 0. -1.
         22    1    3    3    0    0 -0.33077669282E+02 -0.43796637494E+02  0.45307681835E+02  0.71169260880E+02  0.00000000000E+00 0. -1.
         22    1    3    3    0    0  0.44965697163E+01  0.23891958319E+02  0.25265901561E+03  0.25382596987E+03  0.00000000000E+00 0. -1.
</event>
<event>
 7    1  0.5950675E-006  0.5853464E+02  0.7818608E-02  0.1458185E+00
          2   -1    0    0  502    0  0.00000000000E+00  0.00000000000E+00  0.30292331242E+03  0.30292331242E+03  0.00000000000E+00 0. -1.
          1   -1    0    0  501    0 -0.00000000000E+00 -0.00000000000E+00 -0.15731642401E+03  0.15731642401E+03  0.00000000000E+00 0. -1.
         25    2    1    2    0    0 -0.46290677560E+01  0.60308377821E+02  0.12199583520E+03  0.18484156406E+03  0.12499956517E+03 0.  0.
          2    1    1    2  501    0 -0.35638719096E+02 -0.15499021867E+02 -0.11653915493E+03  0.12284833173E+03  0.00000000000E+00 0. -1.
          1    1    1    2  502    0  0.40267786852E+02 -0.44809355955E+02  0.14015020814E+03  0.15254984064E+03  0.00000000000E+00 0. -1.
         22    1    3    3    0    0 -0.30156243840E+02 -0.29800404834E+02  0.56140631951E+02  0.70350790519E+02  0.00000000000E+00 0. -1.
         22    1    3    3    0    0  0.25527176084E+02  0.90108782655E+02  0.65855203251E+02  0.11449077354E+03  0.00000000000E+00 0. -1.
</event>
<event>
 7    1  0.5950675E-006  0.7338228E+02  0.7818608E-02  0.1360214E+00
          2   -1    0    0  502    0  0.00000000000E+00  0.00000000000E+00  0.12396793709E+04  0.12396793709E+04  0.00000000000E+00 0. -1.
          1   -1    0    0  501    0 -0.00000000000E+00 -0.00000000000E+00 -0.40273181551E+03  0.40273181551E+03  0.00000000000E+00 0. -1.
         25    2    1    2    0    0 -0.88465103978E+02 -0.94730973067E+02 -0.92439088575E+01  0.18030686942E+03  0.12500034171E+03 0.  0.
          2    1    1    2  501    0  0.60826287539E+02  0.27382832398E+02 -0.30317904180E+03  0.31043064950E+03  0.00000000000E+00 0. -1.
          1    1    1    2  502    0  0.27638816439E+02  0.67348140669E+02  0.11493705060E+04  0.11516736675E+04  0.00000000000E+00 0. -1.
         22    1    3    3    0    0 -0.89034979738E+02 -0.12201634498E+03 -0.16827434013E+02  0.15198150741E+03  0.00000000000E+00 0.  1.
         22    1    3    3    0    0  0.56987576028E+00  0.27285371915E+02  0.75835251555E+01  0.28325362005E+02  0.00000000000E+00 0.  1.
</event>
<event>
 7    1  0.5950675E-006  0.7678389E+02  0.7818608E-02  0.1354431E+00
          2   -1    0    0  502    0  0.00000000000E+00  0.00000000000E+00  0.41727607950E+03  0.41727607950E+03  0.00000000000E+00 0. -1.
          1   -1    0    0  501    0 -0.00000000000E+00 -0.00000000000E+00 -0.74486859514E+03  0.74486859514E+03  0.00000000000E+00 0. -1.
         25    2    1    2    0    0  0.12682589419E+03 -0.83253765505E+01 -0.14955293244E+03  0.23268753174E+03  0.12499315379E+03 0.  0.
          2    1    1    2  501    0 -0.60461032661E+02 -0.28726357307E+02 -0.54784612212E+03  0.55192038701E+03  0.00000000000E+00 0. -1.
          1    1    1    2  502    0 -0.66364861530E+02  0.37051733858E+02  0.36980653891E+03  0.37753675589E+03  0.00000000000E+00 0. -1.
         22    1    3    3    0    0  0.82000240917E+02  0.96266673528E+01 -0.16286689499E+03  0.18259884369E+03  0.00000000000E+00 0.  1.
         22    1    3    3    0    0  0.44825653273E+02 -0.17952043903E+02  0.13313962549E+02  0.50088688049E+02  0.00000000000E+00 0.  1.
</event>
<event>
 7    1  0.5950675E-006  0.1768732E+03  0.7818608E-02  0.1365312E+00
          2   -1    0    0  502    0  0.00000000000E+00  0.00000000000E+00  0.43746339525E+03  0.43746339525E+03  0.00000000000E+00 0. -1.
          1   -1    0    0  501    0 -0.00000000000E+00 -0.00000000000E+00 -0.93616837033E+03  0.93616837033E+03  0.00000000000E+00 0. -1.
         25    2    1    2    0    0  0.56247808463E+02 -0.17350645048E+03 -0.77389019671E+03  0.80486082667E+03  0.12500643758E+03 0.  0.
          2    1    1    2  501    0  0.21913246145E+02  0.14936435992E+02 -0.12684507309E+03  0.12958765391E+03  0.00000000000E+00 0. -1.
          1    1    1    2  502    0 -0.78161054609E+02  0.15857001448E+03  0.40203029472E+03  0.43918328500E+03  0.00000000000E+00 0. -1.
         22    1    3    3    0    0  0.30791828052E+02 -0.18542714432E+02 -0.37627665012E+02  0.52036622753E+02  0.00000000000E+00 0.  1.
         22    1    3    3    0    0  0.25455980412E+02 -0.15496373604E+03 -0.73626253170E+03  0.75282420392E+03  0.00000000000E+00 0.  1.
</event>
<event>
 7    1  0.5950675E-006  0.5436203E+02  0.7818608E-02  0.1455181E+00
          2   -1    0    0  502    0  0.00000000000E+00  0.00000000000E+00  0.78464987502E+03  0.78464987502E+03  0.00000000000E+00 0. -1.
          1   -1    0    0  501    0 -0.00000000000E+00 -0.00000000000E+00 -0.54628279244E+03  0.54628279244E+03  0.00000000000E+00 0. -1.
         25    2    1    2    0    0 -0.19561823452E+02  0.19962736172E+02  0.97665702261E+02  0.16107624739E+03  0.12500316917E+03 0.  0.
          2    1    1    2  501    0 -0.57047344480E+01 -0.54475908013E+02 -0.51241838178E+03  0.51533752681E+03  0.00000000000E+00 0. -1.
          1    1    1    2  502    0  0.25266557900E+02  0.34513171841E+02  0.65311976210E+03  0.65451889325E+03  0.00000000000E+00 0. -1.
         22    1    3    3    0    0 -0.63374788332E+01 -0.28530874461E+02  0.10615075458E+03  0.11010066818E+03  0.00000000000E+00 0. -1.
         22    1    3    3    0    0 -0.13224344619E+02  0.48493610633E+02 -0.84850523233E+01  0.50975579209E+02  0.00000000000E+00 0. -1.
</event>
<event>
 7    1  0.5950675E-006  0.3810353E+03  0.7818608E-02  0.1237380E+00
          2   -1    0    0  502    0  0.00000000000E+00  0.00000000000E+00  0.11047003037E+04  0.11047003037E+04  0.00000000000E+00 0. -1.
          1   -1    0    0  501    0 -0.00000000000E+00 -0.00000000000E+00 -0.19366139409E+04  0.19366139409E+04  0.00000000000E+00 0. -1.
         25    2    1    2    0    0  0.38595499208E+03  0.14519947630E+03 -0.35576875315E+03  0.55878433916E+03  0.12499755253E+03 0.  0.
          2    1    1    2  501    0 -0.24819888332E+02 -0.31431769782E+02 -0.14433233683E+04  0.14438789175E+04  0.00000000000E+00 0. -1.
          1    1    1    2  502    0 -0.36113510375E+03 -0.11376770652E+03  0.96717848427E+03  0.10386509879E+04  0.00000000000E+00 0. -1.
         22    1    3    3    0    0  0.31219357596E+03  0.62271734635E+02 -0.24233001078E+03  0.40008303129E+03  0.00000000000E+00 0.  1.
         22    1    3    3    0    0  0.73761416115E+02  0.82927741663E+02 -0.11343874238E+03  0.15870130786E+03  0.00000000000E+00 0.  1.
</event>
<event>
 7    1  0.5950675E-006  0.1758205E+03  0.7818608E-02  0.1192596E+00
          2   -1    0    0  502    0  0.00000000000E+00  0.00000000000E+00  0.97537791724E+03  0.97537791724E+03  0.00000000000E+00 0. -1.
          1   -1    0    0  501    0 -0.00000000000E+00 -0.00000000000E+00 -0.12328268231E+04  0.12328268231E+04  0.00000000000E+00 0. -1.
         25    2    1    2    0    0 -0.21948839480E+03  0.20376570761E+03 -0.86349166283E+02  0.33582945314E+03  0.12501849474E+03 0.  0.
          2    1    1    2  501    0  0.95670672405E+02 -0.13956980514E+03 -0.10089272834E+04  0.10230185097E+04  0.00000000000E+00 0. -1.
          1    1    1    2  502    0  0.12381772239E+03 -0.64195902474E+02  0.83782754382E+03  0.84935677748E+03  0.00000000000E+00 0. -1.
         22    1    3    3    0    0  0.13741445241E+02 -0.13796339146E+01 -0.19000750461E+01  0.13940623810E+02  0.00000000000E+00 0.  1.
         22    1    3    3    0    0 -0.23322984004E+03  0.20514534153E+03 -0.84449091237E+02  0.32188882932E+03  0.00000000000E+00 0.  1.
</event>
<event>
 7    1  0.5950675E-006  0.1960422E+03  0.7818608E-02  0.1352954E+00
          2   -1    0    0  502    0  0.00000000000E+00  0.00000000000E+00  0.97770668361E+03  0.97770668361E+03  0.00000000000E+00 0. -1.
          1   -1    0    0  501    0 -0.00000000000E+00 -0.00000000000E+00 -0.21438618238E+04  0.21438618238E+04  0.00000000000E+00 0. -1.
         25    2    1    2    0    0 -0.14227274389E+03 -0.16401336046E+03 -0.17967566445E+03  0.30830522079E+03  0.12500739462E+03 0.  0.
          2    1    1    2  501    0  0.11726203263E+03  0.15510953475E+03 -0.18947016539E+04  0.19046531730E+04  0.00000000000E+00 0. -1.
          1    1    1    2  502    0  0.25010711261E+02  0.89038257178E+01  0.90822217813E+03  0.90861011366E+03  0.00000000000E+00 0. -1.
         22    1    3    3    0    0 -0.41476054377E+01  0.20696164205E+01 -0.62279330619E+02  0.62451588974E+02  0.00000000000E+00 0.  1.
         22    1    3    3    0    0 -0.13812513845E+03 -0.16608297688E+03 -0.11739633383E+03  0.24585363182E+03  0.00000000000E+00 0.  1.
</event>
<event>
 7    1  0.5950675E-006  0.5485868E+02  0.7818608E-02  0.1455174E+00
          2   -1    0    0  502    0  0.00000000000E+00  0.00000000000E+00  0.14503176716E+04  0.14503176716E+04  0.00000000000E+00 0. -1.
          1   -1    0    0  501    0 -0.00000000000E+00 -0.00000000000E+00 -0.83246087904E+02  0.83246087904E+02  0.00000000000E+00 0. -1.
         25    2    1    2    0    0  0.11075082805E+02 -0.20745360160E+02  0.71776801635E+01  0.12739492698E+03  0.12499968360E+03 0.  0.
          2    1    1    2  501    0 -0.28019126657E+02 -0.31807340765E+02 -0.26833243147E+01  0.42473269412E+02  0.00000000000E+00 0. -1.
          1    1    1    2  502    0  0.16944043852E+02  0.52552700925E+02  0.13625772278E+04  0.13636955631E+04  0.00000000000E+00 0. -1.
         22    1    3    3    0    0 -0.36259714332E+02 -0.54171506493E+02  0.19722976570E+02  0.68105174575E+02  0.00000000000E+00 0. -1.
         22    1    3    3    0    0  0.47334797137E+02  0.33426146333E+02 -0.12545296407E+02  0.59289752408E+02  0.00000000000E+00 0. -1.
</event>
<event>
 7    1  0.5950675E-006  0.5241104E+02  0.7818608E-02  0.1536466E+00
          2   -1    0    0  502    0  0.00000000000E+00  0.00000000000E+00  0.13640279353E+04  0.13640279353E+04  0.00000000000E+00 0. -1.
          1   -1    0    0  501    0 -0.00000000000E+00 -0.00000000000E+00 -0.22009545464E+03  0.22009545464E+03  0.00000000000E+00 0. -1.
         25    2    1    2    0    0 -0.54819770869E+02  0.49332933275E+02  0.96025158557E+02  0.17402509105E+03  0.12499982263E+03 0.  0.
          2    1    1    2  501    0  0.44813275535E+02 -0.26109871479E+02 -0.17724889516E+03  0.18468114654E+03  0.00000000000E+00 0. -1.
          1    1    1    2  502    0  0.10006495334E+02 -0.23223061796E+02  0.12251562172E+04  0.12254171523E+04  0.00000000000E+00 0. -1.
         22    1    3    3    0    0 -0.70355888877E+02  0.87557618693E+01  0.25492613749E+01  0.70944437408E+02  0.00000000000E+00 0. -1.
         22    1    3    3    0    0  0.15536118007E+02  0.40577171405E+02  0.93475897183E+02  0.10308065365E+03  0.00000000000E+00 0. -1.
</event>
<event>
 7    1  0.5950675E-006  0.1096903E+03  0.7818608E-02  0.1352832E+00
          2   -1    0    0  502    0  0.00000000000E+00  0.00000000000E+00  0.11658056840E+03  0.11658056840E+03  0.00000000000E+00 0. -1.
          1   -1    0    0  501    0 -0.00000000000E+00 -0.00000000000E+00 -0.12400294281E+04  0.12400294281E+04  0.00000000000E+00 0. -1.
         25    2    1    2    0    0  0.40480897380E+02  0.83819932611E+02 -0.92963145285E+02  0.18146547721E+03  0.12499235530E+03 0.  0.
          2    1    1    2  501    0 -0.86078321315E+02 -0.70520924676E+02 -0.10918723590E+04  0.10975280983E+04  0.00000000000E+00 0. -1.
          1    1    1    2  502    0  0.45597423935E+02 -0.13299007935E+02  0.61386644555E+02  0.77616421016E+02  0.00000000000E+00 0. -1.
         22    1    3    3    0    0 -0.34977653933E+02  0.64648082328E+02 -0.66822853703E+02  0.99338333993E+02  0.00000000000E+00 0. -1.
         22    1    3    3    0    0  0.75458551313E+02  0.19171850283E+02 -0.26140291581E+02  0.82127143220E+02  0.00000000000E+00 0. -1.
</event>
<event>
 7    1  0.5950675E-006  0.1883734E+03  0.7818608E-02  0.1295869E+00
          2   -1    0    0  502    0  0.00000000000E+00  0.00000000000E+00  0.14089699794E+04  0.14089699794E+04  0.00000000000E+00 0. -1.
          1   -1    0    0  501    0 -0.00000000000E+00 -0.00000000000E+00 -0.11885749569E+04  0.11885749569E+04  0.00000000000E+00 0. -1.
         25    2    1    2    0    0 -0.18095486287E+03  0.45601402176E+02  0.11951700960E+04  0.12160926308E+04  0.12500231145E+03 0.  0.
          2    1    1    2  501    0  0.20550631167E+01  0.45815539872E+02 -0.11279093421E+04  0.11288413400E+04  0.00000000000E+00 0. -1.
          1    1    1    2  502    0  0.17889979975E+03 -0.91416942047E+02  0.15313426858E+03  0.25261096544E+03  0.00000000000E+00 0. -1.
         22    1    3    3    0    0 -0.93187582435E+02 -0.39601496419E+02  0.48373645475E+03  0.49421975041E+03  0.00000000000E+00 0. -1.
         22    1    3    3    0    0 -0.87767280432E+02  0.85202898595E+02  0.71143364129E+03  0.72187288037E+03  0.00000000000E+00 0. -1.
</event>
<event>
 7    1  0.5950675E-006  0.7572283E+02  0.7818608E-02  0.1442711E+00
          2   -1    0    0  502    0  0.00000000000E+00  0.00000000000E+00  0.28708606749E+03  0.28708606749E+03  0.00000000000E+00 0. -1.
          1   -1    0    0  501    0 -0.00000000000E+00 -0.00000000000E+00 -0.89282587492E+02  0.89282587492E+02  0.00000000000E+00 0. -1.
         25    2    1    2    0    0  0.74877939216E+01 -0.65876421783E+02  0.20082072873E+03  0.24563411388E+03  0.12494551935E+03 0.  0.
          2    1    1    2  501    0 -0.41153524549E+02  0.65622151178E+02 -0.34358892184E+02  0.84737316338E+02  0.00000000000E+00 0. -1.
          1    1    1    2  502    0  0.33665730627E+02  0.25427060489E+00  0.31341643451E+02  0.45997224769E+02  0.00000000000E+00 0. -1.
         22    1    3    3    0    0  0.10443024056E+02 -0.95705577892E+02  0.93495043254E+02  0.13420110843E+03  0.00000000000E+00 0.  1.
         22    1    3    3    0    0 -0.29552301341E+01  0.29829156109E+02  0.10732568548E+03  0.11143300545E+03  0.00000000000E+00 0.  1.
</event>
<event>
 7    1  0.5950675E-006  0.5497729E+02  0.7818608E-02  0.1533109E+00
          2   -1    0    0  502    0  0.00000000000E+00  0.00000000000E+00  0.15936832430E+04  0.15936832430E+04  0.00000000000E+00 0. -1.
          1   -1    0    0  501    0 -0.00000000000E+00 -0.00000000000E+00 -0.11315326252E+04  0.11315326252E+04  0.00000000000E+00 0. -1.
         25    2    1    2    0    0 -0.21894033005E+02  0.21381307406E+02  0.14702266014E+02  0.12952841088E+03  0.12499977444E+03 0.  0.
          2    1    1    2  501    0 -0.19110772460E+02  0.15558399819E+02 -0.10734776353E+04  0.10737604569E+04  0.00000000000E+00 0. -1.
          1    1    1    2  502    0  0.41004805465E+02 -0.36939707225E+02  0.15209259871E+04  0.15219270003E+04  0.00000000000E+00 0. -1.
         22    1    3    3    0    0  0.39539554418E+02 -0.21905659277E+02  0.28052880235E+02  0.53199608658E+02  0.00000000000E+00 0.  1.
         22    1    3    3    0    0 -0.61433587422E+02  0.43286966683E+02 -0.13350614222E+02  0.76328802220E+02  0.00000000000E+00 0.  1.
</event>
<event>
 7    1  0.5950675E-006  0.4554995E+02  0.7818608E-02  0.1553512E+00
          2   -1    0    0  502    0  0.00000000000E+00  0.00000000000E+00  0.62903478047E+02  0.62903478047E+02  0.00000000000E+00 0. -1.
          1   -1    0    0  501    0 -0.00000000000E+00 -0.00000000000E+00 -0.72509725596E+03  0.72509725596E+03  0.00000000000E+00 0. -1.
         25    2    1    2    0    0 -0.27799240619E+02  0.34156901028E+02 -0.41301413379E+03  0.43375655883E+03  0.12499834381E+03 0.  0.
          2    1    1    2  501    0  0.44684411891E+02 -0.14307679316E+02 -0.29651790043E+03  0.30020704793E+03  0.00000000000E+00 0. -1.
          1    1    1    2  502    0 -0.16885171272E+02 -0.19849221712E+02  0.47338256300E+02  0.54037127246E+02  0.00000000000E+00 0. -1.
         22    1    3    3    0    0  0.40885575606E+02 -0.14695223488E+02 -0.90164726775E+02  0.10008625201E+03  0.00000000000E+00 0.  1.
         22    1    3    3    0    0 -0.68684816226E+02  0.48852124516E+02 -0.32284940701E+03  0.33367030683E+03  0.00000000000E+00 0.  1.
</event>
<event>
 7    1  0.5950675E-006  0.1197293E+03  0.7818608E-02  0.1297268E+00
          2   -1    0    0  502    0  0.00000000000E+00  0.00000000000E+00  0.11384777355E+04  0.11384777355E+04  0.00000000000E+00 0. -1.
          1   -1    0    0  501    0 -0.00000000000E+00 -0.00000000000E+00 -0.63514967191E+03  0.63514967191E+03  0.00000000000E+00 0. -1.
         25    2    1    2    0    0 -0.92244516625E+02 -0.84361104389E+02  0.13251163348E+03  0.22092961530E+03  0.12499886051E+03 0.  0.
          2    1    1    2  501    0  0.28808900520E+02  0.11674969394E+03 -0.58348219143E+03  0.59574483758E+03  0.00000000000E+00 0. -1.
          1    1    1    2  502    0  0.63435616105E+02 -0.32388589550E+02  0.95429862156E+03  0.95695295455E+03  0.00000000000E+00 0. -1.
         22    1    3    3    0    0 -0.59410580409E+02 -0.86701945985E+02  0.24374344863E+02  0.10789324905E+03  0.00000000000E+00 0.  1.
         22    1    3    3    0    0 -0.32833936216E+02  0.23408415959E+01  0.10813728861E+03  0.11303636625E+03  0.00000000000E+00 0.  1.
</event>
<event>
 7    1  0.5950675E-006  0.4028942E+02  0.7818608E-02  0.1568816E+00
          2   -1    0    0  502    0  0.00000000000E+00  0.00000000000E+00  0.11118427010E+04  0.11118427010E+04  0.00000000000E+00 0. -1.
          1   -1    0    0  501    0 -0.00000000000E+00 -0.00000000000E+00 -0.82734678264E+02  0.82734678264E+02  0.00000000000E+00 0. -1.
         25    2    1    2    0    0  0.44826145932E+02  0.50014429595E+01  0.53113711560E+03  0.54750933734E+03  0.12500176443E+03 0.  0.
          2    1    1    2  501    0 -0.14805982220E+02  0.22269618274E+02 -0.71405523181E+02  0.76248945883E+02  0.00000000000E+00 0. -1.
          1    1    1    2  502    0 -0.30020163712E+02 -0.27271061233E+02  0.56937643030E+03  0.57081909603E+03  0.00000000000E+00 0. -1.
         22    1    3    3    0    0  0.54264621480E+02  0.54513727169E+02  0.39317210189E+03  0.40062538275E+03  0.00000000000E+00 0.  1.
         22    1    3    3    0    0 -0.94384755477E+01 -0.49512284209E+02  0.13796501371E+03  0.14688395459E+03  0.00000000000E+00 0.  1.
</event>
<event>
 7    1  0.5950675E-006  0.7398797E+02  0.7818608E-02  0.1363500E+00
          2   -1    0    0  502    0  0.00000000000E+00  0.00000000000E+00  0.16495130814E+04  0.16495130814E+04  0.00000000000E+00 0. -1.
          1   -1    0    0  501    0 -0.00000000000E+00 -0.00000000000E+00 -0.40725076924E+03  0.40725076924E+03  0.00000000000E+00 0. -1.
         25    2    1    2    0    0  0.59997469155E+02  0.10714022863E+03  0.87400158647E+03  0.89139322935E+03  0.12499756507E+03 0.  0.
          2    1    1    2  501    0 -0.50200172601E+01 -0.73673053841E+02 -0.39376618547E+03  0.40063041354E+03  0.00000000000E+00 0. -1.
          1    1    1    2  502    0 -0.54977451894E+02 -0.33467174789E+02  0.76202691118E+03  0.76474020776E+03  0.00000000000E+00 0. -1.
         22    1    3    3    0    0 -0.37941711243E+01 -0.25169631176E+02  0.19719437448E+03  0.19883039857E+03  0.00000000000E+00 0. -1.
         22    1    3    3    0    0  0.63791640279E+02  0.13230985981E+03  0.67680721199E+03  0.69256283078E+03  0.00000000000E+00 0. -1.
</event>
<event>
 7    1  0.5950675E-006  0.7078873E+02  0.7818608E-02  0.1404375E+00
          2   -1    0    0  502    0  0.00000000000E+00  0.00000000000E+00  0.18139550309E+03  0.18139550309E+03  0.00000000000E+00 0. -1.
          1   -1    0    0  501    0 -0.00000000000E+00 -0.00000000000E+00 -0.17601996008E+04  0.17601996008E+04  0.00000000000E+00 0. -1.
         25    2    1    2    0    0  0.85055766471E+01  0.46259062485E+02  0.71476188184E+02  0.15148482817E+03  0.12500624781E+03 0.  0.
          2    1    1    2  501    0 -0.56674393615E+02 -0.42811991307E+02 -0.17110305571E+04  0.17125041375E+04  0.00000000000E+00 0. -1.
          1    1    1    2  502    0  0.48168816968E+02 -0.34470711781E+01  0.60750271262E+02  0.77606138199E+02  0.00000000000E+00 0. -1.
         22    1    3    3    0    0  0.22964522249E+02  0.79411770431E+02  0.14395094478E+02  0.83909578179E+02  0.00000000000E+00 0. -1.
         22    1    3    3    0    0 -0.14458945602E+02 -0.33152707946E+02  0.57081093706E+02  0.67575249987E+02  0.00000000000E+00 0. -1.
</event>
<event>
 7    1  0.5950675E-006  0.1163925E+03  0.7818608E-02  0.1407596E+00
          2   -1    0    0  502    0  0.00000000000E+00  0.00000000000E+00  0.82262701867E+03  0.82262701867E+03  0.00000000000E+00 0. -1.
          1   -1    0    0  501    0 -0.00000000000E+00 -0.00000000000E+00 -0.15967959155E+03  0.15967959155E+03  0.00000000000E+00 0. -1.
         25    2    1    2    0    0 -0.68497227614E+02  0.92314205397E+02 -0.86696613664E+01  0.17004130459E+03  0.12500039811E+03 0.  0.
          2    1    1    2  501    0  0.45591617602E+02 -0.10950260767E+03 -0.19799665863E+02  0.12025574186E+03  0.00000000000E+00 0. -1.
          1    1    1    2  502    0  0.22905610012E+02  0.17188402278E+02  0.69141675435E+03  0.69200956377E+03  0.00000000000E+00 0. -1.
         22    1    3    3    0    0 -0.32426153536E+02 -0.25261879769E+02 -0.21501473823E+02  0.46388914399E+02  0.00000000000E+00 0. -1.
         22    1    3    3    0    0 -0.36071074078E+02  0.11757608517E+03  0.12831812456E+02  0.12365239019E+03  0.00000000000E+00 0. -1.
</event>
<event>
 7    1  0.5950675E-006  0.5726793E+02  0.7818608E-02  0.1431938E+00
          2   -1    0    0  502    0  0.00000000000E+00  0.00000000000E+00  0.14687873186E+03  0.14687873186E+03  0.00000000000E+00 0. -1.
          1   -1    0    0  501    0 -0.00000000000E+00 -0.00000000000E+00 -0.18809375414E+04  0.18809375414E+04  0.00000000000E+00 0. -1.
         25    2    1    2    0    0 -0.32245324603E+02 -0.46974690538E+02 -0.45212466286E+02  0.14462333974E+03  0.12500144311E+03 0.  0.
          2    1    1    2  501    0  0.57179653703E+02  0.56516653219E+01 -0.17795345395E+04  0.17804619152E+04  0.00000000000E+00 0. -1.
          1    1    1    2  502    0 -0.24934329101E+02  0.41323025216E+02  0.90688196270E+02  0.10273101831E+03  0.00000000000E+00 0. -1.
         22    1    3    3    0    0  0.21173634674E+02 -0.59961046292E+02 -0.60280718134E+02  0.87620858570E+02  0.00000000000E+00 0.  1.
         22    1    3    3    0    0 -0.53418959277E+02  0.12986355754E+02  0.15068251849E+02  0.57002481172E+02  0.00000000000E+00 0.  1.
</event>
<event>
 7    1  0.5950675E-006  0.4965967E+02  0.7818608E-02  0.1464117E+00
          2   -1    0    0  502    0  0.00000000000E+00  0.00000000000E+00  0.63810199783E+03  0.63810199783E+03  0.00000000000E+00 0. -1.
          1   -1    0    0  501    0 -0.00000000000E+00 -0.00000000000E+00 -0.36022639942E+02  0.36022639942E+02  0.00000000000E+00 0. -1.
         25    2    1    2    0    0 -0.48586391244E+02  0.74897756767E+02  0.19158024628E+03  0.24555589686E+03  0.12499758532E+03 0.  0.
          2    1    1    2  501    0  0.31337080162E+02 -0.30714730348E+02  0.57159069641E+02  0.72059464997E+02  0.00000000000E+00 0. -1.
          1    1    1    2  502    0  0.17249311082E+02 -0.44183026419E+02  0.35334004197E+03  0.35650927592E+03  0.00000000000E+00 0. -1.
         22    1    3    3    0    0 -0.58738576521E+02  0.10019353301E+03  0.18342872807E+03  0.21710610933E+03  0.00000000000E+00 0.  1.
         22    1    3    3    0    0  0.10152185278E+02 -0.25295776240E+02  0.81515182175E+01  0.28449787534E+02  0.00000000000E+00 0.  1.
</event>
<event>
 7    1  0.5950675E-006  0.1221290E+03  0.7818608E-02  0.1267363E+00
          2   -1    0    0  502    0  0.00000000000E+00  0.00000000000E+00  0.69430109904E+03  0.69430109904E+03  0.00000000000E+00 0. -1.
          1   -1    0    0  501    0 -0.00000000000E+00 -0.00000000000E+00 -0.49272831787E+03  0.49272831787E+03  0.00000000000E+00 0. -1.
         25    2    1    2    0    0  0.67172804930E+01 -0.16726397864E+03  0.24689276665E+03  0.32342546600E+03  0.12500253367E+03 0.  0.
          2    1    1    2  501    0 -0.64866581740E+02  0.66247470258E+02 -0.44124378453E+03  0.45087967146E+03  0.00000000000E+00 0. -1.
          1    1    1    2  502    0  0.58149301247E+02  0.10101650838E+03  0.39592379905E+03  0.41272427946E+03  0.00000000000E+00 0. -1.
         22    1    3    3    0    0  0.44468887178E+02 -0.60874644801E+02  0.34522675495E+02  0.82915736925E+02  0.00000000000E+00 0.  1.
         22    1    3    3    0    0 -0.37751606685E+02 -0.10638933383E+03  0.21237009115E+03  0.24050972907E+03  0.00000000000E+00 0.  1.
</event>
<event>
 7    1  0.6836923E-006  0.6955416E+02  0.7818608E-02  0.1373655E+00
          2   -1    0    0  502    0  0.00000000000E+00  0.00000000000E+00  0.78266030046E+03  0.78266030046E+03  0.00000000000E+00 0. -1.
          1   -1    0    0  501    0 -0.00000000000E+00 -0.00000000000E+00 -0.16230795460E+04  0.16230795460E+04  0.00000000000E+00 0. -1.
         25    2    1    2    0    0  0.42350457575E+02 -0.20164290819E+02 -0.19261284624E+03  0.23436481226E+03  0.12500798697E+03 0.  0.
          2    1    1    2  501    0 -0.58940103464E+02 -0.40543929507E+02 -0.14073808492E+04  0.14091978572E+04  0.00000000000E+00 0. -1.
          1    1    1    2  502    0  0.16589645889E+02  0.60708220327E+02  0.75957444985E+03  0.76217717706E+03  0.00000000000E+00 0. -1.
         22    1    3    3    0    0 -0.12197240526E+01 -0.66594080069E+02 -0.12402871634E+03  0.14078132584E+03  0.00000000000E+00 0. -1.
         22    1    3    3    0    0  0.43570181627E+02  0.46429789250E+02 -0.68584129895E+02  0.93583486418E+02  0.00000000000E+00 0. -1.
</event>
<event>
 7    1  0.5950675E-006  0.9090027E+02  0.7818608E-02  0.1376044E+00
          2   -1    0    0  502    0  0.00000000000E+00  0.00000000000E+00  0.22789975667E+04  0.22789975667E+04  0.00000000000E+00 0. -1.
          1   -1    0    0  501    0 -0.00000000000E+00 -0.00000000000E+00 -0.33495231494E+02  0.33495231494E+02  0.00000000000E+00 0. -1.
         25    2    1    2    0    0  0.68283205703E+02  0.17557667113E+02  0.61207318970E+03  0.62867079148E+03  0.12499002620E+03 0.  0.
          2    1    1    2  501    0  0.20598354182E+01  0.47174180000E+02 -0.37796407070E+00  0.47220642070E+02  0.00000000000E+00 0. -1.
          1    1    1    2  502    0 -0.70343041122E+02 -0.64731847114E+02  0.16338071096E+04  0.16366013647E+04  0.00000000000E+00 0. -1.
         22    1    3    3    0    0  0.56904705270E+02  0.31089688176E+02  0.60675226895E+03  0.61020736645E+03  0.00000000000E+00 0.  1.
         22    1    3    3    0    0  0.11378500433E+02 -0.13532021062E+02  0.53209207527E+01  0.18463425029E+02  0.00000000000E+00 0.  1.
</event>
<event>
 7    1  0.5950675E-006  0.1538271E+03  0.7818608E-02  0.1273078E+00
          2   -1    0    0  502    0  0.00000000000E+00  0.00000000000E+00  0.22170310997E+04  0.22170310997E+04  0.00000000000E+00 0. -1.
          1   -1    0    0  501    0 -0.00000000000E+00 -0.00000000000E+00 -0.54748558023E+03  0.54748558023E+03  0.00000000000E+00 0. -1.
         25    2    1    2    0    0 -0.78346357351E+02  0.12598007090E+03  0.27866530378E+03  0.33954331943E+03  0.12500473697E+03 0.  0.
          2    1    1    2  501    0  0.14536395698E+02 -0.15391048138E+03 -0.50483674070E+03  0.52797715655E+03  0.00000000000E+00 0. -1.
          1    1    1    2  502    0  0.63809961653E+02  0.27930410481E+02  0.18957169564E+04  0.18969962039E+04  0.00000000000E+00 0. -1.
         22    1    3    3    0    0 -0.66039641273E+02  0.15155452524E+03  0.23085851180E+03  0.28394658091E+03  0.00000000000E+00 0. -1.
         22    1    3    3    0    0 -0.12306716078E+02 -0.25574454333E+02  0.47806791982E+02  0.55596738525E+02  0.00000000000E+00 0. -1.
</event>
<event>
 7    1  0.5950675E-006  0.4629944E+02  0.7818608E-02  0.1545606E+00
          2   -1    0    0  502    0  0.00000000000E+00  0.00000000000E+00  0.15893219797E+04  0.15893219797E+04  0.00000000000E+00 0. -1.
          1   -1    0    0  501    0 -0.00000000000E+00 -0.00000000000E+00 -0.48781365699E+03  0.48781365699E+03  0.00000000000E+00 0. -1.
         25    2    1    2    0    0 -0.53369472401E+02  0.43239587458E+02  0.96280230667E+03  0.97331474722E+03  0.12504140483E+03 0.  0.
          2    1    1    2  501    0  0.26994301113E+02 -0.37587598140E+02 -0.48115398584E+03  0.48337426278E+03  0.00000000000E+00 0. -1.
          1    1    1    2  502    0  0.26375171288E+02 -0.56519893180E+01  0.61986000192E+03  0.62044662673E+03  0.00000000000E+00 0. -1.
         22    1    3    3    0    0 -0.64042525727E+02  0.59869809490E+02  0.37233635830E+03  0.38251823865E+03  0.00000000000E+00 0.  1.
         22    1    3    3    0    0  0.10673053327E+02 -0.16630222033E+02  0.59046594837E+03  0.59079650857E+03  0.00000000000E+00 0.  1.
</event>
<event>
 7    1  0.5950675E-006  0.3397720E+02  0.7818608E-02  0.1559821E+00
          2   -1    0    0  502    0  0.00000000000E+00  0.00000000000E+00  0.98119444895E+02  0.98119444895E+02  0.00000000000E+00 0. -1.
          1   -1    0    0  501    0 -0.00000000000E+00 -0.00000000000E+00 -0.20267556136E+04  0.20267556136E+04  0.00000000000E+00 0. -1.
         25    2    1    2    0    0 -0.30436281124E+02  0.53763441487E+02 -0.43934792838E+03  0.46094236342E+03  0.12499754146E+03 0.  0.
          2    1    1    2  501    0  0.26842484137E+02 -0.20143757065E+02 -0.15731518491E+04  0.15735097808E+04  0.00000000000E+00 0. -1.
          1    1    1    2  502    0  0.35937969872E+01 -0.33619684422E+02  0.83863608761E+02  0.90422914307E+02  0.00000000000E+00 0. -1.
         22    1    3    3    0    0 -0.32855237094E+02  0.83197452363E+02 -0.19173120256E+03  0.21157064239E+03  0.00000000000E+00 0. -1.
         22    1    3    3    0    0  0.24189559705E+01 -0.29434010876E+02 -0.24761672582E+03  0.24937172103E+03  0.00000000000E+00 0. -1.
</event>
<event>
 7    1  0.5950675E-006  0.7905314E+02  0.7818608E-02  0.1476824E+00
          2   -1    0    0  502    0  0.00000000000E+00  0.00000000000E+00  0.42444553308E+04  0.42444553308E+04  0.00000000000E+00 0. -1.
          1   -1    0    0  501    0 -0.00000000000E+00 -0.00000000000E+00 -0.14652520218E+02  0.14652520218E+02  0.00000000000E+00 0. -1.
         25    2    1    2    0    0  0.60539313338E+02 -0.30591456943E+02  0.20195611958E+04  0.20245625056E+04  0.12500027980E+03 0.  0.
          2    1    1    2  501    0  0.20945542890E+02  0.13953527779E+02  0.25598150555E+01  0.25297615650E+02  0.00000000000E+00 0. -1.
          1    1    1    2  502    0 -0.81484856228E+02  0.16637929164E+02  0.22076817997E+04  0.22092477297E+04  0.00000000000E+00 0. -1.
         22    1    3    3    0    0  0.20912050973E+02  0.34769910321E+01  0.50003469539E+02  0.54311603810E+02  0.00000000000E+00 0.  1.
         22    1    3    3    0    0  0.39627262365E+02 -0.34068447975E+02  0.19695577262E+04  0.19702509018E+04  0.00000000000E+00 0.  1.
</event>
<event>
 7    1  0.5950675E-006  0.5734644E+02  0.7818608E-02  0.1424482E+00
          2   -1    0    0  502    0  0.00000000000E+00  0.00000000000E+00  0.20955309165E+03  0.20955309165E+03  0.00000000000E+00 0. -1.
          1   -1    0    0  501    0 -0.00000000000E+00 -0.00000000000E+00 -0.17316410005E+04  0.17316410005E+04  0.00000000000E+00 0. -1.
         25    2    1    2    0    0  0.51032828586E+02 -0.94204655896E+02 -0.15355030450E+03  0.22512988074E+03  0.12500760139E+03 0.  0.
          2    1    1    2  501    0 -0.23420714643E+02  0.45311897615E+02 -0.15373306248E+04  0.15381765659E+04  0.00000000000E+00 0. -1.
          1    1    1    2  502    0 -0.27612113943E+02  0.48892758281E+02  0.16879302049E+03  0.17788764548E+03  0.00000000000E+00 0. -1.
         22    1    3    3    0    0  0.25324561397E+02 -0.10721069988E+03 -0.16126912730E+03  0.19530283920E+03  0.00000000000E+00 0. -1.
         22    1    3    3    0    0  0.25708267189E+02  0.13006043981E+02  0.77188228000E+01  0.29827041545E+02  0.00000000000E+00 0. -1.
</event>
<event>
 7    1  0.5950675E-006  0.1549592E+03  0.7818608E-02  0.1323064E+00
          2   -1    0    0  502    0  0.00000000000E+00  0.00000000000E+00  0.20155645350E+04  0.20155645350E+04  0.00000000000E+00 0. -1.
          1   -1    0    0  501    0 -0.00000000000E+00 -0.00000000000E+00 -0.53599320082E+03  0.53599320082E+03  0.00000000000E+00 0. -1.
         25    2    1    2    0    0 -0.14303682240E+03 -0.42008604545E+02  0.37283291511E+03  0.42052796233E+03  0.12496051016E+03 0.  0.
          2    1    1    2  501    0 -0.13669214153E+02  0.41347816696E+02 -0.50741851773E+03  0.50928385160E+03  0.00000000000E+00 0. -1.
          1    1    1    2  502    0  0.15670603655E+03  0.66078784941E+00  0.16141569368E+04  0.16217459219E+04  0.00000000000E+00 0. -1.
         22    1    3    3    0    0 -0.15029372781E+03  0.64573205129E+00  0.30590896696E+03  0.34083561677E+03  0.00000000000E+00 0.  1.
         22    1    3    3    0    0  0.72569054114E+01 -0.42654336597E+02  0.66923948147E+02  0.79692345569E+02  0.00000000000E+00 0.  1.
</event>
<event>
 7    1  0.5950675E-006  0.6204245E+03  0.7818608E-02  0.1214763E+00
          2   -1    0    0  502    0  0.00000000000E+00  0.00000000000E+00  0.17554012714E+04  0.17554012714E+04  0.00000000000E+00 0. -1.
          1   -1    0    0  501    0 -0.00000000000E+00 -0.00000000000E+00 -0.19237480442E+04  0.19237480442E+04  0.00000000000E+00 0. -1.
         25    2    1    2    0    0  0.10905030059E+03 -0.62782812147E+03 -0.82472607747E+03  0.10496939899E+04  0.12499700566E+03 0.  0.
          2    1    1    2  501    0 -0.10851867267E+03  0.59671816306E+03 -0.89314996733E+03  0.10796136960E+04  0.00000000000E+00 0. -1.
          1    1    1    2  502    0 -0.53162791586E+00  0.31109958402E+02  0.15495292720E+04  0.15498416297E+04  0.00000000000E+00 0. -1.
         22    1    3    3    0    0  0.62093101452E+02 -0.99150256134E+02 -0.17886366896E+03  0.21372538130E+03  0.00000000000E+00 0. -1.
         22    1    3    3    0    0  0.46957199138E+02 -0.52867786533E+03 -0.64586240851E+03  0.83596860860E+03  0.00000000000E+00 0. -1.
</event>
<event>
 7    1  0.5950675E-006  0.1549610E+03  0.7818608E-02  0.1206602E+00
          2   -1    0    0  502    0  0.00000000000E+00  0.00000000000E+00  0.22506165451E+04  0.22506165451E+04  0.00000000000E+00 0. -1.
          1   -1    0    0  501    0 -0.00000000000E+00 -0.00000000000E+00 -0.71156892224E+03  0.71156892224E+03  0.00000000000E+00 0. -1.
         25    2    1    2    0    0  0.19678994737E+03 -0.47491169932E+02  0.75926108404E+03  0.79566553091E+03  0.12499819491E+03 0.  0.
          2    1    1    2  501    0 -0.61875332056E+02  0.12099907821E+03 -0.68264430583E+03  0.69604064675E+03  0.00000000000E+00 0. -1.
          1    1    1    2  502    0 -0.13491461531E+03 -0.73507908276E+02  0.14624308446E+04  0.14704792897E+04  0.00000000000E+00 0. -1.
         22    1    3    3    0    0  0.18715642939E+03 -0.79980124607E+02  0.63159898818E+03  0.66358242236E+03  0.00000000000E+00 0. -1.
         22    1    3    3    0    0  0.96335179798E+01  0.32488954675E+02  0.12766209586E+03  0.13208310855E+03  0.00000000000E+00 0. -1.
</event>
<event>
 7    1  0.5950675E-006  0.3879938E+02  0.7818608E-02  0.1595596E+00
          2   -1    0    0  502    0  0.00000000000E+00  0.00000000000E+00  0.10441371376E+04  0.10441371376E+04  0.00000000000E+00 0. -1.
          1   -1    0    0  501    0 -0.00000000000E+00 -0.00000000000E+00 -0.41557215146E+02  0.41557215146E+02  0.00000000000E+00 0. -1.
         25    2    1    2    0    0 -0.52074541184E+02 -0.30631494529E+02  0.57220702103E+03  0.58880873574E+03  0.12499922429E+03 0.  0.
          2    1    1    2  501    0  0.20493372316E+02  0.11599096667E+02 -0.28253059795E+02  0.36779787114E+02  0.00000000000E+00 0. -1.
          1    1    1    2  502    0  0.31581168868E+02  0.19032397862E+02  0.45862596121E+03  0.46010582988E+03  0.00000000000E+00 0. -1.
         22    1    3    3    0    0 -0.37099529557E+01 -0.73855971696E+02  0.30976325212E+03  0.31846780162E+03  0.00000000000E+00 0.  1.
         22    1    3    3    0    0 -0.48364588228E+02  0.43224477168E+02  0.26244376891E+03  0.27034093412E+03  0.00000000000E+00 0.  1.
</event>
<event>
 7    1  0.5950675E-006  0.1134727E+03  0.7818608E-02  0.1310172E+00
          2   -1    0    0  502    0  0.00000000000E+00  0.00000000000E+00  0.81396223078E+03  0.81396223078E+03  0.00000000000E+00 0. -1.
          1   -1    0    0  501    0 -0.00000000000E+00 -0.00000000000E+00 -0.52182594106E+03  0.52182594106E+03  0.00000000000E+00 0. -1.
         25    2    1    2    0    0 -0.43525861002E+02 -0.59721124758E+02 -0.13687357233E+03  0.19956340863E+03  0.12502026213E+03 0.  0.
          2    1    1    2  501    0 -0.63906089285E+02  0.19349308231E+02 -0.34619252422E+03  0.35257289714E+03  0.00000000000E+00 0. -1.
          1    1    1    2  502    0  0.10743195029E+03  0.40371816527E+02  0.77520238627E+03  0.78365186607E+03  0.00000000000E+00 0. -1.
         22    1    3    3    0    0  0.42401798846E+02 -0.39403354223E+01 -0.35519347268E+02  0.55453248949E+02  0.00000000000E+00 0. -1.
         22    1    3    3    0    0 -0.85927659847E+02 -0.55780789336E+02 -0.10135422506E+03  0.14411015968E+03  0.00000000000E+00 0. -1.
</event>
<event>
 7    1  0.5950675E-006  0.7247738E+02  0.7818608E-02  0.1372151E+00
          2   -1    0    0  502    0  0.00000000000E+00  0.00000000000E+00  0.28541356720E+02  0.28541356720E+02  0.00000000000E+00 0. -1.
          1   -1    0    0  501    0 -0.00000000000E+00 -0.00000000000E+00 -0.17601972940E+04  0.17601972940E+04  0.00000000000E+00 0. -1.
         25    2    1    2    0    0 -0.12179875950E+02 -0.94321213840E+02 -0.44960403752E+03  0.47624937756E+03  0.12499935326E+03 0.  0.
          2    1    1    2  501    0  0.53191303020E+02  0.48964106947E+02 -0.12301801532E+04  0.12323027258E+04  0.00000000000E+00 0. -1.
          1    1    1    2  502    0 -0.41011427071E+02  0.45357106892E+02 -0.51871746508E+02  0.80186547387E+02  0.00000000000E+00 0. -1.
         22    1    3    3    0    0 -0.90811747563E+01 -0.33257911801E+02 -0.38773968221E+03  0.38926933811E+03  0.00000000000E+00 0. -1.
         22    1    3    3    0    0 -0.30987011933E+01 -0.61063302038E+02 -0.61864355306E+02  0.86980039448E+02  0.00000000000E+00 0. -1.
</event>
<event>
 7    1  0.5950675E-006  0.5100748E+02  0.7818608E-02  0.1572304E+00
          2   -1    0    0  502    0  0.00000000000E+00  0.00000000000E+00  0.27435955734E+02  0.27435955734E+02  0.00000000000E+00 0. -1.
          1   -1    0    0  501    0 -0.00000000000E+00 -0.00000000000E+00 -0.12512651336E+04  0.12512651336E+04  0.00000000000E+00 0. -1.
         25    2    1    2    0    0 -0.16021613879E+02 -0.56931371820E+02 -0.22997630871E+03  0.26836087177E+03  0.12502232488E+03 0.  0.
          2    1    1    2  501    0  0.29594622543E+02  0.41345582710E+02 -0.98737220884E+03  0.98868052357E+03  0.00000000000E+00 0. -1.
          1    1    1    2  502    0 -0.13573008664E+02  0.15585789110E+02 -0.64806603273E+01  0.21659694011E+02  0.00000000000E+00 0. -1.
         22    1    3    3    0    0  0.31970920453E+02  0.19215851495E+02 -0.26177424798E+02  0.45570234499E+02  0.00000000000E+00 0.  1.
         22    1    3    3    0    0 -0.47992534331E+02 -0.76147223315E+02 -0.20379888391E+03  0.22279063727E+03  0.00000000000E+00 0.  1.
</event>
<event>
 7    1  0.5950675E-006  0.6099621E+02  0.7818608E-02  0.1452033E+00
          2   -1    0    0  502    0  0.00000000000E+00  0.00000000000E+00  0.47115634876E+03  0.47115634876E+03  0.00000000000E+00 0. -1.
          1   -1    0    0  501    0 -0.00000000000E+00 -0.00000000000E+00 -0.19449003199E+04  0.19449003199E+04  0.00000000000E+00 0. -1.
         25    2    1    2    0    0 -0.22831540923E+02  0.38977914683E+02  0.10188444948E+03  0.16746970929E+03  0.12500042156E+03 0.  0.
          2    1    1    2  501    0 -0.35846125758E+02 -0.15391855279E+02 -0.19089351594E+04  0.19093337311E+04  0.00000000000E+00 0. -1.
          1    1    1    2  502    0  0.58677666680E+02 -0.23586059404E+02  0.33330673879E+03  0.33925322826E+03  0.00000000000E+00 0. -1.
         22    1    3    3    0    0 -0.60973621819E+02 -0.14290631718E+02  0.27647574582E+02  0.68457235504E+02  0.00000000000E+00 0.  1.
         22    1    3    3    0    0  0.38142080896E+02  0.53268546401E+02  0.74236874897E+02  0.99012473786E+02  0.00000000000E+00 0.  1.
</event>
<event>
 7    1  0.5950675E-006  0.4206716E+02  0.7818608E-02  0.1570758E+00
          2   -1    0    0  502    0  0.00000000000E+00  0.00000000000E+00  0.15507155982E+04  0.15507155982E+04  0.00000000000E+00 0. -1.
          1   -1    0    0  501    0 -0.00000000000E+00 -0.00000000000E+00 -0.18097952418E+03  0.18097952418E+03  0.00000000000E+00 0. -1.
         25    2    1    2    0    0  0.44727380882E+02  0.40205325493E+01  0.28654495179E+02  0.13587658059E+03  0.12499864710E+03 0.  0.
          2    1    1    2  501    0 -0.11901540485E+02  0.22329124484E+02 -0.12580692335E+03  0.12832621879E+03  0.00000000000E+00 0. -1.
          1    1    1    2  502    0 -0.32825840397E+02 -0.26349657033E+02  0.14668885022E+04  0.14674923230E+04  0.00000000000E+00 0. -1.
         22    1    3    3    0    0  0.97637285777E+01 -0.49457089493E+01 -0.49018989783E+02  0.50226007128E+02  0.00000000000E+00 0. -1.
         22    1    3    3    0    0  0.34963652304E+02  0.89662414985E+01  0.77673484961E+02  0.85650573466E+02  0.00000000000E+00 0. -1.
</event>
<event>
 7    1  0.5950675E-006  0.1452521E+03  0.7818608E-02  0.1334323E+00
          2   -1    0    0  502    0  0.00000000000E+00  0.00000000000E+00  0.10303969670E+04  0.10303969670E+04  0.00000000000E+00 0. -1.
          1   -1    0    0  501    0 -0.00000000000E+00 -0.00000000000E+00 -0.38567613098E+03  0.38567613098E+03  0.00000000000E+00 0. -1.
         25    2    1    2    0    0  0.14496540321E+03  0.44220268776E+02  0.15705190893E+03  0.25152088237E+03  0.12500820720E+03 0.  0.
          2    1    1    2  501    0  0.12509383563E+00 -0.42069761328E+02 -0.33072685551E+03  0.33339186166E+03  0.00000000000E+00 0. -1.
          1    1    1    2  502    0 -0.14509049705E+03 -0.21505074482E+01  0.81839578261E+03  0.83116035397E+03  0.00000000000E+00 0. -1.
         22    1    3    3    0    0  0.11112504143E+03 -0.21872409727E+02  0.56621370193E+02  0.12662210195E+03  0.00000000000E+00 0.  1.
         22    1    3    3    0    0  0.33840361782E+02  0.66092678503E+02  0.10043053874E+03  0.12489878041E+03  0.00000000000E+00 0.  1.
</event>
<event>
 7    1  0.5950675E-006  0.3512281E+03  0.7818608E-02  0.1246796E+00
          2   -1    0    0  502    0  0.00000000000E+00  0.00000000000E+00  0.21207856689E+04  0.21207856689E+04  0.00000000000E+00 0. -1.
          1   -1    0    0  501    0 -0.00000000000E+00 -0.00000000000E+00 -0.78494541109E+03  0.78494541109E+03  0.00000000000E+00 0. -1.
         25    2    1    2    0    0 -0.15397860109E+03 -0.28246171290E+03  0.46941495227E+03  0.58263950697E+03  0.12499747524E+03 0.  0.
          2    1    1    2  501    0  0.19020804757E+03  0.29819826643E+03 -0.68512599054E+03  0.77103756742E+03  0.00000000000E+00 0. -1.
          1    1    1    2  502    0 -0.36229446481E+02 -0.15736553535E+02  0.15515512961E+04  0.15520540056E+04  0.00000000000E+00 0. -1.
         22    1    3    3    0    0  0.96540960964E+01  0.42802334119E+01  0.25985021054E+01  0.10875393450E+02  0.00000000000E+00 0.  1.
         22    1    3    3    0    0 -0.16363269718E+03 -0.28674194631E+03  0.46681645017E+03  0.57176411352E+03  0.00000000000E+00 0.  1.
</event>
<event>
 7    1  0.5950675E-006  0.7507068E+02  0.7818608E-02  0.1411887E+00
          2   -1    0    0  502    0  0.00000000000E+00  0.00000000000E+00  0.41169223796E+03  0.41169223796E+03  0.00000000000E+00 0. -1.
          1   -1    0    0  501    0 -0.00000000000E+00 -0.00000000000E+00 -0.10478423698E+04  0.10478423698E+04  0.00000000000E+00 0. -1.
         25    2    1    2    0    0 -0.10318682805E+03 -0.20048818179E+02 -0.30428045149E+03  0.34534163929E+03  0.12499911230E+03 0.  0.
          2    1    1    2  501    0  0.38893589302E+02 -0.18192368779E+02 -0.71880826999E+03  0.72008957955E+03  0.00000000000E+00 0. -1.
          1    1    1    2  502    0  0.64293238750E+02  0.38241186958E+02  0.38693858969E+03  0.39410338887E+03  0.00000000000E+00 0. -1.
         22    1    3    3    0    0 -0.57148417682E+02 -0.52982283017E+02 -0.71442380247E+02  0.10572169906E+03  0.00000000000E+00 0. -1.
         22    1    3    3    0    0 -0.46038410370E+02  0.32933464838E+02 -0.23283807124E+03  0.23961994023E+03  0.00000000000E+00 0. -1.
</event>
<event>
 7    1  0.5950675E-006  0.7860143E+02  0.7818608E-02  0.1453864E+00
          2   -1    0    0  502    0  0.00000000000E+00  0.00000000000E+00  0.76737578581E+03  0.76737578581E+03  0.00000000000E+00 0. -1.
          1   -1    0    0  501    0 -0.00000000000E+00 -0.00000000000E+00 -0.17490778914E+04  0.17490778914E+04  0.00000000000E+00 0. -1.
         25    2    1    2    0    0 -0.43826095132E+02  0.78316710346E+02  0.15426793506E+03  0.21789500008E+03  0.12500160615E+03 0.  0.
          2    1    1    2  501    0  0.29829875140E+02 -0.15335146118E+01 -0.17145138680E+04  0.17147740308E+04  0.00000000000E+00 0. -1.
          1    1    1    2  502    0  0.13996219993E+02 -0.76783195734E+02  0.57854382727E+03  0.58378464642E+03  0.00000000000E+00 0. -1.
         22    1    3    3    0    0 -0.42626908095E+02  0.18669620975E+02  0.15115313329E+03  0.15815460077E+03  0.00000000000E+00 0. -1.
         22    1    3    3    0    0 -0.11991870369E+01  0.59647089370E+02  0.31148017688E+01  0.59740399312E+02  0.00000000000E+00 0. -1.
</event>
<event>
 7    1  0.5950675E-006  0.1125604E+03  0.7818608E-02  0.1311890E+00
          2   -1    0    0  502    0  0.00000000000E+00  0.00000000000E+00  0.90307841644E+03  0.90307841644E+03  0.00000000000E+00 0. -1.
          1   -1    0    0  501    0 -0.00000000000E+00 -0.00000000000E+00 -0.43537384223E+03  0.43537384223E+03  0.00000000000E+00 0. -1.
         25    2    1    2    0    0  0.67070528566E+02  0.95144020039E+02  0.22330731314E+03  0.28114868759E+03  0.12501035191E+03 0.  0.
          2    1    1    2  501    0 -0.10532112542E+03 -0.41024269837E+02 -0.39685431454E+03  0.41263649517E+03  0.00000000000E+00 0. -1.
          1    1    1    2  502    0  0.38250596856E+02 -0.54119750202E+02  0.64125157562E+03  0.64466707590E+03  0.00000000000E+00 0. -1.
         22    1    3    3    0    0  0.55246193909E+02  0.18935760342E+02  0.18700382067E+03  0.19591103569E+03  0.00000000000E+00 0. -1.
         22    1    3    3    0    0  0.11824334657E+02  0.76208259698E+02  0.36303492465E+02  0.85237651900E+02  0.00000000000E+00 0. -1.
</event>
<event>
 7    1  0.5950675E-006  0.8730749E+02  0.7818608E-02  0.1313292E+00
          2   -1    0    0  502    0  0.00000000000E+00  0.00000000000E+00  0.10286097153E+04  0.10286097153E+04  0.00000000000E+00 0. -1.
          1   -1    0    0  501    0 -0.00000000000E+00 -0.00000000000E+00 -0.92664848784E+02  0.92664848784E+02  0.00000000000E+00 0. -1.
         25    2    1    2    0    0 -0.66499155602E+02 -0.57918549808E+01  0.22784604028E+03  0.26832350423E+03  0.12501200571E+03 0.  0.
          2    1    1    2  501    0  0.53102633781E+02 -0.77503372925E+02 -0.38549437339E+02  0.10155157137E+03  0.00000000000E+00 0. -1.
          1    1    1    2  502    0  0.13396521820E+02  0.83295227906E+02  0.74664826361E+03  0.75139948851E+03  0.00000000000E+00 0. -1.
         22    1    3    3    0    0 -0.42324834873E+02 -0.59150524743E+02  0.17466942211E+03  0.18920777797E+03  0.00000000000E+00 0.  1.
         22    1    3    3    0    0 -0.24174320728E+02  0.53358669762E+02  0.53176618169E+02  0.79115726258E+02  0.00000000000E+00 0.  1.
</event>
<event>
 7    1  0.5950675E-006  0.4369127E+02  0.7818608E-02  0.1522046E+00
          2   -1    0    0  502    0  0.00000000000E+00  0.00000000000E+00  0.57195924668E+03  0.57195924668E+03  0.00000000000E+00 0. -1.
          1   -1    0    0  501    0 -0.00000000000E+00 -0.00000000000E+00 -0.87876360832E+02  0.87876360832E+02  0.00000000000E+00 0. -1.
         25    2    1    2    0    0  0.13901995679E+02  0.49522296580E+01  0.22872175762E+03  0.26106829752E+03  0.12500089398E+03 0.  0.
          2    1    1    2  501    0  0.22042998698E+02  0.25045963730E+02 -0.66031719468E+02  0.73982309147E+02  0.00000000000E+00 0. -1.
          1    1    1    2  502    0 -0.35944994377E+02 -0.29998193388E+02  0.32139284769E+03  0.32478500085E+03  0.00000000000E+00 0. -1.
         22    1    3    3    0    0  0.22802813546E+02  0.27561433967E+01  0.24300931498E+03  0.24409238373E+03  0.00000000000E+00 0.  1.
         22    1    3    3    0    0 -0.89008178673E+01  0.21960862613E+01 -0.14287557354E+02  0.16975913782E+02  0.00000000000E+00 0.  1.
</event>
<event>
 7    1  0.5950675E-006  0.2933867E+02  0.7818608E-02  0.1616420E+00
          2   -1    0    0  502    0  0.00000000000E+00  0.00000000000E+00  0.13598463304E+04  0.13598463304E+04  0.00000000000E+00 0. -1.
          1   -1    0    0  501    0 -0.00000000000E+00 -0.00000000000E+00 -0.13536060619E+04  0.13536060619E+04  0.00000000000E+00 0. -1.
         25    2    1    2    0    0 -0.25886859085E+02  0.47803724906E+02  0.10066293538E+03  0.16944838519E+03  0.12499761237E+03 0.  0.
          2    1    1    2  501    0  0.20644794607E+02 -0.20807098179E+02 -0.13188961112E+04  0.13192217762E+04  0.00000000000E+00 0. -1.
          1    1    1    2  502    0  0.52420644772E+01 -0.26996626727E+02  0.12244734444E+04  0.12247822309E+04  0.00000000000E+00 0. -1.
         22    1    3    3    0    0 -0.58318709106E+00 -0.39121780361E+01  0.11090038843E+03  0.11097090339E+03  0.00000000000E+00 0.  1.
         22    1    3    3    0    0 -0.25303671994E+02  0.51715902942E+02 -0.10237453054E+02  0.58477481807E+02  0.00000000000E+00 0.  1.
</event>
<event>
 7    1  0.5950675E-006  0.1571062E+03  0.7818608E-02  0.1382925E+00
          2   -1    0    0  502    0  0.00000000000E+00  0.00000000000E+00  0.85009520275E+02  0.85009520275E+02  0.00000000000E+00 0. -1.
          1   -1    0    0  501    0 -0.00000000000E+00 -0.00000000000E+00 -0.30511200344E+04  0.30511200344E+04  0.00000000000E+00 0. -1.
         25    2    1    2    0    0  0.17872391796E+02 -0.13348611225E+03 -0.15998815947E+04  0.16103987891E+04  0.12500071251E+03 0.  0.
          2    1    1    2  501    0  0.14471120780E+02 -0.21394029587E+02 -0.13672622110E+04  0.13675061505E+04  0.00000000000E+00 0. -1.
          1    1    1    2  502    0 -0.32343512575E+02  0.15488014184E+03  0.10332916515E+01  0.15822461513E+03  0.00000000000E+00 0. -1.
         22    1    3    3    0    0 -0.25134578794E+02  0.66181104477E+01 -0.51595020790E+03  0.51660445553E+03  0.00000000000E+00 0.  1.
         22    1    3    3    0    0  0.43006970589E+02 -0.14010422270E+03 -0.10839313868E+04  0.10937943336E+04  0.00000000000E+00 0.  1.
</event>
<event>
 7    1  0.5950675E-006  0.1179526E+03  0.7818608E-02  0.1294974E+00
          2   -1    0    0  502    0  0.00000000000E+00  0.00000000000E+00  0.25008222814E+04  0.25008222814E+04  0.00000000000E+00 0. -1.
          1   -1    0    0  501    0 -0.00000000000E+00 -0.00000000000E+00 -0.44204760804E+03  0.44204760804E+03  0.00000000000E+00 0. -1.
         25    2    1    2    0    0 -0.86457367377E+02  0.46436986031E+02  0.87857018017E+03  0.89282782374E+03  0.12499876521E+03 0.  0.
          2    1    1    2  501    0 -0.43078307885E+02 -0.59988164842E+02 -0.42913364512E+03  0.43544231065E+03  0.00000000000E+00 0. -1.
          1    1    1    2  502    0  0.12953567526E+03  0.13551178811E+02  0.16093381383E+04  0.16145997550E+04  0.00000000000E+00 0. -1.
         22    1    3    3    0    0  0.18744177771E+02  0.48286401461E+02  0.22846312714E+03  0.23426122434E+03  0.00000000000E+00 0. -1.
         22    1    3    3    0    0 -0.10520154515E+03 -0.18494154304E+01  0.65010705303E+03  0.65856659940E+03  0.00000000000E+00 0. -1.
</event>
<event>
 7    1  0.5950675E-006  0.4550893E+02  0.7818608E-02  0.1504554E+00
          2   -1    0    0  502    0  0.00000000000E+00  0.00000000000E+00  0.47111654801E+03  0.47111654801E+03  0.00000000000E+00 0. -1.
          1   -1    0    0  501    0 -0.00000000000E+00 -0.00000000000E+00 -0.96263975709E+03  0.96263975709E+03  0.00000000000E+00 0. -1.
         25    2    1    2    0    0  0.36402450627E+02  0.71844589213E+02  0.16023276417E+03  0.21860031335E+03  0.12499909949E+03 0.  0.
          2    1    1    2  501    0 -0.14954086606E+02 -0.42875748774E+02 -0.93174777118E+03  0.93285361319E+03  0.00000000000E+00 0. -1.
          1    1    1    2  502    0 -0.21448364021E+02 -0.28968840439E+02  0.27999179793E+03  0.28230237857E+03  0.00000000000E+00 0. -1.
         22    1    3    3    0    0 -0.37133901856E+02  0.34641089839E+01  0.11285551138E+02  0.38965245830E+02  0.00000000000E+00 0. -1.
         22    1    3    3    0    0  0.73536352483E+02  0.68380480229E+02  0.14894721303E+03  0.17963506752E+03  0.00000000000E+00 0. -1.
</event>
<event>
 7    1  0.5950675E-006  0.4553558E+02  0.7818608E-02  0.1553135E+00
          2   -1    0    0  502    0  0.00000000000E+00  0.00000000000E+00  0.22524945466E+03  0.22524945466E+03  0.00000000000E+00 0. -1.
          1   -1    0    0  501    0 -0.00000000000E+00 -0.00000000000E+00 -0.15014496872E+04  0.15014496872E+04  0.00000000000E+00 0. -1.
         25    2    1    2    0    0 -0.31011155951E+02 -0.14052899389E+01  0.89815616943E+02  0.15701674252E+03  0.12499498291E+03 0.  0.
          2    1    1    2  501    0 -0.10522648682E+02 -0.23918336830E+02 -0.14619163425E+04  0.14621498574E+04  0.00000000000E+00 0. -1.
          1    1    1    2  502    0  0.41533804633E+02  0.25323626769E+02  0.95900493065E+02  0.10753254191E+03  0.00000000000E+00 0. -1.
         22    1    3    3    0    0 -0.26202051840E+02  0.55609788608E+02  0.15814324674E+02  0.63475105156E+02  0.00000000000E+00 0. -1.
         22    1    3    3    0    0 -0.48091041117E+01 -0.57015078547E+02  0.74001292269E+02  0.93541637368E+02  0.00000000000E+00 0. -1.
</event>
<event>
 7    1  0.5950675E-006  0.1069618E+03  0.7818608E-02  0.1418768E+00
          2   -1    0    0  502    0  0.00000000000E+00  0.00000000000E+00  0.57803532346E+03  0.57803532346E+03  0.00000000000E+00 0. -1.
          1   -1    0    0  501    0 -0.00000000000E+00 -0.00000000000E+00 -0.52108538719E+03  0.52108538719E+03  0.00000000000E+00 0. -1.
         25    2    1    2    0    0  0.55469484790E+02 -0.12256278462E+03 -0.94097428724E+02  0.20634359944E+03  0.12499942008E+03 0.  0.
          2    1    1    2  501    0 -0.12530804653E+02  0.25677906216E+02 -0.36492123013E+03  0.36603808563E+03  0.00000000000E+00 0. -1.
          1    1    1    2  502    0 -0.42938680137E+02  0.96884878403E+02  0.51596859512E+03  0.52673902558E+03  0.00000000000E+00 0. -1.
         22    1    3    3    0    0  0.48605918789E+02 -0.13256633394E+03 -0.34266018427E+02  0.14529462569E+03  0.00000000000E+00 0. -1.
         22    1    3    3    0    0  0.68635660006E+01  0.10003549323E+02 -0.59831410297E+02  0.61048973746E+02  0.00000000000E+00 0. -1.
</event>
<event>
 7    1  0.1008970E-005  0.1020373E+03  0.7818608E-02  0.1307568E+00
          2   -1    0    0  502    0  0.00000000000E+00  0.00000000000E+00  0.10833427749E+04  0.10833427749E+04  0.00000000000E+00 0. -1.
          1   -1    0    0  501    0 -0.00000000000E+00 -0.00000000000E+00 -0.25064728968E+04  0.25064728968E+04  0.00000000000E+00 0. -1.
         25    2    1    2    0    0 -0.51427267743E+02 -0.75752677235E+02 -0.14883023010E+04  0.14963459583E+04  0.12499702333E+03 0.  0.
          2    1    1    2  501    0 -0.85864679619E+01  0.12243519387E+03 -0.10090867122E+04  0.10165235348E+04  0.00000000000E+00 0. -1.
          1    1    1    2  502    0  0.60013735705E+02 -0.46682516639E+02  0.10742588913E+04  0.10769461785E+04  0.00000000000E+00 0. -1.
         22    1    3    3    0    0 -0.40669793325E+02 -0.56422095117E+02 -0.30471533039E+03  0.31255226360E+03  0.00000000000E+00 0. -1.
         22    1    3    3    0    0 -0.10757474418E+02 -0.19330582118E+02 -0.11835869706E+04  0.11837936947E+04  0.00000000000E+00 0. -1.
</event>
<event>
 7    1  0.5950675E-006  0.5824302E+02  0.7818608E-02  0.1522489E+00
          2   -1    0    0  502    0  0.00000000000E+00  0.00000000000E+00  0.54160568936E+03  0.54160568936E+03  0.00000000000E+00 0. -1.
          1   -1    0    0  501    0 -0.00000000000E+00 -0.00000000000E+00 -0.13344291871E+04  0.13344291871E+04  0.00000000000E+00 0. -1.
         25    2    1    2    0    0 -0.77227552951E+02 -0.13190320566E+02 -0.88417352694E+03  0.89639435481E+03  0.12498773586E+03 0.  0.
          2    1    1    2  501    0  0.23341464801E+02 -0.88269789029E+01 -0.44221049190E+03  0.44291405338E+03  0.00000000000E+00 0. -1.
          1    1    1    2  502    0  0.53886088151E+02  0.22017299469E+02  0.53356052114E+03  0.53672646823E+03  0.00000000000E+00 0. -1.
         22    1    3    3    0    0  0.14179215325E+02 -0.18618642723E+02 -0.33836717286E+02  0.41141553699E+02  0.00000000000E+00 0. -1.
         22    1    3    3    0    0 -0.91406768277E+02  0.54283221563E+01 -0.85033680965E+03  0.85525280111E+03  0.00000000000E+00 0. -1.
</event>
<event>
 7    1  0.5950675E-006  0.4974889E+02  0.7818608E-02  0.1481777E+00
          2   -1    0    0  502    0  0.00000000000E+00  0.00000000000E+00  0.63928328330E+02  0.63928328330E+02  0.00000000000E+00 0. -1.
          1   -1    0    0  501    0 -0.00000000000E+00 -0.00000000000E+00 -0.16114476648E+04  0.16114476648E+04  0.00000000000E+00 0. -1.
         25    2    1    2    0    0  0.74836285929E+02  0.39207146941E+02 -0.29583117355E+03  0.33208258971E+03  0.12500037233E+03 0.  0.
          2    1    1    2  501    0 -0.47418034041E+02 -0.12014332219E+02 -0.12888041747E+04  0.12897321485E+04  0.00000000000E+00 0. -1.
          1    1    1    2  502    0 -0.27418251889E+02 -0.27192814722E+02  0.37116011724E+02  0.53561254984E+02  0.00000000000E+00 0. -1.
         22    1    3    3    0    0 -0.13798540957E+02 -0.33179851135E+02 -0.59662974335E+02  0.69648925048E+02  0.00000000000E+00 0.  1.
         22    1    3    3    0    0  0.88634826886E+02  0.72386998076E+02 -0.23616819922E+03  0.26243366466E+03  0.00000000000E+00 0.  1.
</event>
<event>
 7    1  0.5950675E-006  0.7828019E+02  0.7818608E-02  0.1404919E+00
          2   -1    0    0  502    0  0.00000000000E+00  0.00000000000E+00  0.12304186030E+04  0.12304186030E+04  0.00000000000E+00 0. -1.
          1   -1    0    0  501    0 -0.00000000000E+00 -0.00000000000E+00 -0.70299948755E+02  0.70299948755E+02  0.00000000000E+00 0. -1.
         25    2    1    2    0    0 -0.10304916390E+03  0.27632822976E+02  0.20357560526E+03  0.26163050009E+03  0.12499915374E+03 0.  0.
          2    1    1    2  501    0  0.26246646352E+02 -0.34669337568E+02 -0.27876366384E+02  0.51652117236E+02  0.00000000000E+00 0. -1.
          1    1    1    2  502    0  0.76802517546E+02  0.70365145925E+01  0.98441941537E+03  0.98743593442E+03  0.00000000000E+00 0. -1.
         22    1    3    3    0    0 -0.67751684982E+02 -0.25770234763E+02  0.17889602974E+03  0.19302379458E+03  0.00000000000E+00 0.  1.
         22    1    3    3    0    0 -0.35297478916E+02  0.53403057738E+02  0.24679575524E+02  0.68606705515E+02  0.00000000000E+00 0.  1.
</event>
<event>
 7    1  0.5950675E-006  0.1180502E+03  0.7818608E-02  0.1273368E+00
          2   -1    0    0  502    0  0.00000000000E+00  0.00000000000E+00  0.47621441133E+04  0.47621441133E+04  0.00000000000E+00 0. -1.
          1   -1    0    0  501    0 -0.00000000000E+00 -0.00000000000E+00 -0.11967987276E+04  0.11967987276E+04  0.00000000000E+00 0. -1.
         25    2    1    2    0    0  0.13336031554E+03  0.42971828249E+02 -0.98532599933E+03  0.10030571589E+04  0.12499914888E+03 0.  0.
          2    1    1    2  501    0 -0.54187104062E+02 -0.86836306783E+02 -0.18921999367E+03  0.21513017553E+03  0.00000000000E+00 0. -1.
          1    1    1    2  502    0 -0.79173211478E+02  0.43864478533E+02  0.47398913787E+04  0.47407555064E+04  0.00000000000E+00 0. -1.
         22    1    3    3    0    0  0.68911567487E+02  0.64860048316E+02 -0.80090915685E+03  0.80648069259E+03  0.00000000000E+00 0. -1.
         22    1    3    3    0    0  0.64448748053E+02 -0.21888220067E+02 -0.18441684248E+03  0.19657646628E+03  0.00000000000E+00 0. -1.
</event>
<event>
 7    1  0.5950675E-006  0.6786516E+02  0.7818608E-02  0.1449008E+00
          2   -1    0    0  502    0  0.00000000000E+00  0.00000000000E+00  0.34211608791E+03  0.34211608791E+03  0.00000000000E+00 0. -1.
          1   -1    0    0  501    0 -0.00000000000E+00 -0.00000000000E+00 -0.17351127574E+04  0.17351127574E+04  0.00000000000E+00 0. -1.
         25    2    1    2    0    0 -0.65726901492E+02 -0.42888047818E+02 -0.35074608460E+03  0.38053428467E+03  0.12499646286E+03 0.  0.
          2    1    1    2  501    0  0.67355054975E+02  0.70730051432E+01 -0.13676501015E+04  0.13693259404E+04  0.00000000000E+00 0. -1.
          1    1    1    2  502    0 -0.16281534830E+01  0.35815042675E+02  0.32539951657E+03  0.32736862029E+03  0.00000000000E+00 0. -1.
         22    1    3    3    0    0 -0.98197241615E+02 -0.41760148731E+02 -0.31321868086E+03  0.33089658554E+03  0.00000000000E+00 0. -1.
         22    1    3    3    0    0  0.32470340122E+02 -0.11278990873E+01 -0.37527403739E+02  0.49637699135E+02  0.00000000000E+00 0. -1.
</event>
<event>
 7    1  0.5950675E-006  0.5143094E+02  0.7818608E-02  0.1518950E+00
          2   -1    0    0  502    0  0.00000000000E+00  0.00000000000E+00  0.88896338288E+03  0.88896338288E+03  0.00000000000E+00 0. -1.
          1   -1    0    0  501    0 -0.00000000000E+00 -0.00000000000E+00 -0.72211540199E+02  0.72211540199E+02  0.00000000000E+00 0. -1.
         25    2    1    2    0    0 -0.51756044858E+02  0.54072382088E+02  0.10010354657E+03  0.17677236282E+03  0.12500095015E+03 0.  0.
          2    1    1    2  501    0  0.25853650881E+02 -0.41174378326E+02 -0.15999747856E+02  0.51183323709E+02  0.00000000000E+00 0. -1.
          1    1    1    2  502    0  0.25902393976E+02 -0.12898003762E+02  0.73264804396E+03  0.73321923654E+03  0.00000000000E+00 0. -1.
         22    1    3    3    0    0 -0.75943184868E+02  0.78217454842E+02  0.89313495801E+02  0.14093345274E+03  0.00000000000E+00 0.  1.
         22    1    3    3    0    0  0.24187140010E+02 -0.24145072754E+02  0.10790050770E+02  0.35838910080E+02  0.00000000000E+00 0.  1.
</event>
<event>
 7    1  0.5950675E-006  0.2256613E+03  0.7818608E-02  0.1205132E+00
          2   -1    0    0  502    0  0.00000000000E+00  0.00000000000E+00  0.72754598918E+03  0.72754598918E+03  0.00000000000E+00 0. -1.
          1   -1    0    0  501    0 -0.00000000000E+00 -0.00000000000E+00 -0.69962871685E+03  0.69962871685E+03  0.00000000000E+00 0. -1.
         25    2    1    2    0    0 -0.66422766909E+02  0.28050453950E+03 -0.20987644618E+03  0.37784574764E+03  0.12499802282E+03 0.  0.
          2    1    1    2  501    0  0.86929981435E+02 -0.18793779380E+03 -0.37546797764E+03  0.42878157405E+03  0.00000000000E+00 0. -1.
          1    1    1    2  502    0 -0.20507214526E+02 -0.92566745703E+02  0.61326169614E+03  0.62054738434E+03  0.00000000000E+00 0. -1.
         22    1    3    3    0    0 -0.38101391498E+02  0.91166910184E+02 -0.14547790037E+03  0.17586057274E+03  0.00000000000E+00 0. -1.
         22    1    3    3    0    0 -0.28321375411E+02  0.18933762931E+03 -0.64398545803E+02  0.20198517490E+03  0.00000000000E+00 0. -1.
</event>
<event>
 7    1  0.5950675E-006  0.7873042E+02  0.7818608E-02  0.1355279E+00
          2   -1    0    0  502    0  0.00000000000E+00  0.00000000000E+00  0.20346797955E+03  0.20346797955E+03  0.00000000000E+00 0. -1.
          1   -1    0    0  501    0 -0.00000000000E+00 -0.00000000000E+00 -0.53637394890E+03  0.53637394890E+03  0.00000000000E+00 0. -1.
         25    2    1    2    0    0  0.28403275230E+02  0.10303238484E+03 -0.92384892029E+02  0.18862591472E+03  0.12498939578E+03 0.  0.
          2    1    1    2  501    0  0.33573382180E+02 -0.55443523053E+02 -0.38314537121E+03  0.38858915544E+03  0.00000000000E+00 0. -1.
          1    1    1    2  502    0 -0.61976657410E+02 -0.47588861789E+02  0.14262429390E+03  0.16262685830E+03  0.00000000000E+00 0. -1.
         22    1    3    3    0    0 -0.19797007906E+02  0.15882996297E+02 -0.85060420844E+02  0.88766357859E+02  0.00000000000E+00 0.  1.
         22    1    3    3    0    0  0.48200283136E+02  0.87149388545E+02 -0.73244711841E+01  0.99859556860E+02  0.00000000000E+00 0.  1.
</event>
<event>
 7    1  0.5950675E-006  0.1420843E+03  0.7818608E-02  0.1267396E+00
          2   -1    0    0  502    0  0.00000000000E+00  0.00000000000E+00  0.11603043947E+04  0.11603043947E+04  0.00000000000E+00 0. -1.
          1   -1    0    0  501    0 -0.00000000000E+00 -0.00000000000E+00 -0.58290147578E+03  0.58290147578E+03  0.00000000000E+00 0. -1.
         25    2    1    2    0    0  0.93828569948E+01  0.84150390020E+02  0.23051485750E+03  0.27555654618E+03  0.12499993788E+03 0.  0.
          2    1    1    2  501    0  0.52077359649E+02 -0.13484520273E+03 -0.54926199192E+03  0.56796480160E+03  0.00000000000E+00 0. -1.
          1    1    1    2  502    0 -0.61460216644E+02  0.50694812714E+02  0.89615005332E+03  0.89968452267E+03  0.00000000000E+00 0. -1.
         22    1    3    3    0    0  0.63483058691E+02  0.60379814099E+02  0.10444840955E+03  0.13632788031E+03  0.00000000000E+00 0.  1.
         22    1    3    3    0    0 -0.54100201697E+02  0.23770575921E+02  0.12606644794E+03  0.13922866587E+03  0.00000000000E+00 0.  1.
</event>
<event>
 7    1  0.5950675E-006  0.6838314E+02  0.7818608E-02  0.1367937E+00
          2   -1    0    0  502    0  0.00000000000E+00  0.00000000000E+00  0.34342425660E+03  0.34342425660E+03  0.00000000000E+00 0. -1.
          1   -1    0    0  501    0 -0.00000000000E+00 -0.00000000000E+00 -0.25126118647E+03  0.25126118647E+03  0.00000000000E+00 0. -1.
         25    2    1    2    0    0  0.42125520537E+02 -0.70495843128E+02  0.54526828636E+02  0.15917836186E+03  0.12498140847E+03 0.  0.
          2    1    1    2  501    0  0.24737886955E+02  0.64738536415E+02 -0.18786011871E+03  0.20023602411E+03  0.00000000000E+00 0. -1.
          1    1    1    2  502    0 -0.66863407492E+02  0.57573067126E+01  0.22549636021E+03  0.23527105711E+03  0.00000000000E+00 0. -1.
         22    1    3    3    0    0  0.77876758522E+02 -0.14322091041E+02  0.11784904036E+02  0.80054954705E+02  0.00000000000E+00 0.  1.
         22    1    3    3    0    0 -0.35751237985E+02 -0.56173752087E+02  0.42741924600E+02  0.79123407153E+02  0.00000000000E+00 0.  1.
</event>
<event>
 7    1  0.5950675E-006  0.8161989E+02  0.7818608E-02  0.1369037E+00
          2   -1    0    0  502    0  0.00000000000E+00  0.00000000000E+00  0.10759976238E+03  0.10759976238E+03  0.00000000000E+00 0. -1.
          1   -1    0    0  501    0 -0.00000000000E+00 -0.00000000000E+00 -0.12485170010E+04  0.12485170010E+04  0.00000000000E+00 0. -1.
         25    2    1    2    0    0  0.13295131056E+02  0.96322828789E+02 -0.58121779571E+03  0.60240695957E+03  0.12500068412E+03 0.  0.
          2    1    1    2  501    0  0.42181811555E+02 -0.36400700675E+02 -0.63808732635E+03  0.64051522408E+03  0.00000000000E+00 0. -1.
          1    1    1    2  502    0 -0.55476942610E+02 -0.59922128115E+02  0.78387883464E+02  0.11319457970E+03  0.00000000000E+00 0. -1.
         22    1    3    3    0    0 -0.70724704022E+01  0.91665243471E+01  0.25185888073E+01  0.11848556696E+02  0.00000000000E+00 0. -1.
         22    1    3    3    0    0  0.20367601458E+02  0.87156304442E+02 -0.58373638452E+03  0.59055840288E+03  0.00000000000E+00 0. -1.
</event>
<event>
 7    1  0.5950675E-006  0.2067270E+03  0.7818608E-02  0.1313806E+00
          2   -1    0    0  502    0  0.00000000000E+00  0.00000000000E+00  0.82703827304E+03  0.82703827304E+03  0.00000000000E+00 0. -1.
          1   -1    0    0  501    0 -0.00000000000E+00 -0.00000000000E+00 -0.61538461511E+03  0.61538461511E+03  0.00000000000E+00 0. -1.
         25    2    1    2    0    0  0.12150530316E+03 -0.13868319298E+03  0.11277323881E+03  0.24967791937E+03  0.12499877327E+03 0.  0.
          2    1    1    2  501    0  0.57608067276E+00 -0.35460577578E+02 -0.52881328354E+03  0.53000120120E+03  0.00000000000E+00 0. -1.
          1    1    1    2  502    0 -0.12208138383E+03  0.17414377056E+03  0.62769370266E+03  0.66274376758E+03  0.00000000000E+00 0. -1.
         22    1    3    3    0    0  0.10062498431E+03 -0.13870906519E+03  0.42761224986E+02  0.17661855677E+03  0.00000000000E+00 0.  1.
         22    1    3    3    0    0  0.20880318848E+02  0.25872205710E-01  0.70012013821E+02  0.73059362602E+02  0.00000000000E+00 0.  1.
</event>
<event>
 7    1  0.5950675E-006  0.8105512E+02  0.7818608E-02  0.1427779E+00
          2   -1    0    0  502    0  0.00000000000E+00  0.00000000000E+00  0.14813500588E+04  0.14813500588E+04  0.00000000000E+00 0. -1.
          1   -1    0    0  501    0 -0.00000000000E+00 -0.00000000000E+00 -0.35799258722E+02  0.35799258722E+02  0.00000000000E+00 0. -1.
         25    2    1    2    0    0 -0.20061327060E+02  0.75955490234E+02  0.17632281039E+03  0.22997032162E+03  0.12499968808E+03 0.  0.
          2    1    1    2  501    0 -0.32463715406E+02 -0.13585269667E+02  0.32933000596E+02  0.48197872340E+02  0.00000000000E+00 0. -1.
          1    1    1    2  502    0  0.52525042466E+02 -0.62370220568E+02  0.12362949891E+04  0.12389811235E+04  0.00000000000E+00 0. -1.
         22    1    3    3    0    0 -0.28895967978E+02  0.76122255408E+02  0.19389748386E+03  0.21029933186E+03  0.00000000000E+00 0.  1.
         22    1    3    3    0    0  0.88346409183E+01 -0.16676517342E+00 -0.17574673464E+02  0.19670989761E+02  0.00000000000E+00 0.  1.
</event>
<event>
 7    1  0.5950675E-006  0.5437468E+02  0.7818608E-02  0.1448196E+00
          2   -1    0    0  502    0  0.00000000000E+00  0.00000000000E+00  0.26759483333E+04  0.26759483333E+04  0.00000000000E+00 0. -1.
          1   -1    0    0  501    0 -0.00000000000E+00 -0.00000000000E+00 -0.12958176605E+02  0.12958176605E+02  0.00000000000E+00 0. -1.
         25    2    1    2    0    0  0.11440240736E+01  0.19675224384E+02  0.11852091059E+04  0.11919454924E+04  0.12500003552E+03 0.  0.
          2    1    1    2  501    0 -0.41519107079E+02 -0.39582728882E+02  0.79923610761E+02  0.98378921703E+02  0.00000000000E+00 0. -1.
          1    1    1    2  502    0  0.40375083005E+02  0.19907504498E+02  0.13978574400E+04  0.13985820958E+04  0.00000000000E+00 0. -1.
         22    1    3    3    0    0  0.47371618304E+02 -0.31612662733E+02  0.59127733406E+03  0.59401373421E+03  0.00000000000E+00 0. -1.
         22    1    3    3    0    0 -0.46227594231E+02  0.51287887117E+02  0.59393177187E+03  0.59793175820E+03  0.00000000000E+00 0. -1.
</event>
<event>
 7    1  0.5950675E-006  0.4417030E+02  0.7818608E-02  0.1512061E+00
          2   -1    0    0  502    0  0.00000000000E+00  0.00000000000E+00  0.55568367649E+03  0.55568367649E+03  0.00000000000E+00 0. -1.
          1   -1    0    0  501    0 -0.00000000000E+00 -0.00000000000E+00 -0.13368261067E+03  0.13368261067E+03  0.00000000000E+00 0. -1.
         25    2    1    2    0    0 -0.13158440192E+02  0.65941596182E+02  0.22976288681E+03  0.27006923360E+03  0.12499987251E+03 0.  0.
          2    1    1    2  501    0 -0.12776670664E+02 -0.42008304616E+02 -0.10821224318E+03  0.11678112238E+03  0.00000000000E+00 0. -1.
          1    1    1    2  502    0  0.25935110856E+02 -0.23933291566E+02  0.30045042219E+03  0.30251593118E+03  0.00000000000E+00 0. -1.
         22    1    3    3    0    0  0.23368736796E+02  0.83597882976E+02  0.20479488100E+03  0.22243121899E+03  0.00000000000E+00 0.  1.
         22    1    3    3    0    0 -0.36527176989E+02 -0.17656286794E+02  0.24968005807E+02  0.47638014611E+02  0.00000000000E+00 0.  1.
</event>
<event>
 7    1  0.5950675E-006  0.8467635E+02  0.7818608E-02  0.1351177E+00
          2   -1    0    0  502    0  0.00000000000E+00  0.00000000000E+00  0.15845044104E+03  0.15845044104E+03  0.00000000000E+00 0. -1.
          1   -1    0    0  501    0 -0.00000000000E+00 -0.00000000000E+00 -0.42495132900E+03  0.42495132900E+03  0.00000000000E+00 0. -1.
         25    2    1    2    0    0  0.91635709375E+02  0.62812680779E+02  0.74409269447E+02  0.18304365655E+03  0.12500281886E+03 0.  0.
          2    1    1    2  501    0 -0.23133111345E+02 -0.57953924104E+02 -0.32356466495E+03  0.32952676760E+03  0.00000000000E+00 0. -1.
          1    1    1    2  502    0 -0.68502598030E+02 -0.48587566746E+01 -0.17345492452E+02  0.70831345898E+02  0.00000000000E+00 0. -1.
         22    1    3    3    0    0 -0.46676133556E+01  0.67527013287E+02  0.13569924886E+02  0.69034969395E+02  0.00000000000E+00 0. -1.
         22    1    3    3    0    0  0.96303322731E+02 -0.47143325084E+01  0.60839344561E+02  0.11400868715E+03  0.00000000000E+00 0. -1.
</event>
<event>
 7    1  0.5950675E-006  0.5691353E+02  0.7818608E-02  0.1421297E+00
          2   -1    0    0  502    0  0.00000000000E+00  0.00000000000E+00  0.30829138647E+04  0.30829138647E+04  0.00000000000E+00 0. -1.
          1   -1    0    0  501    0 -0.00000000000E+00 -0.00000000000E+00 -0.94808766958E+02  0.94808766958E+02  0.00000000000E+00 0. -1.
         25    2    1    2    0    0 -0.36686400512E+02 -0.85713487355E+02  0.50341524002E+03  0.52700967306E+03  0.12497838900E+03 0.  0.
          2    1    1    2  501    0  0.45264127799E+02  0.33752750069E+02 -0.73107700465E+02  0.92373293055E+02  0.00000000000E+00 0. -1.
          1    1    1    2  502    0 -0.85777272875E+01  0.51960737287E+02  0.25577975582E+04  0.25583396655E+04  0.00000000000E+00 0. -1.
         22    1    3    3    0    0 -0.92552546499E+01 -0.10089252362E+03  0.47153580738E+03  0.48229760387E+03  0.00000000000E+00 0. -1.
         22    1    3    3    0    0 -0.27431145862E+02  0.15179036268E+02  0.31879432641E+02  0.44712069185E+02  0.00000000000E+00 0. -1.
</event>
<event>
 7    1  0.5950675E-006  0.8153516E+02  0.7818608E-02  0.1354485E+00
          2   -1    0    0  502    0  0.00000000000E+00  0.00000000000E+00  0.39233541887E+04  0.39233541887E+04  0.00000000000E+00 0. -1.
          1   -1    0    0  501    0 -0.00000000000E+00 -0.00000000000E+00 -0.34263666730E+02  0.34263666730E+02  0.00000000000E+00 0. -1.
         25    2    1    2    0    0  0.13782593929E+03  0.52939614371E+01  0.67352656028E+03  0.69877528765E+03  0.12499943859E+03 0.  0.
          2    1    1    2  501    0 -0.75140448396E+02 -0.11671418019E+02  0.46458137246E+02  0.89110423072E+02  0.00000000000E+00 0. -1.
          1    1    1    2  502    0 -0.62685490893E+02  0.63774565819E+01  0.31691058244E+04  0.31697321447E+04  0.00000000000E+00 0. -1.
         22    1    3    3    0    0  0.15651709593E+03 -0.16375771455E+02  0.55926221398E+03  0.58098191985E+03  0.00000000000E+00 0. -1.
         22    1    3    3    0    0 -0.18691156640E+02  0.21669732892E+02  0.11426434630E+03  0.11779336779E+03  0.00000000000E+00 0. -1.
</event>
<event>
 7    1  0.5950675E-006  0.1706397E+03  0.7818608E-02  0.1269707E+00
          2   -1    0    0  502    0  0.00000000000E+00  0.00000000000E+00  0.77035287909E+03  0.77035287909E+03  0.00000000000E+00 0. -1.
          1   -1    0    0  501    0 -0.00000000000E+00 -0.00000000000E+00 -0.87979037741E+03  0.87979037741E+03  0.00000000000E+00 0. -1.
         25    2    1    2    0    0 -0.38631326473E+02  0.21790354633E+03  0.95614887126E+02  0.27155991337E+03  0.12501297941E+03 0.  0.
          2    1    1    2  501    0  0.36549400377E+02 -0.53591485859E+02 -0.77893824420E+03  0.78163462967E+03  0.00000000000E+00 0. -1.
          1    1    1    2  502    0  0.20819260961E+01 -0.16431206047E+03  0.57388585875E+03  0.59694871346E+03  0.00000000000E+00 0. -1.
         22    1    3    3    0    0  0.37021833272E+02  0.60281730818E+02 -0.30427321395E+01  0.70807919248E+02  0.00000000000E+00 0. -1.
         22    1    3    3    0    0 -0.75653159745E+02  0.15762181551E+03  0.98657619266E+02  0.20075199412E+03  0.00000000000E+00 0. -1.
</event>
<event>
 7    1  0.5950675E-006  0.6824840E+02  0.7818608E-02  0.1440430E+00
          2   -1    0    0  502    0  0.00000000000E+00  0.00000000000E+00  0.28737028972E+04  0.28737028972E+04  0.00000000000E+00 0. -1.
          1   -1    0    0  501    0 -0.00000000000E+00 -0.00000000000E+00 -0.73906581068E+02  0.73906581068E+02  0.00000000000E+00 0. -1.
         25    2    1    2    0    0 -0.42199067544E+02 -0.44643984990E+01  0.25298143695E+03  0.28535236994E+03  0.12500270171E+03 0.  0.
          2    1    1    2  501    0 -0.14466206876E+02 -0.35132818177E+02 -0.50958667232E+02  0.63563919172E+02  0.00000000000E+00 0. -1.
          1    1    1    2  502    0  0.56665274420E+02  0.39597216676E+02  0.25977735464E+04  0.25986931891E+04  0.00000000000E+00 0. -1.
         22    1    3    3    0    0 -0.12508530393E+02 -0.44132876367E+02  0.22249763256E+03  0.22717695879E+03  0.00000000000E+00 0.  1.
         22    1    3    3    0    0 -0.29690537151E+02  0.39668477868E+02  0.30483804382E+02  0.58175411149E+02  0.00000000000E+00 0.  1.
</event>
<event>
 7    1  0.5950675E-006  0.6183084E+02  0.7818608E-02  0.1519440E+00
          2   -1    0    0  502    0  0.00000000000E+00  0.00000000000E+00  0.66317116875E+03  0.66317116875E+03  0.00000000000E+00 0. -1.
          1   -1    0    0  501    0 -0.00000000000E+00 -0.00000000000E+00 -0.19625392863E+03  0.19625392863E+03  0.00000000000E+00 0. -1.
         25    2    1    2    0    0  0.26597395873E+02  0.73371216883E+02  0.97249969881E+02  0.17655987906E+03  0.12500030928E+03 0.  0.
          2    1    1    2  501    0  0.77398194296E+01 -0.22707345732E+02 -0.15388699662E+03  0.15574574179E+03  0.00000000000E+00 0. -1.
          1    1    1    2  502    0 -0.34337215302E+02 -0.50663871150E+02  0.52355426686E+03  0.52711947654E+03  0.00000000000E+00 0. -1.
         22    1    3    3    0    0  0.73431279274E+02  0.38798601960E+02  0.31705810247E+02  0.88897371690E+02  0.00000000000E+00 0.  1.
         22    1    3    3    0    0 -0.46833883401E+02  0.34572614923E+02  0.65544159633E+02  0.87662507374E+02  0.00000000000E+00 0.  1.
</event>
<event>
 7    1  0.5950675E-006  0.8936056E+02  0.7818608E-02  0.1428089E+00
          2   -1    0    0  502    0  0.00000000000E+00  0.00000000000E+00  0.44989639653E+03  0.44989639653E+03  0.00000000000E+00 0. -1.
          1   -1    0    0  501    0 -0.00000000000E+00 -0.00000000000E+00 -0.74183260685E+03  0.74183260685E+03  0.00000000000E+00 0. -1.
         25    2    1    2    0    0  0.18672247397E+02 -0.65006364981E+02 -0.17511488493E+03  0.22551094306E+03  0.12496192301E+03 0.  0.
          2    1    1    2  501    0 -0.46368175946E+02  0.80725406293E+02 -0.53691151252E+03  0.54492253691E+03  0.00000000000E+00 0. -1.
          1    1    1    2  502    0  0.27695928549E+02 -0.15719041312E+02  0.42009018713E+03  0.42129552341E+03  0.00000000000E+00 0. -1.
         22    1    3    3    0    0  0.27983059507E+02 -0.91087080096E+02 -0.17328656777E+03  0.19775778708E+03  0.00000000000E+00 0.  1.
         22    1    3    3    0    0 -0.93108121096E+01  0.26080715116E+02 -0.18283171569E+01  0.27753155977E+02  0.00000000000E+00 0.  1.
</event>
<event>
 7    1  0.5950675E-006  0.4197583E+02  0.7818608E-02  0.1541554E+00
          2   -1    0    0  502    0  0.00000000000E+00  0.00000000000E+00  0.86007586656E+03  0.86007586656E+03  0.00000000000E+00 0. -1.
          1   -1    0    0  501    0 -0.00000000000E+00 -0.00000000000E+00 -0.24469734131E+03  0.24469734131E+03  0.00000000000E+00 0. -1.
         25    2    1    2    0    0  0.80025382486E+01 -0.70859235321E+01  0.73540690545E+03  0.74603124515E+03  0.12500020491E+03 0.  0.
          2    1    1    2  501    0  0.34650266427E+02 -0.23692383557E+02 -0.23161087360E+03  0.23538387110E+03  0.00000000000E+00 0. -1.
          1    1    1    2  502    0 -0.42652804676E+02  0.30778307089E+02  0.11158249340E+03  0.12335809162E+03  0.00000000000E+00 0. -1.
         22    1    3    3    0    0 -0.37074460041E+02 -0.12945659853E+02  0.80691624908E+02  0.89739868657E+02  0.00000000000E+00 0. -1.
         22    1    3    3    0    0  0.45076998289E+02  0.58597363213E+01  0.65471528054E+03  0.65629137649E+03  0.00000000000E+00 0. -1.
</event>
<event>
 7    1  0.5950675E-006  0.1873442E+03  0.7818608E-02  0.1313699E+00
          2   -1    0    0  502    0  0.00000000000E+00  0.00000000000E+00  0.11284754884E+04  0.11284754884E+04  0.00000000000E+00 0. -1.
          1   -1    0    0  501    0 -0.00000000000E+00 -0.00000000000E+00 -0.36090040214E+04  0.36090040214E+04  0.00000000000E+00 0. -1.
         25    2    1    2    0    0  0.15565496191E+03 -0.92085431961E+02 -0.50588963868E+03  0.55159505381E+03  0.12499833164E+03 0.  0.
          2    1    1    2  501    0 -0.13896032591E+03  0.12752231288E+03 -0.30770263827E+04  0.30828012054E+04  0.00000000000E+00 0. -1.
          1    1    1    2  502    0 -0.16694635999E+02 -0.35436880914E+02  0.11023874883E+04  0.11030832506E+04  0.00000000000E+00 0. -1.
         22    1    3    3    0    0  0.12307122729E+02 -0.40148834720E+02 -0.29281158787E+02  0.51193558767E+02  0.00000000000E+00 0. -1.
         22    1    3    3    0    0  0.14334783918E+03 -0.51936597241E+02 -0.47660847990E+03  0.50040149504E+03  0.00000000000E+00 0. -1.
</event>
<event>
 7    1  0.5950675E-006  0.1518360E+03  0.7818608E-02  0.1418625E+00
          2   -1    0    0  502    0  0.00000000000E+00  0.00000000000E+00  0.18074982995E+03  0.18074982995E+03  0.00000000000E+00 0. -1.
          1   -1    0    0  501    0 -0.00000000000E+00 -0.00000000000E+00 -0.47646800845E+03  0.47646800845E+03  0.00000000000E+00 0. -1.
         25    2    1    2    0    0 -0.28883251836E+01 -0.16542862468E+03  0.31231662305E+02  0.20970209745E+03  0.12499832263E+03 0.  0.
          2    1    1    2  501    0 -0.99655197633E+01  0.14991065985E+03 -0.37035084090E+03  0.39966518848E+03  0.00000000000E+00 0. -1.
          1    1    1    2  502    0  0.12853844947E+02  0.15517964826E+02  0.43401000103E+02  0.47850552476E+02  0.00000000000E+00 0. -1.
         22    1    3    3    0    0 -0.61925433852E+02 -0.81094467142E+02 -0.30480235410E+00  0.10203511583E+03  0.00000000000E+00 0. -1.
         22    1    3    3    0    0  0.59037108668E+02 -0.84334157536E+02  0.31536464659E+02  0.10766698162E+03  0.00000000000E+00 0. -1.
</event>
<event>
 7    1  0.5950675E-006  0.1158796E+03  0.7818608E-02  0.1283887E+00
          2   -1    0    0  502    0  0.00000000000E+00  0.00000000000E+00  0.63431551705E+03  0.63431551705E+03  0.00000000000E+00 0. -1.
          1   -1    0    0  501    0 -0.00000000000E+00 -0.00000000000E+00 -0.71113211583E+03  0.71113211583E+03  0.00000000000E+00 0. -1.
         25    2    1    2    0    0  0.48590625530E+02  0.47552955428E+02 -0.21405762816E+03  0.25703755569E+03  0.12500121760E+03 0.  0.
          2    1    1    2  501    0  0.68895357630E+02 -0.47011920780E+02 -0.46621832134E+03  0.47362032701E+03  0.00000000000E+00 0. -1.
          1    1    1    2  502    0 -0.11748598316E+03 -0.54103464815E+00  0.60345935073E+03  0.61478975019E+03  0.00000000000E+00 0. -1.
         22    1    3    3    0    0  0.58362556173E+02 -0.16455821859E+02 -0.43570246049E+02  0.74668255483E+02  0.00000000000E+00 0.  1.
         22    1    3    3    0    0 -0.97719306430E+01  0.64008777287E+02 -0.17048738211E+03  0.18236930020E+03  0.00000000000E+00 0.  1.
</event>
<event>
 7    1  0.5950675E-006  0.7624138E+02  0.7818608E-02  0.1348127E+00
          2   -1    0    0  502    0  0.00000000000E+00  0.00000000000E+00  0.11472778511E+04  0.11472778511E+04  0.00000000000E+00 0. -1.
          1   -1    0    0  501    0 -0.00000000000E+00 -0.00000000000E+00 -0.73581545382E+03  0.73581545382E+03  0.00000000000E+00 0. -1.
         25    2    1    2    0    0 -0.24924784259E+01  0.11774657742E+03  0.75897806686E+02  0.18776431895E+03  0.12499797385E+03 0.  0.
          2    1    1    2  501    0  0.45004793688E+02 -0.55084829618E+02 -0.67660354847E+03  0.68033236856E+03  0.00000000000E+00 0. -1.
          1    1    1    2  502    0 -0.42512315262E+02 -0.62661747805E+02  0.10121681391E+04  0.10149966174E+04  0.00000000000E+00 0. -1.
         22    1    3    3    0    0 -0.34229778974E+02  0.13181089933E+03  0.52759631610E+02  0.14604577939E+03  0.00000000000E+00 0. -1.
         22    1    3    3    0    0  0.31737300548E+02 -0.14064321908E+02  0.23138175076E+02  0.41718539556E+02  0.00000000000E+00 0. -1.
</event>
<event>
 7    1  0.5950675E-006  0.1927620E+03  0.7818608E-02  0.1257849E+00
          2   -1    0    0  502    0  0.00000000000E+00  0.00000000000E+00  0.12980922070E+04  0.12980922070E+04  0.00000000000E+00 0. -1.
          1   -1    0    0  501    0 -0.00000000000E+00 -0.00000000000E+00 -0.38818631911E+04  0.38818631911E+04  0.00000000000E+00 0. -1.
         25    2    1    2    0    0 -0.62059736203E+02  0.19984591129E+03  0.48215771356E+02  0.24847257067E+03  0.12499623455E+03 0.  0.
          2    1    1    2  501    0 -0.20115629218E+01 -0.19264229555E+03 -0.37783747949E+04  0.37832831233E+04  0.00000000000E+00 0. -1.
          1    1    1    2  502    0  0.64071299124E+02 -0.72036157377E+01  0.11463880395E+04  0.11481997041E+04  0.00000000000E+00 0. -1.
         22    1    3    3    0    0 -0.51545147064E+02  0.19193085042E+03  0.24788827490E+00  0.19873201799E+03  0.00000000000E+00 0. -1.
         22    1    3    3    0    0 -0.10514589139E+02  0.79150608724E+01  0.47967883081E+02  0.49740552678E+02  0.00000000000E+00 0. -1.
</event>
<event>
 7    1  0.5950675E-006  0.2976803E+03  0.7818608E-02  0.1193308E+00
          2   -1    0    0  502    0  0.00000000000E+00  0.00000000000E+00  0.16777329976E+04  0.16777329976E+04  0.00000000000E+00 0. -1.
          1   -1    0    0  501    0 -0.00000000000E+00 -0.00000000000E+00 -0.54237690740E+03  0.54237690740E+03  0.00000000000E+00 0. -1.
         25    2    1    2    0    0  0.25081269694E+03 -0.52491483083E+02  0.23187698144E+03  0.36749767054E+03  0.12500095436E+03 0.  0.
          2    1    1    2  501    0 -0.30538978421E+03 -0.83508849319E+01 -0.42401177155E+03  0.52260753916E+03  0.00000000000E+00 0. -1.
          1    1    1    2  502    0  0.54577087267E+02  0.60842368015E+02  0.13274908803E+04  0.13300046953E+04  0.00000000000E+00 0. -1.
         22    1    3    3    0    0  0.33182384091E+01 -0.30089892067E+02  0.43849350411E+01  0.30588232476E+02  0.00000000000E+00 0. -1.
         22    1    3    3    0    0  0.24749445853E+03 -0.22401591016E+02  0.22749204640E+03  0.33690943806E+03  0.00000000000E+00 0. -1.
</event>
<event>
 7    1  0.5950675E-006  0.1323162E+03  0.7818608E-02  0.1256969E+00
          2   -1    0    0  502    0  0.00000000000E+00  0.00000000000E+00  0.25591865829E+03  0.25591865829E+03  0.00000000000E+00 0. -1.
          1   -1    0    0  501    0 -0.00000000000E+00 -0.00000000000E+00 -0.14873382893E+04  0.14873382893E+04  0.00000000000E+00 0. -1.
         25    2    1    2    0    0 -0.14747122863E+03  0.10706630597E+03 -0.48088263126E+03  0.52922998189E+03  0.12500124613E+03 0.  0.
          2    1    1    2  501    0  0.12613816412E+03 -0.14750722088E+02 -0.96827466514E+03  0.97656758466E+03  0.00000000000E+00 0. -1.
          1    1    1    2  502    0  0.21333064511E+02 -0.92315583885E+02  0.21773766545E+03  0.23745938100E+03  0.00000000000E+00 0. -1.
         22    1    3    3    0    0 -0.13517834069E+03  0.57053725807E+02 -0.22782158611E+03  0.27098152431E+03  0.00000000000E+00 0. -1.
         22    1    3    3    0    0 -0.12292887939E+02  0.50012580166E+02 -0.25306104515E+03  0.25824845758E+03  0.00000000000E+00 0. -1.
</event>
<event>
 7    1  0.5950675E-006  0.1066644E+03  0.7818608E-02  0.1275801E+00
          2   -1    0    0  502    0  0.00000000000E+00  0.00000000000E+00  0.17697960165E+04  0.17697960165E+04  0.00000000000E+00 0. -1.
          1   -1    0    0  501    0 -0.00000000000E+00 -0.00000000000E+00 -0.60388068722E+03  0.60388068722E+03  0.00000000000E+00 0. -1.
         25    2    1    2    0    0 -0.60826961712E+02 -0.77933836523E+02  0.56864416675E+02  0.16920875397E+03  0.12499775354E+03 0.  0.
          2    1    1    2  501    0 -0.33562617343E+02  0.10376945890E+03 -0.54081498967E+03  0.55170227744E+03  0.00000000000E+00 0. -1.
          1    1    1    2  502    0  0.94389579055E+02 -0.25835622375E+02  0.16498659022E+04  0.16527656723E+04  0.00000000000E+00 0. -1.
         22    1    3    3    0    0  0.73715737061E+01 -0.89083243851E+02  0.23244565669E+02  0.92360566624E+02  0.00000000000E+00 0. -1.
         22    1    3    3    0    0 -0.68198535418E+02  0.11149407327E+02  0.33619851005E+02  0.76848187347E+02  0.00000000000E+00 0. -1.
</event>
<event>
 7    1  0.8698710E-006  0.6891009E+02  0.7818608E-02  0.1377220E+00
          2   -1    0    0  502    0  0.00000000000E+00  0.00000000000E+00  0.85779424671E+03  0.85779424671E+03  0.00000000000E+00 0. -1.
          1   -1    0    0  501    0 -0.00000000000E+00 -0.00000000000E+00 -0.14908880558E+04  0.14908880558E+04  0.00000000000E+00 0. -1.
         25    2    1    2    0    0 -0.76004060221E+01 -0.87344566674E+02 -0.26981353092E+03  0.31002020664E+03  0.12500539012E+03 0.  0.
          2    1    1    2  501    0  0.51403254236E+02  0.34108604452E+02 -0.11987582837E+04  0.12003445814E+04  0.00000000000E+00 0. -1.
          1    1    1    2  502    0 -0.43802848214E+02  0.53235962222E+02  0.83547800556E+03  0.83831751440E+03  0.00000000000E+00 0. -1.
         22    1    3    3    0    0 -0.37224033519E+02  0.12735128220E+01 -0.17875729119E+02  0.41313341645E+02  0.00000000000E+00 0. -1.
         22    1    3    3    0    0  0.29623627497E+02 -0.88618079496E+02 -0.25193780180E+03  0.26870686499E+03  0.00000000000E+00 0. -1.
</event>
<event>
 7    1  0.5950675E-006  0.8210379E+02  0.7818608E-02  0.1425990E+00
          2   -1    0    0  502    0  0.00000000000E+00  0.00000000000E+00  0.13214569682E+04  0.13214569682E+04  0.00000000000E+00 0. -1.
          1   -1    0    0  501    0 -0.00000000000E+00 -0.00000000000E+00 -0.16466521986E+03  0.16466521986E+03  0.00000000000E+00 0. -1.
         25    2    1    2    0    0  0.26587483502E+02 -0.55017161785E+02  0.78074477870E+02  0.15954379510E+03  0.12499926435E+03 0.  0.
          2    1    1    2  501    0 -0.21579704338E+02 -0.27832781129E+02 -0.11996403729E+03  0.12502686746E+03  0.00000000000E+00 0. -1.
          1    1    1    2  502    0 -0.50077791640E+01  0.82849942914E+02  0.11986813077E+04  0.12015515255E+04  0.00000000000E+00 0. -1.
         22    1    3    3    0    0  0.99889972202E+01 -0.60830772581E+01 -0.34094713787E+02  0.36044880394E+02  0.00000000000E+00 0. -1.
         22    1    3    3    0    0  0.16598486282E+02 -0.48934084527E+02  0.11216919166E+03  0.12349891470E+03  0.00000000000E+00 0. -1.
</event>
<event>
 7    1  0.5950675E-006  0.7863724E+02  0.7818608E-02  0.1448714E+00
          2   -1    0    0  502    0  0.00000000000E+00  0.00000000000E+00  0.74539231380E+03  0.74539231380E+03  0.00000000000E+00 0. -1.
          1   -1    0    0  501    0 -0.00000000000E+00 -0.00000000000E+00 -0.34418361994E+03  0.34418361994E+03  0.00000000000E+00 0. -1.
         25    2    1    2    0    0 -0.98370343411E+02 -0.43415989240E+02 -0.81540704848E+02  0.18395473829E+03  0.12501514551E+03 0.  0.
          2    1    1    2  501    0  0.30713354775E+02  0.42655431296E+01 -0.20808289650E+03  0.21038059995E+03  0.00000000000E+00 0. -1.
          1    1    1    2  502    0  0.67656988636E+02  0.39150446110E+02  0.69083229521E+03  0.69524059551E+03  0.00000000000E+00 0. -1.
         22    1    3    3    0    0 -0.41742625906E+02  0.29612004033E+02 -0.75676607446E+02  0.91357903407E+02  0.00000000000E+00 0.  1.
         22    1    3    3    0    0 -0.56627717505E+02 -0.73027993273E+02 -0.58640974023E+01  0.92596834879E+02  0.00000000000E+00 0.  1.
</event>
<event>
 7    1  0.5950675E-006  0.9484036E+02  0.7818608E-02  0.1357024E+00
          2   -1    0    0  502    0  0.00000000000E+00  0.00000000000E+00  0.19654515375E+04  0.19654515375E+04  0.00000000000E+00 0. -1.
          1   -1    0    0  501    0 -0.00000000000E+00 -0.00000000000E+00 -0.30055165698E+03  0.30055165698E+03  0.00000000000E+00 0. -1.
         25    2    1    2    0    0 -0.19710143478E+02 -0.14518529794E+03 -0.10692073875E+03  0.22028070705E+03  0.12499714008E+03 0.  0.
          2    1    1    2  501    0 -0.99869270467E+00  0.53008994489E+02 -0.13060315908E+03  0.14095437576E+03  0.00000000000E+00 0. -1.
          1    1    1    2  502    0  0.20708836183E+02  0.92176303454E+02  0.19024237783E+04  0.19047681116E+04  0.00000000000E+00 0. -1.
         22    1    3    3    0    0 -0.70485860044E+02 -0.92404304151E+02 -0.84484724003E+02  0.14368187249E+03  0.00000000000E+00 0.  1.
         22    1    3    3    0    0  0.50775716566E+02 -0.52780993792E+02 -0.22436014746E+02  0.76598834561E+02  0.00000000000E+00 0.  1.
</event>
<event>
 7    1  0.5950675E-006  0.2863856E+03  0.7818608E-02  0.1173313E+00
          2   -1    0    0  502    0  0.00000000000E+00  0.00000000000E+00  0.11164063967E+04  0.11164063967E+04  0.00000000000E+00 0. -1.
          1   -1    0    0  501    0 -0.00000000000E+00 -0.00000000000E+00 -0.81135615286E+03  0.81135615286E+03  0.00000000000E+00 0. -1.
         25    2    1    2    0    0  0.26921046522E+03  0.34909535812E+02  0.42964812419E+03  0.52336998571E+03  0.12500272415E+03 0.  0.
          2    1    1    2  501    0  0.20653993982E+01  0.10621152329E+03 -0.72386423119E+03  0.73161778187E+03  0.00000000000E+00 0. -1.
          1    1    1    2  502    0 -0.27127586461E+03 -0.14112105910E+03  0.59926635082E+03  0.67277478198E+03  0.00000000000E+00 0. -1.
         22    1    3    3    0    0  0.18541059267E+03  0.65999887231E+02  0.35912595095E+03  0.40951742531E+03  0.00000000000E+00 0. -1.
         22    1    3    3    0    0  0.83799872548E+02 -0.31090351418E+02  0.70522173249E+02  0.11385256040E+03  0.00000000000E+00 0. -1.
</event>
<event>
 7    1  0.5950675E-006  0.1449717E+03  0.7818608E-02  0.1254541E+00
          2   -1    0    0  502    0  0.00000000000E+00  0.00000000000E+00  0.37362931541E+03  0.37362931541E+03  0.00000000000E+00 0. -1.
          1   -1    0    0  501    0 -0.00000000000E+00 -0.00000000000E+00 -0.42277773927E+03  0.42277773927E+03  0.00000000000E+00 0. -1.
         25    2    1    2    0    0 -0.12915805988E+03 -0.11543389142E+03 -0.10039549552E+03  0.23602827416E+03  0.12499321167E+03 0.  0.
          2    1    1    2  501    0  0.85758700020E+02 -0.22179611696E+02 -0.22879710624E+03  0.24534588977E+03  0.00000000000E+00 0. -1.
          1    1    1    2  502    0  0.43399359858E+02  0.13761350312E+03  0.28004417790E+03  0.31503289075E+03  0.00000000000E+00 0. -1.
         22    1    3    3    0    0 -0.14622196179E+03 -0.66147904659E+02 -0.85210035055E+02  0.18170623951E+03  0.00000000000E+00 0. -1.
         22    1    3    3    0    0  0.17063901915E+02 -0.49285986762E+02 -0.15185460463E+02  0.54322034655E+02  0.00000000000E+00 0. -1.
</event>
<event>
 7    1  0.5950675E-006  0.4280150E+02  0.7818608E-02  0.1510261E+00
          2   -1    0    0  502    0  0.00000000000E+00  0.00000000000E+00  0.26903337728E+03  0.26903337728E+03  0.00000000000E+00 0. -1.
          1   -1    0    0  501    0 -0.00000000000E+00 -0.00000000000E+00 -0.91811418190E+02  0.91811418190E+02  0.00000000000E+00 0. -1.
         25    2    1    2    0    0 -0.96299978022E+01 -0.73722287900E+02  0.73558246763E+02  0.16294388083E+03  0.12494870964E+03 0.  0.
          2    1    1    2  501    0 -0.55899423447E+01  0.40145073106E+02 -0.35534649407E+02  0.53903484661E+02  0.00000000000E+00 0. -1.
          1    1    1    2  502    0  0.15219940147E+02  0.33577214794E+02  0.13919836173E+03  0.14399742998E+03  0.00000000000E+00 0. -1.
         22    1    3    3    0    0 -0.28106812574E+02 -0.10374612968E+03  0.68169948929E+02  0.12728076946E+03  0.00000000000E+00 0. -1.
         22    1    3    3    0    0  0.18476814771E+02  0.30023841778E+02  0.53882978343E+01  0.35663111372E+02  0.00000000000E+00 0. -1.
</event>
<event>
 7    1  0.5950675E-006  0.9200234E+02  0.7818608E-02  0.1447887E+00
          2   -1    0    0  502    0  0.00000000000E+00  0.00000000000E+00  0.10600794887E+04  0.10600794887E+04  0.00000000000E+00 0. -1.
          1   -1    0    0  501    0 -0.00000000000E+00 -0.00000000000E+00 -0.55407299390E+03  0.55407299390E+03  0.00000000000E+00 0. -1.
         25    2    1    2    0    0 -0.62520504199E+01  0.74399037926E+02 -0.34508838771E+02  0.14963250903E+03  0.12499889130E+03 0.  0.
          2    1    1    2  501    0  0.20599457187E+02  0.16933387053E+02 -0.45948343492E+03  0.46025656345E+03  0.00000000000E+00 0. -1.
          1    1    1    2  502    0 -0.14347406767E+02 -0.91332424979E+02  0.99999876848E+03  0.10042634101E+04  0.00000000000E+00 0. -1.
         22    1    3    3    0    0  0.17395055178E+02  0.69641918737E+01  0.41361069669E+02  0.45407334179E+02  0.00000000000E+00 0. -1.
         22    1    3    3    0    0 -0.23647105598E+02  0.67434846052E+02 -0.75869908441E+02  0.10422517485E+03  0.00000000000E+00 0. -1.
</event>
<event>
 7    1  0.5950675E-006  0.1204553E+03  0.7818608E-02  0.1344539E+00
          2   -1    0    0  502    0  0.00000000000E+00  0.00000000000E+00  0.30739548825E+02  0.30739548825E+02  0.00000000000E+00 0. -1.
          1   -1    0    0  501    0 -0.00000000000E+00 -0.00000000000E+00 -0.26761633487E+04  0.26761633487E+04  0.00000000000E+00 0. -1.
         25    2    1    2    0    0  0.67584822322E+02 -0.58706922366E+02 -0.35089068758E+03  0.38309735375E+03  0.12500038751E+03 0.  0.
          2    1    1    2  501    0 -0.11330448384E+03  0.50616513566E+02 -0.22658172560E+04  0.22692130300E+04  0.00000000000E+00 0. -1.
          1    1    1    2  502    0  0.45719661514E+02  0.80904087996E+01 -0.28715856211E+02  0.54592513786E+02  0.00000000000E+00 0. -1.
         22    1    3    3    0    0  0.48450267404E+02  0.24179456242E+02 -0.63861360114E+02  0.83727819937E+02  0.00000000000E+00 0. -1.
         22    1    3    3    0    0  0.19134554918E+02 -0.82886378608E+02 -0.28702932746E+03  0.29936953381E+03  0.00000000000E+00 0. -1.
</event>
<event>
 7    1  0.5950675E-006  0.4562764E+02  0.7818608E-02  0.1549078E+00
          2   -1    0    0  502    0  0.00000000000E+00  0.00000000000E+00  0.10236869789E+04  0.10236869789E+04  0.00000000000E+00 0. -1.
          1   -1    0    0  501    0 -0.00000000000E+00 -0.00000000000E+00 -0.25012356018E+03  0.25012356018E+03  0.00000000000E+00 0. -1.
         25    2    1    2    0    0 -0.67215168332E+02 -0.23702855999E+02 -0.44039469898E+01  0.14396020323E+03  0.12500176450E+03 0.  0.
          2    1    1    2  501    0  0.22822658680E+02  0.13982501155E+02 -0.17437858968E+03  0.17642073752E+03  0.00000000000E+00 0. -1.
          1    1    1    2  502    0  0.44392509651E+02  0.97203548435E+01  0.95234595537E+03  0.95342959830E+03  0.00000000000E+00 0. -1.
         22    1    3    3    0    0 -0.64489433323E+02  0.24103883906E+02 -0.44101209679E+02  0.81760631876E+02  0.00000000000E+00 0. -1.
         22    1    3    3    0    0 -0.27257350088E+01 -0.47806739905E+02  0.39697262689E+02  0.62199571354E+02  0.00000000000E+00 0. -1.
</event>
<event>
 7    1  0.5950675E-006  0.1786051E+03  0.7818608E-02  0.1223179E+00
          2   -1    0    0  502    0  0.00000000000E+00  0.00000000000E+00  0.44187551302E+03  0.44187551302E+03  0.00000000000E+00 0. -1.
          1   -1    0    0  501    0 -0.00000000000E+00 -0.00000000000E+00 -0.12075078731E+04  0.12075078731E+04  0.00000000000E+00 0. -1.
         25    2    1    2    0    0  0.12026993303E+03 -0.14948243114E+02  0.58859574009E+01  0.17420674625E+03  0.12500015672E+03 0.  0.
          2    1    1    2  501    0  0.73910559176E+02  0.65757172061E+02 -0.10923018081E+04  0.10967725455E+04  0.00000000000E+00 0. -1.
          1    1    1    2  502    0 -0.19418049220E+03 -0.50808928948E+02  0.32078349063E+03  0.37840409442E+03  0.00000000000E+00 0. -1.
         22    1    3    3    0    0  0.71915477786E+02  0.65137610845E+01  0.63377776619E+02  0.96078132777E+02  0.00000000000E+00 0.  1.
         22    1    3    3    0    0  0.48354455240E+02 -0.21462004198E+02 -0.57491819218E+02  0.78128613470E+02  0.00000000000E+00 0.  1.
</event>
<event>
 7    1  0.5950675E-006  0.6172888E+02  0.7818608E-02  0.1394078E+00
          2   -1    0    0  502    0  0.00000000000E+00  0.00000000000E+00  0.44621772451E+03  0.44621772451E+03  0.00000000000E+00 0. -1.
          1   -1    0    0  501    0 -0.00000000000E+00 -0.00000000000E+00 -0.62449512659E+03  0.62449512659E+03  0.00000000000E+00 0. -1.
         25    2    1    2    0    0  0.88041854246E+02 -0.72911978649E+02  0.16410665538E+03  0.23584707531E+03  0.12500129545E+03 0.  0.
          2    1    1    2  501    0 -0.31461311754E+02  0.52678056345E+02 -0.58332584804E+03  0.58654397682E+03  0.00000000000E+00 0. -1.
          1    1    1    2  502    0 -0.56580542492E+02  0.20233922304E+02  0.24094179057E+03  0.24832179897E+03  0.00000000000E+00 0. -1.
         22    1    3    3    0    0  0.12023877016E+03 -0.52196921171E+02  0.12868448453E+03  0.18368880475E+03  0.00000000000E+00 0.  1.
         22    1    3    3    0    0 -0.32196915917E+02 -0.20715057478E+02  0.35422170849E+02  0.52158270567E+02  0.00000000000E+00 0.  1.
</event>
<event>
 7    1  0.5950675E-006  0.8398796E+02  0.7818608E-02  0.1336963E+00
          2   -1    0    0  502    0  0.00000000000E+00  0.00000000000E+00  0.19625993952E+04  0.19625993952E+04  0.00000000000E+00 0. -1.
          1   -1    0    0  501    0 -0.00000000000E+00 -0.00000000000E+00 -0.42523118019E+03  0.42523118019E+03  0.00000000000E+00 0. -1.
         25    2    1    2    0    0  0.86337845373E+02 -0.12375535466E+03 -0.24730109947E+02  0.19750018857E+03  0.12500053919E+03 0.  0.
          2    1    1    2  501    0 -0.42197063386E+02  0.68015382453E+02 -0.30833061324E+03  0.31855054774E+03  0.00000000000E+00 0. -1.
          1    1    1    2  502    0 -0.44140781987E+02  0.55739972203E+02  0.18704289382E+04  0.18717798390E+04  0.00000000000E+00 0. -1.
         22    1    3    3    0    0  0.91683011583E+02 -0.13382252985E+03 -0.50025712657E+02  0.16975516497E+03  0.00000000000E+00 0.  1.
         22    1    3    3    0    0 -0.53451662100E+01  0.10067175192E+02  0.25295602710E+02  0.27745023601E+02  0.00000000000E+00 0.  1.
</event>
<event>
 7    1  0.5950675E-006  0.6806234E+02  0.7818608E-02  0.1484996E+00
          2   -1    0    0  502    0  0.00000000000E+00  0.00000000000E+00  0.24795197304E+04  0.24795197304E+04  0.00000000000E+00 0. -1.
          1   -1    0    0  501    0 -0.00000000000E+00 -0.00000000000E+00 -0.14233370320E+03  0.14233370320E+03  0.00000000000E+00 0. -1.
         25    2    1    2    0    0  0.41067573187E+02  0.31602832840E+01  0.94222286986E+03  0.95137000567E+03  0.12499767295E+03 0.  0.
          2    1    1    2  501    0 -0.68291297908E+02  0.13472185243E+01 -0.12916082459E+03  0.14610966763E+03  0.00000000000E+00 0. -1.
          1    1    1    2  502    0  0.27223724721E+02 -0.45075018083E+01  0.15241239820E+04  0.15243737603E+04  0.00000000000E+00 0. -1.
         22    1    3    3    0    0 -0.11827757912E+00  0.16217833716E+02  0.84290637981E+03  0.84306239227E+03  0.00000000000E+00 0. -1.
         22    1    3    3    0    0  0.41185850766E+02 -0.13057550432E+02  0.99316490049E+02  0.10830761341E+03  0.00000000000E+00 0. -1.
</event>
<event>
 7    1  0.5950675E-006  0.4315420E+02  0.7818608E-02  0.1509960E+00
          2   -1    0    0  502    0  0.00000000000E+00  0.00000000000E+00  0.60454317042E+03  0.60454317042E+03  0.00000000000E+00 0. -1.
          1   -1    0    0  501    0 -0.00000000000E+00 -0.00000000000E+00 -0.33003511191E+03  0.33003511191E+03  0.00000000000E+00 0. -1.
         25    2    1    2    0    0  0.25517583541E+02 -0.67993547519E+02  0.50730119355E+03  0.52749574906E+03  0.12499197864E+03 0.  0.
          2    1    1    2  501    0 -0.29338232221E+02  0.31554212826E+02 -0.31455211641E+03  0.31748926620E+03  0.00000000000E+00 0. -1.
          1    1    1    2  502    0  0.38206486801E+01  0.36439334693E+02  0.81758981363E+02  0.89593267061E+02  0.00000000000E+00 0. -1.
         22    1    3    3    0    0  0.15166615745E+02  0.35535552681E+02  0.10259387642E+03  0.10962803116E+03  0.00000000000E+00 0.  1.
         22    1    3    3    0    0  0.10350967796E+02 -0.10352910020E+03  0.40470731714E+03  0.41786771790E+03  0.00000000000E+00 0.  1.
</event>
<event>
 7    1  0.5950675E-006  0.1231891E+03  0.7818608E-02  0.1418280E+00
          2   -1    0    0  502    0  0.00000000000E+00  0.00000000000E+00  0.10326497218E+04  0.10326497218E+04  0.00000000000E+00 0. -1.
          1   -1    0    0  501    0 -0.00000000000E+00 -0.00000000000E+00 -0.33490486686E+03  0.33490486686E+03  0.00000000000E+00 0. -1.
         25    2    1    2    0    0  0.85828079178E+02 -0.96352679130E+02  0.26141435870E+03  0.31718977301E+03  0.12498634811E+03 0.  0.
          2    1    1    2  501    0 -0.23241853315E+02 -0.89401143072E+01 -0.30145432257E+03  0.30248110352E+03  0.00000000000E+00 0. -1.
          1    1    1    2  502    0 -0.62586225862E+02  0.10529279344E+03  0.73778481882E+03  0.74788371215E+03  0.00000000000E+00 0. -1.
         22    1    3    3    0    0  0.11330815865E+03 -0.48589654642E+02  0.16267333396E+03  0.20411346583E+03  0.00000000000E+00 0. -1.
         22    1    3    3    0    0 -0.27480079472E+02 -0.47763024489E+02  0.98741024748E+02  0.11307630718E+03  0.00000000000E+00 0. -1.
</event>
<event>
 7    1  0.5950675E-006  0.6529954E+02  0.7818608E-02  0.1407367E+00
          2   -1    0    0  502    0  0.00000000000E+00  0.00000000000E+00  0.18947280284E+04  0.18947280284E+04  0.00000000000E+00 0. -1.
          1   -1    0    0  501    0 -0.00000000000E+00 -0.00000000000E+00 -0.10050535073E+02  0.10050535073E+02  0.00000000000E+00 0. -1.
         25    2    1    2    0    0 -0.42814284548E+02  0.32277264256E+02  0.12933973870E+04  0.13005301133E+04  0.12500756092E+03 0.  0.
          2    1    1    2  501    0  0.70229214385E+02  0.10889110655E+02  0.28490192772E+03  0.29363212307E+03  0.00000000000E+00 0. -1.
          1    1    1    2  502    0 -0.27414929836E+02 -0.43166374911E+02  0.30637817864E+03  0.31061632708E+03  0.00000000000E+00 0. -1.
         22    1    3    3    0    0 -0.83359909290E+02 -0.11690288923E+01  0.81644515579E+03  0.82069052238E+03  0.00000000000E+00 0. -1.
         22    1    3    3    0    0  0.40545624741E+02  0.33446293148E+02  0.47695223118E+03  0.47983959095E+03  0.00000000000E+00 0. -1.
</event>
<event>
 7    1  0.5950675E-006  0.5894472E+02  0.7818608E-02  0.1523352E+00
          2   -1    0    0  502    0  0.00000000000E+00  0.00000000000E+00  0.10081781499E+04  0.10081781499E+04  0.00000000000E+00 0. -1.
          1   -1    0    0  501    0 -0.00000000000E+00 -0.00000000000E+00 -0.45081008032E+03  0.45081008032E+03  0.00000000000E+00 0. -1.
         25    2    1    2    0    0  0.10730659615E+01 -0.74221990724E+02  0.46602971954E+02  0.15266412621E+03  0.12499777221E+03 0.  0.
          2    1    1    2  501    0  0.16454803180E+02  0.18173932774E+02 -0.39645151081E+03  0.39720882771E+03  0.00000000000E+00 0. -1.
          1    1    1    2  502    0 -0.17527869141E+02  0.56048057950E+02  0.90721660842E+03  0.90911527630E+03  0.00000000000E+00 0. -1.
         22    1    3    3    0    0 -0.12279808826E+02 -0.18356667496E+02  0.82182507936E+02  0.85098328756E+02  0.00000000000E+00 0. -1.
         22    1    3    3    0    0  0.13352874787E+02 -0.55865323229E+02 -0.35579535982E+02  0.67565797452E+02  0.00000000000E+00 0. -1.
</event>
<event>
 7    1  0.5950675E-006  0.2110341E+03  0.7818608E-02  0.1196675E+00
          2   -1    0    0  502    0  0.00000000000E+00  0.00000000000E+00  0.69534669240E+03  0.69534669240E+03  0.00000000000E+00 0. -1.
          1   -1    0    0  501    0 -0.00000000000E+00 -0.00000000000E+00 -0.77333243590E+03  0.77333243590E+03  0.00000000000E+00 0. -1.
         25    2    1    2    0    0 -0.16552827337E+03  0.19616891866E+03 -0.39161485868E+02  0.28817022229E+03  0.12500640426E+03 0.  0.
          2    1    1    2  501    0  0.54481694128E+02 -0.20014762240E+03 -0.58627821907E+03  0.62189185226E+03  0.00000000000E+00 0. -1.
          1    1    1    2  502    0  0.11104657924E+03  0.39787037417E+01  0.54745396144E+03  0.55861705375E+03  0.00000000000E+00 0. -1.
         22    1    3    3    0    0 -0.30501566489E+02 -0.14412808725E+02  0.51378029797E+01  0.34124355424E+02  0.00000000000E+00 0.  1.
         22    1    3    3    0    0 -0.13502670688E+03  0.21058172738E+03 -0.44299288848E+02  0.25404586686E+03  0.00000000000E+00 0.  1.
</event>
<event>
 7    1  0.5950675E-006  0.8258101E+02  0.7818608E-02  0.1357324E+00
          2   -1    0    0  502    0  0.00000000000E+00  0.00000000000E+00  0.10808381571E+03  0.10808381571E+03  0.00000000000E+00 0. -1.
          1   -1    0    0  501    0 -0.00000000000E+00 -0.00000000000E+00 -0.52827780375E+03  0.52827780375E+03  0.00000000000E+00 0. -1.
         25    2    1    2    0    0 -0.55210637456E+02  0.63663658359E+02 -0.35595550118E+03  0.38655758640E+03  0.12498469068E+03 0.  0.
          2    1    1    2  501    0  0.90241714961E+02 -0.14048956433E+02 -0.13090777280E+03  0.15961762207E+03  0.00000000000E+00 0. -1.
          1    1    1    2  502    0 -0.35031077504E+02 -0.49614701926E+02  0.66669285935E+02  0.90186410980E+02  0.00000000000E+00 0. -1.
         22    1    3    3    0    0 -0.12758748885E+00  0.83595017867E+02 -0.14249920939E+03  0.16520946694E+03  0.00000000000E+00 0. -1.
         22    1    3    3    0    0 -0.55083049967E+02 -0.19931359508E+02 -0.21345629179E+03  0.22134811946E+03  0.00000000000E+00 0. -1.
</event>
<event>
 7    1  0.5950675E-006  0.1772892E+03  0.7818608E-02  0.1375375E+00
          2   -1    0    0  502    0  0.00000000000E+00  0.00000000000E+00  0.24264495356E+04  0.24264495356E+04  0.00000000000E+00 0. -1.
          1   -1    0    0  501    0 -0.00000000000E+00 -0.00000000000E+00 -0.74711055021E+02  0.74711055021E+02  0.00000000000E+00 0. -1.
         25    2    1    2    0    0  0.33974888559E+02  0.18741630655E+03  0.53349283615E+03  0.58010201933E+03  0.12499832638E+03 0.  0.
          2    1    1    2  501    0  0.14893164796E+02 -0.19256301073E+02 -0.44166848293E+02  0.50431359061E+02  0.00000000000E+00 0. -1.
          1    1    1    2  502    0 -0.48868053355E+02 -0.16816000547E+03  0.18624124928E+04  0.18706272123E+04  0.00000000000E+00 0. -1.
         22    1    3    3    0    0  0.80389308620E+02  0.96804775953E+02  0.30646978844E+03  0.33129644853E+03  0.00000000000E+00 0. -1.
         22    1    3    3    0    0 -0.46414420061E+02  0.90611530595E+02  0.22702304771E+03  0.24880557079E+03  0.00000000000E+00 0. -1.
</event>
<event>
 7    1  0.5950675E-006  0.1436013E+03  0.7818608E-02  0.1401109E+00
          2   -1    0    0  502    0  0.00000000000E+00  0.00000000000E+00  0.98116594692E+03  0.98116594692E+03  0.00000000000E+00 0. -1.
          1   -1    0    0  501    0 -0.00000000000E+00 -0.00000000000E+00 -0.11194677191E+04  0.11194677191E+04  0.00000000000E+00 0. -1.
         25    2    1    2    0    0  0.15706922503E+03  0.55944115053E+02  0.54790924853E+03  0.58620061484E+03  0.12500452289E+03 0.  0.
          2    1    1    2  501    0 -0.13269092727E+03 -0.54407117827E+02 -0.10952832142E+04  0.11046322175E+04  0.00000000000E+00 0. -1.
          1    1    1    2  502    0 -0.24378297763E+02 -0.15369972264E+01  0.40907219350E+03  0.40980083365E+03  0.00000000000E+00 0. -1.
         22    1    3    3    0    0  0.56594948422E+02 -0.36761396757E+02  0.23997740031E+03  0.24928606286E+03  0.00000000000E+00 0. -1.
         22    1    3    3    0    0  0.10047427661E+03  0.92705511810E+02  0.30793184822E+03  0.33691455197E+03  0.00000000000E+00 0. -1.
</event>
<event>
 7    1  0.5950675E-006  0.3637745E+03  0.7818608E-02  0.1158551E+00
          2   -1    0    0  502    0  0.00000000000E+00  0.00000000000E+00  0.37910240718E+03  0.37910240718E+03  0.00000000000E+00 0. -1.
          1   -1    0    0  501    0 -0.00000000000E+00 -0.00000000000E+00 -0.40020907997E+04  0.40020907997E+04  0.00000000000E+00 0. -1.
         25    2    1    2    0    0  0.21363755573E+03  0.18190937342E+03  0.13836280966E+03  0.33689998046E+03  0.12500121750E+03 0.  0.
          2    1    1    2  501    0 -0.24012424907E+03 -0.27743912377E+03 -0.38756574180E+04  0.38929876116E+04  0.00000000000E+00 0. -1.
          1    1    1    2  502    0  0.26486693340E+02  0.95529750351E+02  0.11430621577E+03  0.15130561487E+03  0.00000000000E+00 0. -1.
         22    1    3    3    0    0  0.36443787109E+02  0.88674185484E+02  0.43600140470E+01  0.95970154280E+02  0.00000000000E+00 0. -1.
         22    1    3    3    0    0  0.17719376862E+03  0.93235187935E+02  0.13400279562E+03  0.24092982618E+03  0.00000000000E+00 0. -1.
</event>
<event>
 7    1  0.5950675E-006  0.5120671E+02  0.7818608E-02  0.1487949E+00
          2   -1    0    0  502    0  0.00000000000E+00  0.00000000000E+00  0.22193943815E+04  0.22193943815E+04  0.00000000000E+00 0. -1.
          1   -1    0    0  501    0 -0.00000000000E+00 -0.00000000000E+00 -0.16285889328E+03  0.16285889328E+03  0.00000000000E+00 0. -1.
         25    2    1    2    0    0  0.43285583834E+02  0.47372430073E+02  0.22438106026E+03  0.26474460268E+03  0.12500022219E+03 0.  0.
          2    1    1    2  501    0 -0.49730782009E+02 -0.12028376094E+02 -0.13792108348E+03  0.14710560077E+03  0.00000000000E+00 0. -1.
          1    1    1    2  502    0  0.64451981745E+01 -0.35344053979E+02  0.19700755114E+04  0.19704030713E+04  0.00000000000E+00 0. -1.
         22    1    3    3    0    0 -0.31489378267E+00  0.39067442210E+02  0.21608884901E+03  0.21959224683E+03  0.00000000000E+00 0.  1.
         22    1    3    3    0    0  0.43600477617E+02  0.83049878631E+01  0.82922112474E+01  0.45152355855E+02  0.00000000000E+00 0.  1.
</event>
<event>
 7    1  0.5950675E-006  0.6765136E+02  0.7818608E-02  0.1398712E+00
          2   -1    0    0  502    0  0.00000000000E+00  0.00000000000E+00  0.76514178774E+02  0.76514178774E+02  0.00000000000E+00 0. -1.
          1   -1    0    0  501    0 -0.00000000000E+00 -0.00000000000E+00 -0.49501181688E+03  0.49501181688E+03  0.00000000000E+00 0. -1.
         25    2    1    2    0    0 -0.31759205558E+02  0.19489367331E+01 -0.16384593746E+03  0.20852590928E+03  0.12500047250E+03 0.  0.
          2    1    1    2  501    0  0.66900792455E+02  0.37516028386E+02 -0.28963969768E+03  0.29962363540E+03  0.00000000000E+00 0. -1.
          1    1    1    2  502    0 -0.35141586897E+02 -0.39464965119E+02  0.34987997038E+02  0.63376450975E+02  0.00000000000E+00 0. -1.
         22    1    3    3    0    0 -0.64644863434E+02  0.39749599685E+02 -0.76031695161E+02  0.10742349702E+03  0.00000000000E+00 0. -1.
         22    1    3    3    0    0  0.32885657875E+02 -0.37800662951E+02 -0.87814242303E+02  0.10110241226E+03  0.00000000000E+00 0. -1.
</event>
<event>
 7    1  0.5950675E-006  0.6041366E+02  0.7818608E-02  0.1410114E+00
          2   -1    0    0  502    0  0.00000000000E+00  0.00000000000E+00  0.26132037414E+04  0.26132037414E+04  0.00000000000E+00 0. -1.
          1   -1    0    0  501    0 -0.00000000000E+00 -0.00000000000E+00 -0.31741416232E+02  0.31741416232E+02  0.00000000000E+00 0. -1.
         25    2    1    2    0    0  0.11847160560E+02  0.50302991727E+01  0.48188908640E+03  0.49800376366E+03  0.12499999162E+03 0.  0.
          2    1    1    2  501    0  0.48998047719E+02 -0.22928559566E+02  0.83280344104E+01  0.54734666174E+02  0.00000000000E+00 0. -1.
          1    1    1    2  502    0 -0.60845208279E+02  0.17898260393E+02  0.20912452044E+04  0.20922067278E+04  0.00000000000E+00 0. -1.
         22    1    3    3    0    0  0.14953425785E+02  0.64415724300E+02  0.24567324987E+03  0.25441764126E+03  0.00000000000E+00 0.  1.
         22    1    3    3    0    0 -0.31062652249E+01 -0.59385425127E+02  0.23621583653E+03  0.24358612240E+03  0.00000000000E+00 0.  1.
</event>
<event>
 7    1  0.5950675E-006  0.5646559E+02  0.7818608E-02  0.1450058E+00
          2   -1    0    0  502    0  0.00000000000E+00  0.00000000000E+00  0.32520864411E+04  0.32520864411E+04  0.00000000000E+00 0. -1.
          1   -1    0    0  501    0 -0.00000000000E+00 -0.00000000000E+00 -0.29922445656E+03  0.29922445656E+03  0.00000000000E+00 0. -1.
         25    2    1    2    0    0 -0.18541169429E+02 -0.49767573759E+01  0.55844433708E+03  0.57258508163E+03  0.12500022002E+03 0.  0.
          2    1    1    2  501    0 -0.37673542375E+02  0.20222517484E+02 -0.29027206030E+03  0.29340435410E+03  0.00000000000E+00 0. -1.
          1    1    1    2  502    0  0.56214711804E+02 -0.15245760108E+02  0.26846897078E+04  0.26853214620E+04  0.00000000000E+00 0. -1.
         22    1    3    3    0    0 -0.19065496484E+02  0.97281176292E+01  0.55742480005E+03  0.55783558253E+03  0.00000000000E+00 0.  1.
         22    1    3    3    0    0  0.52432705565E+00 -0.14704875005E+02  0.10195370333E+01  0.14749499095E+02  0.00000000000E+00 0.  1.
</event>
<event>
 7    1  0.5950675E-006  0.7837359E+02  0.7818608E-02  0.1423734E+00
          2   -1    0    0  502    0  0.00000000000E+00  0.00000000000E+00  0.57560028759E+02  0.57560028759E+02  0.00000000000E+00 0. -1.
          1   -1    0    0  501    0 -0.00000000000E+00 -0.00000000000E+00 -0.14565536184E+04  0.14565536184E+04  0.00000000000E+00 0. -1.
         25    2    1    2    0    0 -0.81423932291E+02  0.24463361207E+02 -0.91462920976E+02  0.17667722023E+03  0.12498424479E+03 0.  0.
          2    1    1    2  501    0  0.77363835411E+02  0.12852412441E+02 -0.12957128375E+04  0.12980840130E+04  0.00000000000E+00 0. -1.
          1    1    1    2  502    0  0.40600968800E+01 -0.37315773648E+02 -0.11817831183E+02  0.39352413947E+02  0.00000000000E+00 0. -1.
         22    1    3    3    0    0  0.73392017237E+01  0.50795609263E+02 -0.78424582510E+01  0.51918801544E+02  0.00000000000E+00 0. -1.
         22    1    3    3    0    0 -0.88763134015E+02 -0.26332248056E+02 -0.83620462725E+02  0.12475841869E+03  0.00000000000E+00 0. -1.
</event>
<event>
 7    1  0.5950675E-006  0.6649715E+02  0.7818608E-02  0.1460075E+00
          2   -1    0    0  502    0  0.00000000000E+00  0.00000000000E+00  0.12255867940E+04  0.12255867940E+04  0.00000000000E+00 0. -1.
          1   -1    0    0  501    0 -0.00000000000E+00 -0.00000000000E+00 -0.28044997512E+03  0.28044997512E+03  0.00000000000E+00 0. -1.
         25    2    1    2    0    0  0.77479100384E+02 -0.24146292726E+01  0.36652738101E+03  0.39493913803E+03  0.12500304112E+03 0.  0.
          2    1    1    2  501    0 -0.18782233413E+02 -0.28031703199E+02 -0.26387433406E+03  0.26602295550E+03  0.00000000000E+00 0. -1.
          1    1    1    2  502    0 -0.58696866971E+02  0.30446332472E+02  0.84248377197E+03  0.84507467562E+03  0.00000000000E+00 0. -1.
         22    1    3    3    0    0  0.49842454803E+01 -0.49026181595E+02  0.21538225571E+03  0.22094778854E+03  0.00000000000E+00 0.  1.
         22    1    3    3    0    0  0.72494854903E+02  0.46611552322E+02  0.15114512529E+03  0.17399134949E+03  0.00000000000E+00 0.  1.
</event>
<event>
 7    1  0.5950675E-006  0.1016567E+03  0.7818608E-02  0.1355840E+00
          2   -1    0    0  502    0  0.00000000000E+00  0.00000000000E+00  0.55491860187E+03  0.55491860187E+03  0.00000000000E+00 0. -1.
          1   -1    0    0  501    0 -0.00000000000E+00 -0.00000000000E+00 -0.22236833953E+04  0.22236833953E+04  0.00000000000E+00 0. -1.
         25    2    1    2    0    0 -0.57526292004E+02  0.11261336036E+02  0.58480380009E+02  0.14993748738E+03  0.12500081326E+03 0.  0.
          2    1    1    2  501    0 -0.49895022347E+02 -0.25644836341E+01 -0.21712207599E+04  0.21717954964E+04  0.00000000000E+00 0. -1.
          1    1    1    2  502    0  0.10742131435E+03 -0.86968524021E+01  0.44397558647E+03  0.45686901340E+03  0.00000000000E+00 0. -1.
         22    1    3    3    0    0 -0.79539159917E+02  0.40418959363E+02  0.10802201787E+02  0.89871340258E+02  0.00000000000E+00 0. -1.
         22    1    3    3    0    0  0.22012867914E+02 -0.29157623327E+02  0.47678178222E+02  0.60066147125E+02  0.00000000000E+00 0. -1.
</event>
<event>
 7    1  0.5950675E-006  0.1317322E+03  0.7818608E-02  0.1236701E+00
          2   -1    0    0  502    0  0.00000000000E+00  0.00000000000E+00  0.14950656730E+04  0.14950656730E+04  0.00000000000E+00 0. -1.
          1   -1    0    0  501    0 -0.00000000000E+00 -0.00000000000E+00 -0.26642642436E+03  0.26642642436E+03  0.00000000000E+00 0. -1.
         25    2    1    2    0    0 -0.18859664305E+03 -0.78071474730E+02  0.55198815162E+03  0.60164443718E+03  0.12498504044E+03 0.  0.
          2    1    1    2  501    0  0.66562475902E+02  0.95794159945E+02 -0.22306286202E+03  0.25172231663E+03  0.00000000000E+00 0. -1.
          1    1    1    2  502    0  0.12203416714E+03 -0.17722685215E+02  0.89971395901E+03  0.90812534352E+03  0.00000000000E+00 0. -1.
         22    1    3    3    0    0 -0.13289503418E+03 -0.96626984747E+02  0.48744395398E+03  0.51439233331E+03  0.00000000000E+00 0. -1.
         22    1    3    3    0    0 -0.55701608871E+02  0.18555510017E+02  0.64544197633E+02  0.87252103876E+02  0.00000000000E+00 0. -1.
</event>
<event>
 7    1  0.5950675E-006  0.4566048E+02  0.7818608E-02  0.1534814E+00
          2   -1    0    0  502    0  0.00000000000E+00  0.00000000000E+00  0.13983885641E+04  0.13983885641E+04  0.00000000000E+00 0. -1.
          1   -1    0    0  501    0 -0.00000000000E+00 -0.00000000000E+00 -0.36783120783E+03  0.36783120783E+03  0.00000000000E+00 0. -1.
         25    2    1    2    0    0  0.55120286630E+02  0.43428232186E+02  0.98445105122E+03  0.99483263389E+03  0.12499535938E+03 0.  0.
          2    1    1    2  501    0 -0.22773528574E+02 -0.18500903488E+02 -0.36102374791E+03  0.36221411290E+03  0.00000000000E+00 0. -1.
          1    1    1    2  502    0 -0.32346758056E+02 -0.24927328698E+02  0.40713005293E+03  0.40917302510E+03  0.00000000000E+00 0. -1.
         22    1    3    3    0    0  0.84907686067E+02  0.11835020878E+01  0.74757545837E+03  0.75238273624E+03  0.00000000000E+00 0. -1.
         22    1    3    3    0    0 -0.29787399437E+02  0.42244730098E+02  0.23687559284E+03  0.24244989765E+03  0.00000000000E+00 0. -1.
</event>
<event>
 7    1  0.5950675E-006  0.4302274E+02  0.7818608E-02  0.1549883E+00
          2   -1    0    0  502    0  0.00000000000E+00  0.00000000000E+00  0.19023422493E+04  0.19023422493E+04  0.00000000000E+00 0. -1.
          1   -1    0    0  501    0 -0.00000000000E+00 -0.00000000000E+00 -0.53106588152E+03  0.53106588152E+03  0.00000000000E+00 0. -1.
         25    2    1    2    0    0  0.65333886500E+02 -0.15549687557E+02  0.12591224856E+04  0.12670924397E+04  0.12499402943E+03 0.  0.
          2    1    1    2  501    0 -0.37601236252E+02  0.20876038290E+02 -0.52589075682E+03  0.52764642522E+03  0.00000000000E+00 0. -1.
          1    1    1    2  502    0 -0.27732650248E+02 -0.53263507330E+01  0.63804463903E+03  0.63866926597E+03  0.00000000000E+00 0. -1.
         22    1    3    3    0    0  0.81132709154E+02 -0.17783362034E+02  0.12371639047E+04  0.12399489069E+04  0.00000000000E+00 0.  1.
         22    1    3    3    0    0 -0.15798822654E+02  0.22336744768E+01  0.21958580864E+02  0.27143532793E+02  0.00000000000E+00 0.  1.
</event>
<event>
 7    1  0.5950675E-006  0.9309857E+02  0.7818608E-02  0.1408447E+00
          2   -1    0    0  502    0  0.00000000000E+00  0.00000000000E+00  0.72457034682E+03  0.72457034682E+03  0.00000000000E+00 0. -1.
          1   -1    0    0  501    0 -0.00000000000E+00 -0.00000000000E+00 -0.72582710887E+03  0.72582710887E+03  0.00000000000E+00 0. -1.
         25    2    1    2    0    0  0.38831723164E+02  0.52001115349E+02 -0.14648134846E+02  0.14161134672E+03  0.12500874747E+03 0.  0.
          2    1    1    2  501    0 -0.32021405441E+01  0.35420549038E+02 -0.64383388754E+03  0.64481543386E+03  0.00000000000E+00 0. -1.
          1    1    1    2  502    0 -0.35629582620E+02 -0.87421664387E+02  0.65722526034E+03  0.66397067510E+03  0.00000000000E+00 0. -1.
         22    1    3    3    0    0  0.52538566247E+02  0.68212448900E+01 -0.57261568312E+02  0.78011009036E+02  0.00000000000E+00 0. -1.
         22    1    3    3    0    0 -0.13706843083E+02  0.45179870459E+02  0.42613433466E+02  0.63600337686E+02  0.00000000000E+00 0. -1.
</event>
<event>
 7    1  0.5950675E-006  0.4803782E+02  0.7818608E-02  0.1462552E+00
          2   -1    0    0  502    0  0.00000000000E+00  0.00000000000E+00  0.22069175640E+03  0.22069175640E+03  0.00000000000E+00 0. -1.
          1   -1    0    0  501    0 -0.00000000000E+00 -0.00000000000E+00 -0.28351698126E+03  0.28351698126E+03  0.00000000000E+00 0. -1.
         25    2    1    2    0    0 -0.97075756046E+01  0.21949223017E+02 -0.13511645452E+03  0.18562366331E+03  0.12499473062E+03 0.  0.
          2    1    1    2  501    0 -0.26656467876E+02 -0.49920056487E+02 -0.11370766042E+03  0.12701185519E+03  0.00000000000E+00 0. -1.
          1    1    1    2  502    0  0.36364043481E+02  0.27970833470E+02  0.18599889009E+03  0.19157321915E+03  0.00000000000E+00 0. -1.
         22    1    3    3    0    0 -0.16605572876E+02  0.16517074435E+02  0.19671809227E+02  0.30586580010E+02  0.00000000000E+00 0.  1.
         22    1    3    3    0    0  0.68979972710E+01  0.54321485818E+01 -0.15478826375E+03  0.15503708330E+03  0.00000000000E+00 0.  1.
</event>
<event>
 7    1  0.5950675E-006  0.5224031E+02  0.7818608E-02  0.1485404E+00
          2   -1    0    0  502    0  0.00000000000E+00  0.00000000000E+00  0.12420804976E+04  0.12420804976E+04  0.00000000000E+00 0. -1.
          1   -1    0    0  501    0 -0.00000000000E+00 -0.00000000000E+00 -0.30293093065E+03  0.30293093065E+03  0.00000000000E+00 0. -1.
         25    2    1    2    0    0 -0.14225148281E+02  0.60307232882E+02  0.16218688093E+03  0.21393692821E+03  0.12500043089E+03 0.  0.
          2    1    1    2  501    0 -0.24971992189E+02 -0.25720659267E+02 -0.27524466851E+03  0.27756941519E+03  0.00000000000E+00 0. -1.
          1    1    1    2  502    0  0.39197140470E+02 -0.34586573616E+02  0.10522073545E+04  0.10535050849E+04  0.00000000000E+00 0. -1.
         22    1    3    3    0    0 -0.25005574336E+02 -0.16775620058E+02 -0.40487027963E+01  0.30382431939E+02  0.00000000000E+00 0.  1.
         22    1    3    3    0    0  0.10780426056E+02  0.77082852940E+02  0.16623558372E+03  0.18355449627E+03  0.00000000000E+00 0.  1.
</event>
<event>
 7    1  0.5950675E-006  0.9800811E+02  0.7818608E-02  0.1427572E+00
          2   -1    0    0  502    0  0.00000000000E+00  0.00000000000E+00  0.30406184425E+04  0.30406184425E+04  0.00000000000E+00 0. -1.
          1   -1    0    0  501    0 -0.00000000000E+00 -0.00000000000E+00 -0.94740160726E+03  0.94740160726E+03  0.00000000000E+00 0. -1.
         25    2    1    2    0    0 -0.11375753734E+03 -0.39956247232E+02  0.25340636275E+01  0.17369184317E+03  0.12500062365E+03 0.  0.
          2    1    1    2  501    0  0.28188917833E+02 -0.74239487910E+01 -0.86076586189E+03  0.86125931002E+03  0.00000000000E+00 0. -1.
          1    1    1    2  502    0  0.85568619509E+02  0.47380196023E+02  0.29514486335E+04  0.29530688966E+04  0.00000000000E+00 0. -1.
         22    1    3    3    0    0 -0.13579626815E+03 -0.21769506074E+02 -0.17721000800E+02  0.13866712555E+03  0.00000000000E+00 0. -1.
         22    1    3    3    0    0  0.22038730811E+02 -0.18186741158E+02  0.20255064428E+02  0.35024717625E+02  0.00000000000E+00 0. -1.
</event>
<event>
 7    1  0.5950675E-006  0.1540761E+03  0.7818608E-02  0.1361259E+00
          2   -1    0    0  502    0  0.00000000000E+00  0.00000000000E+00  0.13745336697E+04  0.13745336697E+04  0.00000000000E+00 0. -1.
          1   -1    0    0  501    0 -0.00000000000E+00 -0.00000000000E+00 -0.40651584601E+03  0.40651584601E+03  0.00000000000E+00 0. -1.
         25    2    1    2    0    0  0.62729063935E+01  0.12579161278E+03  0.13563324694E+03  0.22335049633E+03  0.12500474925E+03 0.  0.
          2    1    1    2  501    0 -0.15136483198E+02 -0.15601130884E+03 -0.34550037612E+03  0.37939313582E+03  0.00000000000E+00 0. -1.
          1    1    1    2  502    0  0.88635768042E+01  0.30219696057E+02  0.11778849528E+04  0.11783058835E+04  0.00000000000E+00 0. -1.
         22    1    3    3    0    0 -0.34902700064E+02  0.64418100754E+02  0.52203194412E+01  0.73451629741E+02  0.00000000000E+00 0.  1.
         22    1    3    3    0    0  0.41175606458E+02  0.61373512028E+02  0.13041292750E+03  0.14989886659E+03  0.00000000000E+00 0.  1.
</event>
<event>
 7    1  0.5950675E-006  0.8453897E+02  0.7818608E-02  0.1318120E+00
          2   -1    0    0  502    0  0.00000000000E+00  0.00000000000E+00  0.90471737042E+03  0.90471737042E+03  0.00000000000E+00 0. -1.
          1   -1    0    0  501    0 -0.00000000000E+00 -0.00000000000E+00 -0.31185734097E+03  0.31185734097E+03  0.00000000000E+00 0. -1.
         25    2    1    2    0    0  0.74113705580E+02 -0.57431144402E+01  0.11545556724E+03  0.18568713275E+03  0.12499559410E+03 0.  0.
          2    1    1    2  501    0 -0.37752574161E+02 -0.74395032243E+02 -0.26780582325E+03  0.28049926318E+03  0.00000000000E+00 0. -1.
          1    1    1    2  502    0 -0.36361131418E+02  0.80138146683E+02  0.74521028546E+03  0.75038831546E+03  0.00000000000E+00 0. -1.
         22    1    3    3    0    0  0.25957123398E+01 -0.45606327971E+02  0.19365259235E+01  0.45721165844E+02  0.00000000000E+00 0.  1.
         22    1    3    3    0    0  0.71517993240E+02  0.39863213531E+02  0.11351904132E+03  0.13996596691E+03  0.00000000000E+00 0.  1.
</event>
<event>
 7    1  0.5950675E-006  0.1136652E+03  0.7818608E-02  0.1308842E+00
          2   -1    0    0  502    0  0.00000000000E+00  0.00000000000E+00  0.34151452480E+02  0.34151452480E+02  0.00000000000E+00 0. -1.
          1   -1    0    0  501    0 -0.00000000000E+00 -0.00000000000E+00 -0.14656612960E+04  0.14656612960E+04  0.00000000000E+00 0. -1.
         25    2    1    2    0    0  0.18661937975E+02 -0.16696346890E+03 -0.69447153418E+03  0.72535557716E+03  0.12499973460E+03 0.  0.
          2    1    1    2  501    0 -0.92860914927E+01  0.10015005310E+03 -0.67610764502E+03  0.68354795903E+03  0.00000000000E+00 0. -1.
          1    1    1    2  502    0 -0.93758464822E+01  0.66813415796E+02 -0.60930664344E+02  0.90909212322E+02  0.00000000000E+00 0. -1.
         22    1    3    3    0    0  0.52763775874E+02 -0.11223625006E+03 -0.28467859338E+03  0.31052035908E+03  0.00000000000E+00 0. -1.
         22    1    3    3    0    0 -0.34101837899E+02 -0.54727218834E+02 -0.40979294080E+03  0.41483521808E+03  0.00000000000E+00 0. -1.
</event>
<event>
 7    1  0.5950675E-006  0.8077865E+02  0.7818608E-02  0.1399231E+00
          2   -1    0    0  502    0  0.00000000000E+00  0.00000000000E+00  0.27852689240E+04  0.27852689240E+04  0.00000000000E+00 0. -1.
          1   -1    0    0  501    0 -0.00000000000E+00 -0.00000000000E+00 -0.64980979793E+02  0.64980979793E+02  0.00000000000E+00 0. -1.
         25    2    1    2    0    0 -0.56057315816E+02 -0.97105741026E+02  0.18076198942E+04  0.18154025567E+04  0.12499925368E+03 0.  0.
          2    1    1    2  501    0  0.31534434154E+02  0.30791615090E+02 -0.51673817759E+02  0.67917063681E+02  0.00000000000E+00 0. -1.
          1    1    1    2  502    0  0.24522881662E+02  0.66314125936E+02  0.96434186773E+03  0.96693028336E+03  0.00000000000E+00 0. -1.
         22    1    3    3    0    0 -0.94218912710E+02 -0.80677388810E+02  0.12103845069E+04  0.12167237562E+04  0.00000000000E+00 0. -1.
         22    1    3    3    0    0  0.38161596894E+02 -0.16428352216E+02  0.59723538734E+03  0.59867880046E+03  0.00000000000E+00 0. -1.
</event>
<event>
 7    1  0.5950675E-006  0.9865027E+02  0.7818608E-02  0.1356165E+00
          2   -1    0    0  502    0  0.00000000000E+00  0.00000000000E+00  0.15818277375E+04  0.15818277375E+04  0.00000000000E+00 0. -1.
          1   -1    0    0  501    0 -0.00000000000E+00 -0.00000000000E+00 -0.48900739612E+03  0.48900739612E+03  0.00000000000E+00 0. -1.
         25    2    1    2    0    0  0.82078606439E+02  0.77341562543E+02  0.10188753559E+03  0.19678627251E+03  0.12500060883E+03 0.  0.
          2    1    1    2  501    0  0.12560365222E+02 -0.49781871679E+02 -0.43836239149E+03  0.44135879259E+03  0.00000000000E+00 0. -1.
          1    1    1    2  502    0 -0.94638971661E+02 -0.27559690864E+02  0.14292951973E+04  0.14326900685E+04  0.00000000000E+00 0. -1.
         22    1    3    3    0    0  0.68499845222E+02 -0.15578126562E+02  0.65588996797E+02  0.96108393616E+02  0.00000000000E+00 0. -1.
         22    1    3    3    0    0  0.13578761217E+02  0.92919689105E+02  0.36298538789E+02  0.10067787889E+03  0.00000000000E+00 0. -1.
</event>
<event>
 7    1  0.5950675E-006  0.2712822E+03  0.7818608E-02  0.1237949E+00
          2   -1    0    0  502    0  0.00000000000E+00  0.00000000000E+00  0.31188178998E+04  0.31188178998E+04  0.00000000000E+00 0. -1.
          1   -1    0    0  501    0 -0.00000000000E+00 -0.00000000000E+00 -0.45366032651E+03  0.45366032651E+03  0.00000000000E+00 0. -1.
         25    2    1    2    0    0 -0.34733026540E+02  0.21713724237E+03  0.16587124561E+04  0.16778877713E+04  0.12500158418E+03 0.  0.
          2    1    1    2  501    0  0.63528541877E+02 -0.26508182106E+03 -0.40163405714E+03  0.48540103353E+03  0.00000000000E+00 0. -1.
          1    1    1    2  502    0 -0.28795515338E+02  0.47944578690E+02  0.14080791743E+04  0.14091894215E+04  0.00000000000E+00 0. -1.
         22    1    3    3    0    0 -0.70603430688E+02  0.17514801454E+03  0.14391372075E+04  0.14514742758E+04  0.00000000000E+00 0. -1.
         22    1    3    3    0    0  0.35870404149E+02  0.41989227830E+02  0.21957524861E+03  0.22641349551E+03  0.00000000000E+00 0. -1.
</event>
<event>
 7    1  0.5950675E-006  0.3500004E+02  0.7818608E-02  0.1571637E+00
          2   -1    0    0  502    0  0.00000000000E+00  0.00000000000E+00  0.28699797792E+02  0.28699797792E+02  0.00000000000E+00 0. -1.
          1   -1    0    0  501    0 -0.00000000000E+00 -0.00000000000E+00 -0.22064492555E+04  0.22064492555E+04  0.00000000000E+00 0. -1.
         25    2    1    2    0    0 -0.44450012256E+02 -0.46280247499E+02 -0.83415561178E+03  0.84590643250E+03  0.12499777192E+03 0.  0.
          2    1    1    2  501    0  0.22892212006E+02  0.25065761720E+02 -0.13560917967E+04  0.13565166077E+04  0.00000000000E+00 0. -1.
          1    1    1    2  502    0  0.21557800250E+02  0.21214485780E+02  0.12497950809E+02  0.32726013093E+02  0.00000000000E+00 0. -1.
         22    1    3    3    0    0 -0.42292413312E+02  0.21559592734E+02 -0.60632238163E+03  0.60817784794E+03  0.00000000000E+00 0.  1.
         22    1    3    3    0    0 -0.21575989440E+01 -0.67839840233E+02 -0.22783323015E+03  0.23772858456E+03  0.00000000000E+00 0.  1.
</event>
<event>
 7    1  0.5950675E-006  0.8760538E+02  0.7818608E-02  0.1415671E+00
          2   -1    0    0  502    0  0.00000000000E+00  0.00000000000E+00  0.23127831866E+04  0.23127831866E+04  0.00000000000E+00 0. -1.
          1   -1    0    0  501    0 -0.00000000000E+00 -0.00000000000E+00 -0.17571453967E+02  0.17571453967E+02  0.00000000000E+00 0. -1.
         25    2    1    2    0    0  0.61921076659E+02  0.50861413358E+02  0.40231088684E+03  0.42883584882E+03  0.12500012982E+03 0.  0.
          2    1    1    2  501    0  0.23525122206E+02 -0.26891995764E+02  0.96091021602E+02  0.10251875557E+03  0.00000000000E+00 0. -1.
          1    1    1    2  502    0 -0.85446198865E+02 -0.23969417594E+02  0.17968098241E+04  0.17990000361E+04  0.00000000000E+00 0. -1.
         22    1    3    3    0    0  0.53811179116E+02  0.43386491611E+02  0.77538055694E+02  0.10387579474E+03  0.00000000000E+00 0.  1.
         22    1    3    3    0    0  0.81098975434E+01  0.74749217474E+01  0.32477283115E+03  0.32496005408E+03  0.00000000000E+00 0.  1.
</event>
<event>
 7    1  0.5950675E-006  0.5783809E+02  0.7818608E-02  0.1474129E+00
          2   -1    0    0  502    0  0.00000000000E+00  0.00000000000E+00  0.14525735627E+03  0.14525735627E+03  0.00000000000E+00 0. -1.
          1   -1    0    0  501    0 -0.00000000000E+00 -0.00000000000E+00 -0.19041259952E+03  0.19041259952E+03  0.00000000000E+00 0. -1.
         25    2    1    2    0    0  0.25308380057E+02 -0.60567437184E+02 -0.67292610270E+02  0.15640280506E+03  0.12499845393E+03 0.  0.
          2    1    1    2  501    0 -0.34898351647E+02  0.34091504458E+01 -0.65443881283E+02  0.74245665542E+02  0.00000000000E+00 0. -1.
          1    1    1    2  502    0  0.95899715894E+01  0.57158286738E+02  0.87581248302E+02  0.10502148519E+03  0.00000000000E+00 0. -1.
         22    1    3    3    0    0  0.33335554251E+02 -0.93119017334E+02 -0.72286612937E+02  0.12250618342E+03  0.00000000000E+00 0. -1.
         22    1    3    3    0    0 -0.80271741940E+01  0.32551580150E+02  0.49940026670E+01  0.33896621638E+02  0.00000000000E+00 0. -1.
</event>
<event>
 7    1  0.5950675E-006  0.9902961E+02  0.7818608E-02  0.1359422E+00
          2   -1    0    0  502    0  0.00000000000E+00  0.00000000000E+00  0.24551593526E+04  0.24551593526E+04  0.00000000000E+00 0. -1.
          1   -1    0    0  501    0 -0.00000000000E+00 -0.00000000000E+00 -0.72311143472E+03  0.72311143472E+03  0.00000000000E+00 0. -1.
         25    2    1    2    0    0  0.57654635006E+02 -0.42797672779E+02  0.13089155633E+04  0.13168300646E+04  0.12500307769E+03 0.  0.
          2    1    1    2  501    0  0.35253532898E+02 -0.35117603461E+02 -0.71506929537E+03  0.71679854550E+03  0.00000000000E+00 0. -1.
          1    1    1    2  502    0 -0.92908167904E+02  0.77915276240E+02  0.11382016500E+04  0.11446421773E+04  0.00000000000E+00 0. -1.
         22    1    3    3    0    0  0.57098248768E+02 -0.59551661836E+02  0.43504785215E+03  0.44280158548E+03  0.00000000000E+00 0. -1.
         22    1    3    3    0    0  0.55638623795E+00  0.16753989057E+02  0.87386771116E+03  0.87402847912E+03  0.00000000000E+00 0. -1.
</event>
<event>
 7    1  0.5950675E-006  0.1708721E+03  0.7818608E-02  0.1224609E+00
          2   -1    0    0  502    0  0.00000000000E+00  0.00000000000E+00  0.84515602693E+03  0.84515602693E+03  0.00000000000E+00 0. -1.
          1   -1    0    0  501    0 -0.00000000000E+00 -0.00000000000E+00 -0.37603594863E+03  0.37603594863E+03  0.00000000000E+00 0. -1.
         25    2    1    2    0    0 -0.11895503629E+03 -0.90717339631E+02  0.23783401554E+03  0.30752268860E+03  0.12500099475E+03 0.  0.
          2    1    1    2  501    0  0.51504438886E+02  0.16706330462E+03 -0.31376392459E+03  0.35918053308E+03  0.00000000000E+00 0. -1.
          1    1    1    2  502    0  0.67450597399E+02 -0.76345964985E+02  0.54504998735E+03  0.55448875387E+03  0.00000000000E+00 0. -1.
         22    1    3    3    0    0 -0.19298101248E+02  0.30340913041E+02  0.27997891064E+02  0.45572685020E+02  0.00000000000E+00 0.  1.
         22    1    3    3    0    0 -0.99656935037E+02 -0.12105825267E+03  0.20983612448E+03  0.26195000358E+03  0.00000000000E+00 0.  1.
</event>
<event>
 7    1  0.6585204E-006  0.1180441E+03  0.7818608E-02  0.1264764E+00
          2   -1    0    0  502    0  0.00000000000E+00  0.00000000000E+00  0.12494641590E+04  0.12494641590E+04  0.00000000000E+00 0. -1.
          1   -1    0    0  501    0 -0.00000000000E+00 -0.00000000000E+00 -0.91144083211E+03  0.91144083211E+03  0.00000000000E+00 0. -1.
         25    2    1    2    0    0  0.86825768499E+02 -0.64494457330E+02 -0.20174638943E+03  0.26081567781E+03  0.12499985216E+03 0.  0.
          2    1    1    2  501    0 -0.12359251200E+03 -0.26760197025E+02 -0.67227159066E+03  0.68406162645E+03  0.00000000000E+00 0. -1.
          1    1    1    2  502    0  0.36766743503E+02  0.91254654356E+02  0.12120413070E+04  0.12160276869E+04  0.00000000000E+00 0. -1.
         22    1    3    3    0    0 -0.17918796246E+02 -0.32770517241E+01 -0.10240064832E+03  0.10400824537E+03  0.00000000000E+00 0.  1.
         22    1    3    3    0    0  0.10474456474E+03 -0.61217405606E+02 -0.99345741108E+02  0.15680743244E+03  0.00000000000E+00 0.  1.
</event>
<event>
 7    1  0.5950675E-006  0.5920219E+02  0.7818608E-02  0.1537607E+00
          2   -1    0    0  502    0  0.00000000000E+00  0.00000000000E+00  0.44657592982E+02  0.44657592982E+02  0.00000000000E+00 0. -1.
          1   -1    0    0  501    0 -0.00000000000E+00 -0.00000000000E+00 -0.96967281038E+03  0.96967281038E+03  0.00000000000E+00 0. -1.
         25    2    1    2    0    0 -0.61180603249E+02  0.17795292689E+02 -0.72613096014E+03  0.73956156714E+03  0.12500160662E+03 0.  0.
          2    1    1    2  501    0  0.13682027542E+02  0.17508266288E+02 -0.21281331611E+03  0.21397019601E+03  0.00000000000E+00 0. -1.
          1    1    1    2  502    0  0.47498575707E+02 -0.35303558978E+02  0.13929058857E+02  0.60798640210E+02  0.00000000000E+00 0. -1.
         22    1    3    3    0    0  0.26887067975E+01 -0.23088334934E+02 -0.50969863424E+03  0.51022837837E+03  0.00000000000E+00 0. -1.
         22    1    3    3    0    0 -0.63869310047E+02  0.40883627624E+02 -0.21643232591E+03  0.22933318877E+03  0.00000000000E+00 0. -1.
</event>
<event>
 7    1  0.5950675E-006  0.8696283E+02  0.7818608E-02  0.1377008E+00
          2   -1    0    0  502    0  0.00000000000E+00  0.00000000000E+00  0.23489154168E+03  0.23489154168E+03  0.00000000000E+00 0. -1.
          1   -1    0    0  501    0 -0.00000000000E+00 -0.00000000000E+00 -0.52131293298E+03  0.52131293298E+03  0.00000000000E+00 0. -1.
         25    2    1    2    0    0 -0.44528389522E+02  0.20876408705E+01 -0.32564948846E+02  0.13664877247E+03  0.12500110162E+03 0.  0.
          2    1    1    2  501    0 -0.47203065746E+02  0.13030273272E+02 -0.42338556733E+03  0.42620799624E+03  0.00000000000E+00 0. -1.
          1    1    1    2  502    0  0.91731455268E+02 -0.15117914142E+02  0.16952912487E+03  0.19334770594E+03  0.00000000000E+00 0. -1.
         22    1    3    3    0    0  0.68986497796E+01  0.28284292748E+02 -0.64443857136E+02  0.70714944019E+02  0.00000000000E+00 0. -1.
         22    1    3    3    0    0 -0.51427039302E+02 -0.26196651877E+02  0.31878908290E+02  0.65933828455E+02  0.00000000000E+00 0. -1.
</event>
<event>
 7    1  0.6987125E-006  0.9103767E+02  0.7818608E-02  0.1363113E+00
          2   -1    0    0  502    0  0.00000000000E+00  0.00000000000E+00  0.17266725894E+04  0.17266725894E+04  0.00000000000E+00 0. -1.
          1   -1    0    0  501    0 -0.00000000000E+00 -0.00000000000E+00 -0.78421087396E+03  0.78421087396E+03  0.00000000000E+00 0. -1.
         25    2    1    2    0    0 -0.49996812162E+02 -0.42751044196E+02 -0.79197590235E+02  0.16194282631E+03  0.12500355070E+03 0.  0.
          2    1    1    2  501    0  0.26150639854E+02 -0.45498636223E+02 -0.66136086798E+03  0.66343965782E+03  0.00000000000E+00 0. -1.
          1    1    1    2  502    0  0.23846172308E+02  0.88249680418E+02  0.16830201737E+04  0.16855009793E+04  0.00000000000E+00 0. -1.
         22    1    3    3    0    0 -0.22464276886E+02  0.43792600115E+02 -0.38185831890E+02  0.62294408401E+02  0.00000000000E+00 0. -1.
         22    1    3    3    0    0 -0.27532535276E+02 -0.86543644311E+02 -0.41011758344E+02  0.99648417909E+02  0.00000000000E+00 0. -1.
</event>
<event>
 7    1  0.5950675E-006  0.1135429E+03  0.7818608E-02  0.1330212E+00
          2   -1    0    0  502    0  0.00000000000E+00  0.00000000000E+00  0.40812414654E+03  0.40812414654E+03  0.00000000000E+00 0. -1.
          1   -1    0    0  501    0 -0.00000000000E+00 -0.00000000000E+00 -0.26800742062E+04  0.26800742062E+04  0.00000000000E+00 0. -1.
         25    2    1    2    0    0  0.51215871352E+02 -0.12892802189E+03 -0.62169085923E+03  0.64913017894E+03  0.12499985780E+03 0.  0.
          2    1    1    2  501    0  0.28265603623E+02  0.48103513951E+02 -0.20361285205E+04  0.20368927916E+04  0.00000000000E+00 0. -1.
          1    1    1    2  502    0 -0.79481474975E+02  0.80824507939E+02  0.38586932004E+03  0.40217538226E+03  0.00000000000E+00 0. -1.
         22    1    3    3    0    0  0.89774137420E+02 -0.64589933215E+02 -0.40478285457E+03  0.41961936868E+03  0.00000000000E+00 0. -1.
         22    1    3    3    0    0 -0.38558266068E+02 -0.64338088675E+02 -0.21690800467E+03  0.22951081026E+03  0.00000000000E+00 0. -1.
</event>
<event>
 7    1  0.5950675E-006  0.1868911E+03  0.7818608E-02  0.1192346E+00
          2   -1    0    0  502    0  0.00000000000E+00  0.00000000000E+00  0.49769375914E+03  0.49769375914E+03  0.00000000000E+00 0. -1.
          1   -1    0    0  501    0 -0.00000000000E+00 -0.00000000000E+00 -0.29926607048E+03  0.29926607048E+03  0.00000000000E+00 0. -1.
         25    2    1    2    0    0  0.13062150152E+03  0.79149408611E+02  0.21789749652E+03  0.29399227506E+03  0.12500213302E+03 0.  0.
          2    1    1    2  501    0 -0.19462979283E+03  0.35801461501E+02 -0.19882789859E+03  0.28052635199E+03  0.00000000000E+00 0. -1.
          1    1    1    2  502    0  0.64008291315E+02 -0.11495087011E+03  0.17935809072E+03  0.22244120257E+03  0.00000000000E+00 0. -1.
         22    1    3    3    0    0  0.10688809256E+03  0.87262201330E+01  0.68841149328E+02  0.12743749483E+03  0.00000000000E+00 0. -1.
         22    1    3    3    0    0  0.23733408960E+02  0.70423188478E+02  0.14905634720E+03  0.16655478022E+03  0.00000000000E+00 0. -1.
</event>
<event>
 7    1  0.5950675E-006  0.8956189E+02  0.7818608E-02  0.1381122E+00
          2   -1    0    0  502    0  0.00000000000E+00  0.00000000000E+00  0.70488239683E+03  0.70488239683E+03  0.00000000000E+00 0. -1.
          1   -1    0    0  501    0 -0.00000000000E+00 -0.00000000000E+00 -0.80528022654E+03  0.80528022654E+03  0.00000000000E+00 0. -1.
         25    2    1    2    0    0 -0.50896360622E+02  0.60897717046E+00  0.16198129215E+03  0.21083690586E+03  0.12499380580E+03 0.  0.
          2    1    1    2  501    0 -0.45619635331E+02  0.57175534389E+01 -0.77565476335E+03  0.77701618610E+03  0.00000000000E+00 0. -1.
          1    1    1    2  502    0  0.96515995953E+02 -0.63265306094E+01  0.51327564149E+03  0.52230953141E+03  0.00000000000E+00 0. -1.
         22    1    3    3    0    0 -0.71962069286E+02 -0.13747867632E+01  0.17271437572E+03  0.18711142412E+03  0.00000000000E+00 0. -1.
         22    1    3    3    0    0  0.21065708664E+02  0.19837639336E+01 -0.10733083571E+02  0.23725481740E+02  0.00000000000E+00 0. -1.
</event>
<event>
 7    1  0.5950675E-006  0.4074709E+02  0.7818608E-02  0.1566150E+00
          2   -1    0    0  502    0  0.00000000000E+00  0.00000000000E+00  0.14189321061E+04  0.14189321061E+04  0.00000000000E+00 0. -1.
          1   -1    0    0  501    0 -0.00000000000E+00 -0.00000000000E+00 -0.42406459093E+03  0.42406459093E+03  0.00000000000E+00 0. -1.
         25    2    1    2    0    0 -0.12883541362E+02 -0.63289849588E+01  0.19024908988E+03  0.22809080191E+03  0.12499862410E+03 0.  0.
          2    1    1    2  501    0 -0.23741018309E+02 -0.12622940060E+02 -0.40434567641E+03  0.40523869583E+03  0.00000000000E+00 0. -1.
          1    1    1    2  502    0  0.36624559671E+02  0.18951925019E+02  0.12089641017E+04  0.12096671993E+04  0.00000000000E+00 0. -1.
         22    1    3    3    0    0  0.15718605194E+02 -0.60775471208E+02  0.78271475833E+02  0.10033522003E+03  0.00000000000E+00 0.  1.
         22    1    3    3    0    0 -0.28602146556E+02  0.54446486249E+02  0.11197761405E+03  0.12775558188E+03  0.00000000000E+00 0.  1.
</event>
<event>
 7    1  0.5950675E-006  0.1552452E+03  0.7818608E-02  0.1317323E+00
          2   -1    0    0  502    0  0.00000000000E+00  0.00000000000E+00  0.61461829691E+03  0.61461829691E+03  0.00000000000E+00 0. -1.
          1   -1    0    0  501    0 -0.00000000000E+00 -0.00000000000E+00 -0.11029000455E+04  0.11029000455E+04  0.00000000000E+00 0. -1.
         25    2    1    2    0    0 -0.11023577854E+03 -0.72881249094E+01 -0.49477785686E+03  0.52214560526E+03  0.12500344721E+03 0.  0.
          2    1    1    2  501    0 -0.45753419474E+02  0.42615081548E+00 -0.58338496953E+03  0.58517653719E+03  0.00000000000E+00 0. -1.
          1    1    1    2  502    0  0.15598919802E+03  0.68619740940E+01  0.58988107777E+03  0.61019620000E+03  0.00000000000E+00 0. -1.
         22    1    3    3    0    0  0.86891027391E+01 -0.29942122897E+02 -0.21568461660E+03  0.21792632945E+03  0.00000000000E+00 0. -1.
         22    1    3    3    0    0 -0.11892488128E+03  0.22653997988E+02 -0.27909324026E+03  0.30421927581E+03  0.00000000000E+00 0. -1.
</event>
<event>
 7    1  0.5950675E-006  0.4097584E+02  0.7818608E-02  0.1525329E+00
          2   -1    0    0  502    0  0.00000000000E+00  0.00000000000E+00  0.62949538408E+03  0.62949538408E+03  0.00000000000E+00 0. -1.
          1   -1    0    0  501    0 -0.00000000000E+00 -0.00000000000E+00 -0.21444006665E+03  0.21444006665E+03  0.00000000000E+00 0. -1.
         25    2    1    2    0    0 -0.34742834723E+02  0.56326616563E+02  0.52232932807E+02  0.15077367081E+03  0.12499867296E+03 0.  0.
          2    1    1    2  501    0  0.34329510103E+02 -0.21522201169E+02 -0.16209973046E+03  0.16708693253E+03  0.00000000000E+00 0. -1.
          1    1    1    2  502    0  0.41332461993E+00 -0.34804415394E+02  0.52492211507E+03  0.52607484739E+03  0.00000000000E+00 0. -1.
         22    1    3    3    0    0  0.10750729413E+02  0.69743462906E+02  0.70684707996E+02  0.99880211981E+02  0.00000000000E+00 0. -1.
         22    1    3    3    0    0 -0.45493564136E+02 -0.13416846343E+02 -0.18451775189E+02  0.50893458825E+02  0.00000000000E+00 0. -1.
</event>
<event>
 7    1  0.5950675E-006  0.4555466E+02  0.7818608E-02  0.1586686E+00
          2   -1    0    0  502    0  0.00000000000E+00  0.00000000000E+00  0.29029546007E+03  0.29029546007E+03  0.00000000000E+00 0. -1.
          1   -1    0    0  501    0 -0.00000000000E+00 -0.00000000000E+00 -0.88253276850E+02  0.88253276850E+02  0.00000000000E+00 0. -1.
         25    2    1    2    0    0 -0.24409965060E+02 -0.58242442639E+02  0.16401741137E+03  0.21567141795E+03  0.12499768305E+03 0.  0.
          2    1    1    2  501    0  0.11489856362E+02  0.17785216060E+02 -0.55911436278E+02  0.59786448433E+02  0.00000000000E+00 0. -1.
          1    1    1    2  502    0  0.12920108698E+02  0.40457226579E+02  0.93936208124E+02  0.10309087054E+03  0.00000000000E+00 0. -1.
         22    1    3    3    0    0 -0.42352451696E+02 -0.67703527195E+02  0.38734935275E+02  0.88757495289E+02  0.00000000000E+00 0. -1.
         22    1    3    3    0    0  0.17942486636E+02  0.94610845562E+01  0.12528247610E+03  0.12691392266E+03  0.00000000000E+00 0. -1.
</event>
<event>
 7    1  0.5950675E-006  0.1342794E+03  0.7818608E-02  0.1254272E+00
          2   -1    0    0  502    0  0.00000000000E+00  0.00000000000E+00  0.51392720985E+03  0.51392720985E+03  0.00000000000E+00 0. -1.
          1   -1    0    0  501    0 -0.00000000000E+00 -0.00000000000E+00 -0.13179371713E+04  0.13179371713E+04  0.00000000000E+00 0. -1.
         25    2    1    2    0    0 -0.68540009216E+01  0.46378123223E+02  0.14016119589E+03  0.19356655384E+03  0.12499976916E+03 0.  0.
          2    1    1    2  501    0 -0.13015042044E+03 -0.33042755183E+02 -0.12739167440E+04  0.12809741708E+04  0.00000000000E+00 0. -1.
          1    1    1    2  502    0  0.13700442136E+03 -0.13335368040E+02  0.32974558671E+03  0.35732365646E+03  0.00000000000E+00 0. -1.
         22    1    3    3    0    0 -0.24212695842E+02 -0.12440584936E+01  0.14080317399E+03  0.14287524673E+03  0.00000000000E+00 0.  1.
         22    1    3    3    0    0  0.17358694921E+02  0.47622181717E+02 -0.64197810510E+00  0.50691307112E+02  0.00000000000E+00 0.  1.
</event>
<event>
 7    1  0.5950675E-006  0.8165078E+02  0.7818608E-02  0.1340869E+00
          2   -1    0    0  502    0  0.00000000000E+00  0.00000000000E+00  0.19067416659E+04  0.19067416659E+04  0.00000000000E+00 0. -1.
          1   -1    0    0  501    0 -0.00000000000E+00 -0.00000000000E+00 -0.25791839523E+02  0.25791839523E+02  0.00000000000E+00 0. -1.
         25    2    1    2    0    0  0.49699239498E+02 -0.83116513290E+02  0.40166072178E+03  0.43166586291E+03  0.12500285034E+03 0.  0.
          2    1    1    2  501    0  0.30612815676E+02  0.63727892916E+02  0.12153964153E+03  0.14060680382E+03  0.00000000000E+00 0. -1.
          1    1    1    2  502    0 -0.80312055173E+02  0.19388620374E+02  0.13577494630E+04  0.13602608386E+04  0.00000000000E+00 0. -1.
         22    1    3    3    0    0  0.26400600167E+01  0.25848173140E+02  0.22530721309E+02  0.34390861784E+02  0.00000000000E+00 0.  1.
         22    1    3    3    0    0  0.47059179481E+02 -0.10896468643E+03  0.37913000047E+03  0.39727500112E+03  0.00000000000E+00 0.  1.
</event>
<event>
 7    1  0.5950675E-006  0.8777381E+02  0.7818608E-02  0.1417663E+00
          2   -1    0    0  502    0  0.00000000000E+00  0.00000000000E+00  0.15525622138E+04  0.15525622138E+04  0.00000000000E+00 0. -1.
          1   -1    0    0  501    0 -0.00000000000E+00 -0.00000000000E+00 -0.15757643098E+03  0.15757643098E+03  0.00000000000E+00 0. -1.
         25    2    1    2    0    0 -0.11602082790E+03  0.63277217349E+01  0.69819431790E+03  0.71874831606E+03  0.12499185463E+03 0.  0.
          2    1    1    2  501    0  0.33792434332E+02 -0.95513854385E+01 -0.14316678949E+03  0.14741060747E+03  0.00000000000E+00 0. -1.
          1    1    1    2  502    0  0.82228393570E+02  0.32236637035E+01  0.83995825437E+03  0.84397972121E+03  0.00000000000E+00 0. -1.
         22    1    3    3    0    0  0.18991635071E+02 -0.21712255561E+02  0.72259844954E+02  0.77804816285E+02  0.00000000000E+00 0. -1.
         22    1    3    3    0    0 -0.13501246297E+03  0.28039977296E+02  0.62593447295E+03  0.64094349978E+03  0.00000000000E+00 0. -1.
</event>
<event>
 7    1  0.5950675E-006  0.5392529E+02  0.7818608E-02  0.1435507E+00
          2   -1    0    0  502    0  0.00000000000E+00  0.00000000000E+00  0.66067769632E+03  0.66067769632E+03  0.00000000000E+00 0. -1.
          1   -1    0    0  501    0 -0.00000000000E+00 -0.00000000000E+00 -0.48594220331E+03  0.48594220331E+03  0.00000000000E+00 0. -1.
         25    2    1    2    0    0  0.32031214905E+02  0.79072717720E+02  0.31620088318E+03  0.35055184443E+03  0.12500041477E+03 0.  0.
          2    1    1    2  501    0  0.10402794350E+02 -0.52829018383E+02 -0.46530374836E+03  0.46840869073E+03  0.00000000000E+00 0. -1.
          1    1    1    2  502    0 -0.42434009255E+02 -0.26243699338E+02  0.32383835819E+03  0.32765936448E+03  0.00000000000E+00 0. -1.
         22    1    3    3    0    0  0.66691670584E+02  0.19478226650E+01  0.14453566143E+03  0.15919211778E+03  0.00000000000E+00 0. -1.
         22    1    3    3    0    0 -0.34660455679E+02  0.77124895055E+02  0.17166522175E+03  0.19135972665E+03  0.00000000000E+00 0. -1.
</event>
<event>
 7    1  0.5950675E-006  0.7162419E+02  0.7818608E-02  0.1420111E+00
          2   -1    0    0  502    0  0.00000000000E+00  0.00000000000E+00  0.71308672778E+03  0.71308672778E+03  0.00000000000E+00 0. -1.
          1   -1    0    0  501    0 -0.00000000000E+00 -0.00000000000E+00 -0.31521830313E+03  0.31521830313E+03  0.00000000000E+00 0. -1.
         25    2    1    2    0    0 -0.72103012491E+02  0.69490315165E+02  0.36903856281E+03  0.40229810860E+03  0.12500623597E+03 0.  0.
          2    1    1    2  501    0  0.65771168254E+02 -0.27737181133E+02 -0.29292286828E+03  0.30149461778E+03  0.00000000000E+00 0. -1.
          1    1    1    2  502    0  0.63318442366E+01 -0.41753134032E+02  0.32175273012E+03  0.32451230453E+03  0.00000000000E+00 0. -1.
         22    1    3    3    0    0  0.11203996414E+02  0.20693519333E+02  0.23994081946E+03  0.24109199099E+03  0.00000000000E+00 0.  1.
         22    1    3    3    0    0 -0.83307008904E+02  0.48796795832E+02  0.12909774335E+03  0.16120611761E+03  0.00000000000E+00 0.  1.
</event>
<event>
 7    1  0.5950675E-006  0.7234469E+02  0.7818608E-02  0.1412227E+00
          2   -1    0    0  502    0  0.00000000000E+00  0.00000000000E+00  0.26811167746E+04  0.26811167746E+04  0.00000000000E+00 0. -1.
          1   -1    0    0  501    0 -0.00000000000E+00 -0.00000000000E+00 -0.17046248042E+04  0.17046248042E+04  0.00000000000E+00 0. -1.
         25    2    1    2    0    0 -0.65295145979E+02  0.84393407157E+02  0.18993373645E+02  0.16544142189E+03  0.12499765027E+03 0.  0.
          2    1    1    2  501    0  0.23998024834E+02 -0.67982503652E+02 -0.16304134503E+04  0.16320066008E+04  0.00000000000E+00 0. -1.
          1    1    1    2  502    0  0.41297121145E+02 -0.16410903504E+02  0.25879120470E+04  0.25882935562E+04  0.00000000000E+00 0. -1.
         22    1    3    3    0    0 -0.98673766643E+02  0.74612230250E+02 -0.39556858106E+01  0.12377053194E+03  0.00000000000E+00 0.  1.
         22    1    3    3    0    0  0.33378620664E+02  0.97811769063E+01  0.22949059456E+02  0.41670889948E+02  0.00000000000E+00 0.  1.
</event>
<event>
 7    1  0.5950675E-006  0.1196116E+03  0.7818608E-02  0.1333196E+00
          2   -1    0    0  502    0  0.00000000000E+00  0.00000000000E+00  0.17117403743E+03  0.17117403743E+03  0.00000000000E+00 0. -1.
          1   -1    0    0  501    0 -0.00000000000E+00 -0.00000000000E+00 -0.14308310395E+04  0.14308310395E+04  0.00000000000E+00 0. -1.
         25    2    1    2    0    0 -0.15590251432E+03  0.41186367571E+02 -0.36730356180E+03  0.42016445102E+03  0.12499739415E+03 0.  0.
          2    1    1    2  501    0  0.10465990081E+03 -0.47198419266E+02 -0.10292037157E+04  0.10355875984E+04  0.00000000000E+00 0. -1.
          1    1    1    2  502    0  0.51242613513E+02  0.60120516949E+01  0.13685027535E+03  0.14625302755E+03  0.00000000000E+00 0. -1.
         22    1    3    3    0    0 -0.62800578179E+02 -0.38596464396E+02 -0.19680989052E+03  0.21016120644E+03  0.00000000000E+00 0. -1.
         22    1    3    3    0    0 -0.93101936144E+02  0.79782831967E+02 -0.17049367128E+03  0.21000324459E+03  0.00000000000E+00 0. -1.
</event>
<event>
 7    1  0.5950675E-006  0.1037607E+03  0.7818608E-02  0.1394900E+00
          2   -1    0    0  502    0  0.00000000000E+00  0.00000000000E+00  0.50482768305E+03  0.50482768305E+03  0.00000000000E+00 0. -1.
          1   -1    0    0  501    0 -0.00000000000E+00 -0.00000000000E+00 -0.31746542538E+03  0.31746542538E+03  0.00000000000E+00 0. -1.
         25    2    1    2    0    0 -0.87628096857E+02  0.29349952237E+02  0.19478322379E+03  0.24920825583E+03  0.12499658975E+03 0.  0.
          2    1    1    2  501    0 -0.21868780558E+02 -0.27982706051E+02 -0.27848333762E+03  0.28073874818E+03  0.00000000000E+00 0. -1.
          1    1    1    2  502    0  0.10949687741E+03 -0.13672461864E+01  0.27106237150E+03  0.29234610442E+03  0.00000000000E+00 0. -1.
         22    1    3    3    0    0 -0.34724268281E+02  0.11961038896E+02  0.18977394457E+03  0.19329508866E+03  0.00000000000E+00 0. -1.
         22    1    3    3    0    0 -0.52903828576E+02  0.17388913341E+02  0.50092792111E+01  0.55913167174E+02  0.00000000000E+00 0. -1.
</event>
<event>
 7    1  0.5950675E-006  0.7437713E+02  0.7818608E-02  0.1372898E+00
          2   -1    0    0  502    0  0.00000000000E+00  0.00000000000E+00  0.61410094490E+03  0.61410094490E+03  0.00000000000E+00 0. -1.
          1   -1    0    0  501    0 -0.00000000000E+00 -0.00000000000E+00 -0.47028552022E+03  0.47028552022E+03  0.00000000000E+00 0. -1.
         25    2    1    2    0    0 -0.28291440938E+00  0.40347250537E+02  0.83039689351E+02  0.15539795544E+03  0.12499981553E+03 0.  0.
          2    1    1    2  501    0  0.57790631740E+02  0.12940070400E+02 -0.42895405367E+03  0.43302284316E+03  0.00000000000E+00 0. -1.
          1    1    1    2  502    0 -0.57507717330E+02 -0.53287320937E+02  0.48972978900E+03  0.49596566651E+03  0.00000000000E+00 0. -1.
         22    1    3    3    0    0  0.60331251185E+02  0.50965964988E+01  0.46414605069E+02  0.76289912368E+02  0.00000000000E+00 0. -1.
         22    1    3    3    0    0 -0.60614165594E+02  0.35250654039E+02  0.36625084283E+02  0.79108043077E+02  0.00000000000E+00 0. -1.
</event>
<event>
 7    1  0.5950675E-006  0.1094066E+03  0.7818608E-02  0.1355949E+00
          2   -1    0    0  502    0  0.00000000000E+00  0.00000000000E+00  0.53996002661E+03  0.53996002661E+03  0.00000000000E+00 0. -1.
          1   -1    0    0  501    0 -0.00000000000E+00 -0.00000000000E+00 -0.19045620260E+03  0.19045620260E+03  0.00000000000E+00 0. -1.
         25    2    1    2    0    0  0.83724262731E+01  0.11439833855E+03 -0.13922139490E+03  0.21946728848E+03  0.12500486603E+03 0.  0.
          2    1    1    2  501    0  0.26226180411E+02 -0.83512310665E+02  0.19715726589E+03  0.21571533572E+03  0.00000000000E+00 0. -1.
          1    1    1    2  502    0 -0.34598606684E+02 -0.30886027883E+02  0.29156795302E+03  0.29523360501E+03  0.00000000000E+00 0. -1.
         22    1    3    3    0    0  0.56069545225E+02  0.23779335457E+02 -0.24387525117E+02  0.65604893703E+02  0.00000000000E+00 0. -1.
         22    1    3    3    0    0 -0.47697118952E+02  0.90619003092E+02 -0.11483386978E+03  0.15386239478E+03  0.00000000000E+00 0. -1.
</event>
<event>
 7    1  0.5950675E-006  0.7059093E+02  0.7818608E-02  0.1485772E+00
          2   -1    0    0  502    0  0.00000000000E+00  0.00000000000E+00  0.15004078077E+04  0.15004078077E+04  0.00000000000E+00 0. -1.
          1   -1    0    0  501    0 -0.00000000000E+00 -0.00000000000E+00 -0.18771126752E+04  0.18771126752E+04  0.00000000000E+00 0. -1.
         25    2    1    2    0    0 -0.66639338197E+01 -0.48114774714E+02 -0.13617300601E+03  0.19112339387E+03  0.12500249821E+03 0.  0.
          2    1    1    2  501    0 -0.68030173546E+01  0.70893137376E+02 -0.17126054791E+04  0.17140856586E+04  0.00000000000E+00 0. -1.
          1    1    1    2  502    0  0.13466951174E+02 -0.22778362663E+02  0.14720736176E+04  0.14723114305E+04  0.00000000000E+00 0. -1.
         22    1    3    3    0    0 -0.38765217425E+02  0.29724544023E+02 -0.61847973091E+02  0.78812831283E+02  0.00000000000E+00 0. -1.
         22    1    3    3    0    0  0.32101283605E+02 -0.77839318736E+02 -0.74325032924E+02  0.11231056259E+03  0.00000000000E+00 0. -1.
</event>
<event>
 7    1  0.5950675E-006  0.5711697E+02  0.7818608E-02  0.1449190E+00
          2   -1    0    0  502    0  0.00000000000E+00  0.00000000000E+00  0.31291183264E+03  0.31291183264E+03  0.00000000000E+00 0. -1.
          1   -1    0    0  501    0 -0.00000000000E+00 -0.00000000000E+00 -0.14012676012E+03  0.14012676012E+03  0.00000000000E+00 0. -1.
         25    2    1    2    0    0  0.15373208834E+02 -0.13460234886E+02 -0.73739138498E+02  0.14656403888E+03  0.12500417383E+03 0.  0.
          2    1    1    2  501    0 -0.64658243239E+02  0.42327760293E+02  0.30591376482E+02  0.83115341696E+02  0.00000000000E+00 0. -1.
          1    1    1    2  502    0  0.49285034406E+02 -0.28867525408E+02  0.21593283453E+03  0.22335921218E+03  0.00000000000E+00 0. -1.
         22    1    3    3    0    0  0.10183806693E+02  0.14394363497E+02  0.32302873751E+02  0.36801946577E+02  0.00000000000E+00 0. -1.
         22    1    3    3    0    0  0.51894021401E+01 -0.27854598383E+02 -0.10604201225E+03  0.10976209231E+03  0.00000000000E+00 0. -1.
</event>
<event>
 7    1  0.5950675E-006  0.6963900E+02  0.7818608E-02  0.1416113E+00
          2   -1    0    0  502    0  0.00000000000E+00  0.00000000000E+00  0.12623285806E+04  0.12623285806E+04  0.00000000000E+00 0. -1.
          1   -1    0    0  501    0 -0.00000000000E+00 -0.00000000000E+00 -0.97090020044E+02  0.97090020044E+02  0.00000000000E+00 0. -1.
         25    2    1    2    0    0 -0.86480828512E+02 -0.70402301613E+02  0.37484336754E+03  0.41057063556E+03  0.12500111527E+03 0.  0.
          2    1    1    2  501    0  0.57817845710E+02  0.35979273327E+02 -0.63896995756E+02  0.93382211681E+02  0.00000000000E+00 0. -1.
          1    1    1    2  502    0  0.28662982801E+02  0.34423028286E+02  0.85429218874E+03  0.85546575338E+03  0.00000000000E+00 0. -1.
         22    1    3    3    0    0 -0.11966726609E+02 -0.89519904478E+02  0.21398272149E+03  0.23226196619E+03  0.00000000000E+00 0. -1.
         22    1    3    3    0    0 -0.74514101902E+02  0.19117602865E+02  0.16086064606E+03  0.17830866937E+03  0.00000000000E+00 0. -1.
</event>
<event>
 7    1  0.5950675E-006  0.1191106E+03  0.7818608E-02  0.1395771E+00
          2   -1    0    0  502    0  0.00000000000E+00  0.00000000000E+00  0.32980633454E+03  0.32980633454E+03  0.00000000000E+00 0. -1.
          1   -1    0    0  501    0 -0.00000000000E+00 -0.00000000000E+00 -0.31739248408E+03  0.31739248408E+03  0.00000000000E+00 0. -1.
         25    2    1    2    0    0  0.82145299814E+02 -0.10181574508E+03 -0.18385186037E+03  0.25795518698E+03  0.12500030281E+03 0.  0.
          2    1    1    2  501    0  0.11212939696E+02  0.28604254267E+02 -0.81555384870E+02  0.87150525988E+02  0.00000000000E+00 0. -1.
          1    1    1    2  502    0 -0.93358239510E+02  0.73211490812E+02  0.27782109569E+03  0.30209310565E+03  0.00000000000E+00 0. -1.
         22    1    3    3    0    0  0.24494707730E+02 -0.11605841993E+03 -0.99644180801E+02  0.15491452582E+03  0.00000000000E+00 0.  1.
         22    1    3    3    0    0  0.57650592084E+02  0.14242674847E+02 -0.84207679568E+02  0.10304066116E+03  0.00000000000E+00 0.  1.
</event>
<event>
 7    1  0.5950675E-006  0.8638342E+02  0.7818608E-02  0.1451687E+00
          2   -1    0    0  502    0  0.00000000000E+00  0.00000000000E+00  0.17391798414E+04  0.17391798414E+04  0.00000000000E+00 0. -1.
          1   -1    0    0  501    0 -0.00000000000E+00 -0.00000000000E+00 -0.16257002286E+03  0.16257002286E+03  0.00000000000E+00 0. -1.
         25    2    1    2    0    0  0.89214334088E+02 -0.50244211991E+01  0.14126355617E+03  0.20871257213E+03  0.12498441202E+03 0.  0.
          2    1    1    2  501    0 -0.56366712198E+01  0.27034879881E+02 -0.12615687446E+03  0.12914415885E+03  0.00000000000E+00 0. -1.
          1    1    1    2  502    0 -0.83577662868E+02 -0.22010458681E+02  0.15615031368E+04  0.15638931333E+04  0.00000000000E+00 0. -1.
         22    1    3    3    0    0  0.54862242827E+02  0.46082718348E+02  0.12651087009E+03  0.14539079362E+03  0.00000000000E+00 0. -1.
         22    1    3    3    0    0  0.34352091261E+02 -0.51107139547E+02  0.14752686077E+02  0.63321778506E+02  0.00000000000E+00 0. -1.
</event>
<event>
 7    1  0.5950675E-006  0.5303585E+02  0.7818608E-02  0.1567569E+00
          2   -1    0    0  502    0  0.00000000000E+00  0.00000000000E+00  0.72090982542E+03  0.72090982542E+03  0.00000000000E+00 0. -1.
          1   -1    0    0  501    0 -0.00000000000E+00 -0.00000000000E+00 -0.21461108896E+02  0.21461108896E+02  0.00000000000E+00 0. -1.
         25    2    1    2    0    0 -0.39393129650E+02  0.57042727562E+02  0.41865742965E+03  0.44238100617E+03  0.12498487823E+03 0.  0.
          2    1    1    2  501    0  0.22812910288E+02 -0.45029788009E+02  0.60693360111E+02  0.78941716764E+02  0.00000000000E+00 0. -1.
          1    1    1    2  502    0  0.16580219361E+02 -0.12012939553E+02  0.22009792676E+03  0.22104821138E+03  0.00000000000E+00 0. -1.
         22    1    3    3    0    0 -0.38721816575E+02 -0.29599986556E+02  0.88392456526E+02  0.10093941081E+03  0.00000000000E+00 0. -1.
         22    1    3    3    0    0 -0.67131307438E+00  0.86642714118E+02  0.33026497312E+03  0.34144159536E+03  0.00000000000E+00 0. -1.
</event>
<event>
 7    1  0.5950675E-006  0.9910434E+02  0.7818608E-02  0.1311663E+00
          2   -1    0    0  502    0  0.00000000000E+00  0.00000000000E+00  0.20826582517E+04  0.20826582517E+04  0.00000000000E+00 0. -1.
          1   -1    0    0  501    0 -0.00000000000E+00 -0.00000000000E+00 -0.10809037937E+03  0.10809037937E+03  0.00000000000E+00 0. -1.
         25    2    1    2    0    0  0.15837099664E+03  0.53927518222E+02  0.27242234137E+03  0.34326031233E+03  0.12499664054E+03 0.  0.
          2    1    1    2  501    0 -0.84914567828E+02 -0.36805102772E+02 -0.42056975558E+02  0.10165573576E+03  0.00000000000E+00 0. -1.
          1    1    1    2  502    0 -0.73456428811E+02 -0.17122415450E+02  0.17442025065E+04  0.17458325830E+04  0.00000000000E+00 0. -1.
         22    1    3    3    0    0  0.10852997858E+03  0.93825601597E+02  0.20694029790E+03  0.25180604969E+03  0.00000000000E+00 0.  1.
         22    1    3    3    0    0  0.49841018063E+02 -0.39898083376E+02  0.65482043467E+02  0.91454262641E+02  0.00000000000E+00 0.  1.
</event>
<event>
 7    1  0.5950675E-006  0.2080275E+03  0.7818608E-02  0.1325999E+00
          2   -1    0    0  502    0  0.00000000000E+00  0.00000000000E+00  0.55947052371E+03  0.55947052371E+03  0.00000000000E+00 0. -1.
          1   -1    0    0  501    0 -0.00000000000E+00 -0.00000000000E+00 -0.17136733532E+04  0.17136733532E+04  0.00000000000E+00 0. -1.
         25    2    1    2    0    0  0.94641188003E+02  0.15754835886E+03  0.18179243175E+03  0.28714455749E+03  0.12500027524E+03 0.  0.
          2    1    1    2  501    0 -0.12466912262E+03 -0.16740960568E+03 -0.16536524046E+04  0.16667737224E+04  0.00000000000E+00 0. -1.
          1    1    1    2  502    0  0.30027934621E+02  0.98612468153E+01  0.31765714341E+03  0.31922559704E+03  0.00000000000E+00 0. -1.
         22    1    3    3    0    0  0.37537909066E+02  0.13866833564E+03  0.69114999626E+02  0.15942046638E+03  0.00000000000E+00 0. -1.
         22    1    3    3    0    0  0.57103278937E+02  0.18880023224E+02  0.11267743212E+03  0.12772409112E+03  0.00000000000E+00 0. -1.
</event>
<event>
 7    1  0.5950675E-006  0.1015430E+03  0.7818608E-02  0.1461104E+00
          2   -1    0    0  502    0  0.00000000000E+00  0.00000000000E+00  0.18179654718E+04  0.18179654718E+04  0.00000000000E+00 0. -1.
          1   -1    0    0  501    0 -0.00000000000E+00 -0.00000000000E+00 -0.28097101114E+03  0.28097101114E+03  0.00000000000E+00 0. -1.
         25    2    1    2    0    0 -0.11485329016E+03  0.35576946444E+02  0.34624548335E+03  0.38725331091E+03  0.12498877825E+03 0.  0.
          2    1    1    2  501    0  0.21894901526E+02  0.12819141300E+01 -0.25827910600E+03  0.25920865459E+03  0.00000000000E+00 0. -1.
          1    1    1    2  502    0  0.92958388636E+02 -0.36858860574E+02  0.14490280833E+04  0.14524745175E+04  0.00000000000E+00 0. -1.
         22    1    3    3    0    0 -0.87315200568E+02  0.59123757055E+02  0.33196058263E+03  0.34830646178E+03  0.00000000000E+00 0.  1.
         22    1    3    3    0    0 -0.27538089594E+02 -0.23546810611E+02  0.14284900723E+02  0.38946849129E+02  0.00000000000E+00 0.  1.
</event>
<event>
 7    1  0.5950675E-006  0.3566115E+02  0.7818608E-02  0.1575956E+00
          2   -1    0    0  502    0  0.00000000000E+00  0.00000000000E+00  0.59077073043E+03  0.59077073043E+03  0.00000000000E+00 0. -1.
          1   -1    0    0  501    0 -0.00000000000E+00 -0.00000000000E+00 -0.28781431914E+02  0.28781431914E+02  0.00000000000E+00 0. -1.
         25    2    1    2    0    0  0.23999614036E+02 -0.39329341410E+02  0.52215310314E+03  0.53887994022E+03  0.12499979315E+03 0.  0.
          2    1    1    2  501    0 -0.27937896742E+02  0.73842756055E+01 -0.70699791813E+00  0.28905941373E+02  0.00000000000E+00 0. -1.
          1    1    1    2  502    0  0.39382827056E+01  0.31945065804E+02  0.40543193298E+02  0.51766280750E+02  0.00000000000E+00 0. -1.
         22    1    3    3    0    0 -0.22310091099E+02 -0.66740934419E+02  0.38810314631E+03  0.39443141948E+03  0.00000000000E+00 0.  1.
         22    1    3    3    0    0  0.46309705136E+02  0.27411593009E+02  0.13404995682E+03  0.14444852074E+03  0.00000000000E+00 0.  1.
</event>
<event>
 7    1  0.5950675E-006  0.4414297E+02  0.7818608E-02  0.1532687E+00
          2   -1    0    0  502    0  0.00000000000E+00  0.00000000000E+00  0.24804875928E+04  0.24804875928E+04  0.00000000000E+00 0. -1.
          1   -1    0    0  501    0 -0.00000000000E+00 -0.00000000000E+00 -0.55189554351E+03  0.55189554351E+03  0.00000000000E+00 0. -1.
         25    2    1    2    0    0 -0.73665957488E+02 -0.10076729378E+02  0.39663870827E+03  0.42247238970E+03  0.12502976203E+03 0.  0.
          2    1    1    2  501    0  0.30331034753E+02  0.52186592100E+01 -0.53830956618E+03  0.53918864520E+03  0.00000000000E+00 0. -1.
          1    1    1    2  502    0  0.43334922735E+02  0.48580701678E+01  0.20702629072E+04  0.20707221014E+04  0.00000000000E+00 0. -1.
         22    1    3    3    0    0  0.92025890803E+01 -0.90115458998E+01 -0.38937888648E+01  0.13455749589E+02  0.00000000000E+00 0. -1.
         22    1    3    3    0    0 -0.82868546569E+02 -0.10651834780E+01  0.40053249713E+03  0.40901664011E+03  0.00000000000E+00 0. -1.
</event>
<event>
 7    1  0.5950675E-006  0.7410600E+02  0.7818608E-02  0.1362639E+00
          2   -1    0    0  502    0  0.00000000000E+00  0.00000000000E+00  0.34455401125E+03  0.34455401125E+03  0.00000000000E+00 0. -1.
          1   -1    0    0  501    0 -0.00000000000E+00 -0.00000000000E+00 -0.68325578717E+03  0.68325578717E+03  0.00000000000E+00 0. -1.
         25    2    1    2    0    0 -0.10068804122E+01 -0.12192155072E+03  0.15787657929E+03  0.23540590045E+03  0.12500018137E+03 0.  0.
          2    1    1    2  501    0 -0.32157786047E+02  0.66339083803E+02 -0.63517485201E+03  0.63943888674E+03  0.00000000000E+00 0. -1.
          1    1    1    2  502    0  0.33164666459E+02  0.55582466920E+02  0.13859649681E+03  0.15296501122E+03  0.00000000000E+00 0. -1.
         22    1    3    3    0    0  0.14926741205E+02  0.21847928169E+02  0.93049834564E+01  0.28048570113E+02  0.00000000000E+00 0.  1.
         22    1    3    3    0    0 -0.15933621617E+02 -0.14376947889E+03  0.14857159583E+03  0.20735733034E+03  0.00000000000E+00 0.  1.
</event>
<event>
 7    1  0.5950675E-006  0.1114550E+03  0.7818608E-02  0.1292907E+00
          2   -1    0    0  502    0  0.00000000000E+00  0.00000000000E+00  0.64990711811E+03  0.64990711811E+03  0.00000000000E+00 0. -1.
          1   -1    0    0  501    0 -0.00000000000E+00 -0.00000000000E+00 -0.12364341641E+04  0.12364341641E+04  0.00000000000E+00 0. -1.
         25    2    1    2    0    0  0.57338317001E+02  0.64665434118E+02 -0.31667471302E+03  0.35125118392E+03  0.12500087750E+03 0.  0.
          2    1    1    2  501    0 -0.64091558602E+02  0.47334766483E+02 -0.89571369152E+03  0.89925042406E+03  0.00000000000E+00 0. -1.
          1    1    1    2  502    0  0.67532416013E+01 -0.11200020060E+03  0.62586135855E+03  0.63583967423E+03  0.00000000000E+00 0. -1.
         22    1    3    3    0    0  0.47025790536E+02  0.58032794763E+02 -0.32687567959E+03  0.33530126775E+03  0.00000000000E+00 0.  1.
         22    1    3    3    0    0  0.10312526465E+02  0.66326393547E+01  0.10200966576E+02  0.15949916175E+02  0.00000000000E+00 0.  1.
</event>
<event>
 7    1  0.5950675E-006  0.6168076E+02  0.7818608E-02  0.1483914E+00
          2   -1    0    0  502    0  0.00000000000E+00  0.00000000000E+00  0.69021108737E+02  0.69021108737E+02  0.00000000000E+00 0. -1.
          1   -1    0    0  501    0 -0.00000000000E+00 -0.00000000000E+00 -0.14835015149E+04  0.14835015149E+04  0.00000000000E+00 0. -1.
         25    2    1    2    0    0 -0.53533918749E+01 -0.59687173795E+02 -0.22863973175E+03  0.26737673955E+03  0.12499190532E+03 0.  0.
          2    1    1    2  501    0  0.34871561185E+02  0.51318958024E+02 -0.12298957374E+04  0.12314597785E+04  0.00000000000E+00 0. -1.
          1    1    1    2  502    0 -0.29518169310E+02  0.83682157707E+01  0.44055062999E+02  0.53686105562E+02  0.00000000000E+00 0. -1.
         22    1    3    3    0    0  0.38097719245E+02 -0.49225914763E+02 -0.20986326589E+03  0.21890001659E+03  0.00000000000E+00 0.  1.
         22    1    3    3    0    0 -0.43451111120E+02 -0.10461259032E+02 -0.18776465867E+02  0.48476722956E+02  0.00000000000E+00 0.  1.
</event>
<event>
 7    1  0.5950675E-006  0.1398795E+03  0.7818608E-02  0.1325911E+00
          2   -1    0    0  502    0  0.00000000000E+00  0.00000000000E+00  0.30887565890E+03  0.30887565890E+03  0.00000000000E+00 0. -1.
          1   -1    0    0  501    0 -0.00000000000E+00 -0.00000000000E+00 -0.70400216664E+03  0.70400216664E+03  0.00000000000E+00 0. -1.
         25    2    1    2    0    0  0.54406966393E+02  0.84201624470E+02  0.77843220674E+02  0.17813652563E+03  0.12499209256E+03 0.  0.
          2    1    1    2  501    0 -0.55224980604E+02 -0.13123469627E+03 -0.64287049114E+03  0.65844879252E+03  0.00000000000E+00 0. -1.
          1    1    1    2  502    0  0.81801421136E+00  0.47033071797E+02  0.16990076272E+03  0.17629250739E+03  0.00000000000E+00 0. -1.
         22    1    3    3    0    0 -0.16311709443E+02  0.13093946551E+02  0.74943578590E+02  0.77807861255E+02  0.00000000000E+00 0. -1.
         22    1    3    3    0    0  0.70718675836E+02  0.71107677919E+02  0.28996420838E+01  0.10032866437E+03  0.00000000000E+00 0. -1.
</event>
<event>
 7    1  0.5950675E-006  0.4765876E+02  0.7818608E-02  0.1469486E+00
          2   -1    0    0  502    0  0.00000000000E+00  0.00000000000E+00  0.15831930221E+04  0.15831930221E+04  0.00000000000E+00 0. -1.
          1   -1    0    0  501    0 -0.00000000000E+00 -0.00000000000E+00 -0.22367109639E+02  0.22367109639E+02  0.00000000000E+00 0. -1.
         25    2    1    2    0    0 -0.42685827575E+01  0.26124675196E+02  0.46705350499E+03  0.48421582745E+03  0.12500108629E+03 0.  0.
          2    1    1    2  501    0 -0.42932512102E+02 -0.95839438218E+01  0.23441261285E+02  0.49845213463E+02  0.00000000000E+00 0. -1.
          1    1    1    2  502    0  0.47201094859E+02 -0.16540731375E+02  0.10703311461E+04  0.10714990908E+04  0.00000000000E+00 0. -1.
         22    1    3    3    0    0  0.24293508805E+02 -0.32330369951E+02  0.33039592254E+03  0.33286167250E+03  0.00000000000E+00 0.  1.
         22    1    3    3    0    0 -0.28562091563E+02  0.58455045147E+02  0.13665758246E+03  0.15135415495E+03  0.00000000000E+00 0.  1.
</event>
<event>
 7    1  0.5950675E-006  0.5712242E+02  0.7818608E-02  0.1495517E+00
          2   -1    0    0  502    0  0.00000000000E+00  0.00000000000E+00  0.10516928570E+04  0.10516928570E+04  0.00000000000E+00 0. -1.
          1   -1    0    0  501    0 -0.00000000000E+00 -0.00000000000E+00 -0.28618177460E+03  0.28618177460E+03  0.00000000000E+00 0. -1.
         25    2    1    2    0    0  0.22263135230E+02  0.27620090209E+02  0.15705368225E+02  0.13090306982E+03  0.12502175220E+03 0.  0.
          2    1    1    2  501    0 -0.10560205919E+02  0.28673329517E+02 -0.22671235480E+03  0.22876225561E+03  0.00000000000E+00 0. -1.
          1    1    1    2  502    0 -0.11702929311E+02 -0.56293419727E+02  0.97651806900E+03  0.97820930620E+03  0.00000000000E+00 0. -1.
         22    1    3    3    0    0  0.10537274424E+02 -0.48713249022E+02  0.19650041348E+02  0.53573677375E+02  0.00000000000E+00 0.  1.
         22    1    3    3    0    0  0.11725860806E+02  0.76333339231E+02 -0.39446731222E+01  0.77329392445E+02  0.00000000000E+00 0.  1.
</event>
<event>
 7    1  0.5950675E-006  0.2311015E+03  0.7818608E-02  0.1200039E+00
          2   -1    0    0  502    0  0.00000000000E+00  0.00000000000E+00  0.13039910599E+04  0.13039910599E+04  0.00000000000E+00 0. -1.
          1   -1    0    0  501    0 -0.00000000000E+00 -0.00000000000E+00 -0.16762818051E+03  0.16762818051E+03  0.00000000000E+00 0. -1.
         25    2    1    2    0    0  0.19373720740E+03 -0.47998503705E+02  0.21461156537E+03  0.31862233786E+03  0.12499643316E+03 0.  0.
          2    1    1    2  501    0  0.46873158143E+02  0.85858390978E+02 -0.77304312470E+02  0.12467843832E+03  0.00000000000E+00 0. -1.
          1    1    1    2  502    0 -0.24061036554E+03 -0.37859887272E+02  0.99905562644E+03  0.10283184642E+04  0.00000000000E+00 0. -1.
         22    1    3    3    0    0  0.10614924891E+03 -0.84547921594E+02  0.15731790446E+03  0.20776173169E+03  0.00000000000E+00 0. -1.
         22    1    3    3    0    0  0.87587958488E+02  0.36549417888E+02  0.57293660913E+02  0.11086060617E+03  0.00000000000E+00 0. -1.
</event>
<event>
 7    1  0.5950675E-006  0.1673876E+03  0.7818608E-02  0.1387238E+00
          2   -1    0    0  502    0  0.00000000000E+00  0.00000000000E+00  0.73059481926E+03  0.73059481926E+03  0.00000000000E+00 0. -1.
          1   -1    0    0  501    0 -0.00000000000E+00 -0.00000000000E+00 -0.10036230047E+04  0.10036230047E+04  0.00000000000E+00 0. -1.
         25    2    1    2    0    0  0.79175374670E+02  0.14282574805E+03 -0.25498028600E+03  0.32757927359E+03  0.12500119993E+03 0.  0.
          2    1    1    2  501    0 -0.60915617544E+02 -0.15747619142E+03 -0.70213466152E+03  0.72215133195E+03  0.00000000000E+00 0. -1.
          1    1    1    2  502    0 -0.18259757126E+02  0.14650443375E+02  0.68408676205E+03  0.68448721845E+03  0.00000000000E+00 0. -1.
         22    1    3    3    0    0  0.12490332633E+01  0.12567210734E+03 -0.16264290332E+03  0.20554258111E+03  0.00000000000E+00 0.  1.
         22    1    3    3    0    0  0.77926341406E+02  0.17153640710E+02 -0.92337382673E+02  0.12203669249E+03  0.00000000000E+00 0.  1.
</event>
<event>
 7    1  0.5950675E-006  0.7229662E+02  0.7818608E-02  0.1442216E+00
          2   -1    0    0  502    0  0.00000000000E+00  0.00000000000E+00  0.34597245828E+02  0.34597245828E+02  0.00000000000E+00 0. -1.
          1   -1    0    0  501    0 -0.00000000000E+00 -0.00000000000E+00 -0.15579992755E+04  0.15579992755E+04  0.00000000000E+00 0. -1.
         25    2    1    2    0    0 -0.64991112056E+02 -0.68237412536E+02 -0.23241395549E+03  0.28021646365E+03  0.12499932271E+03 0.  0.
          2    1    1    2  501    0  0.63581957232E+02  0.32873105741E+02 -0.12683475382E+04  0.12703656104E+04  0.00000000000E+00 0. -1.
          1    1    1    2  502    0  0.14091548236E+01  0.35364306795E+02 -0.22640535975E+02  0.42014447296E+02  0.00000000000E+00 0. -1.
         22    1    3    3    0    0  0.22897480673E+02  0.38188826316E+01 -0.11301805839E+03  0.11537746751E+03  0.00000000000E+00 0.  1.
         22    1    3    3    0    0 -0.87888592729E+02 -0.72056295167E+02 -0.11939589710E+03  0.16483899614E+03  0.00000000000E+00 0.  1.
</event>
<event>
 7    1  0.5950675E-006  0.4039485E+02  0.7818608E-02  0.1563714E+00
          2   -1    0    0  502    0  0.00000000000E+00  0.00000000000E+00  0.42699489043E+03  0.42699489043E+03  0.00000000000E+00 0. -1.
          1   -1    0    0  501    0 -0.00000000000E+00 -0.00000000000E+00 -0.44416065338E+03  0.44416065338E+03  0.00000000000E+00 0. -1.
         25    2    1    2    0    0  0.33996446429E+02  0.34760908300E+02  0.21530423870E+03  0.25366164606E+03  0.12499694542E+03 0.  0.
          2    1    1    2  501    0 -0.27089591329E+02  0.49708273388E+01 -0.42241658973E+03  0.42331351309E+03  0.00000000000E+00 0. -1.
          1    1    1    2  502    0 -0.69068550998E+01 -0.39731735639E+02  0.18994658809E+03  0.19418038467E+03  0.00000000000E+00 0. -1.
         22    1    3    3    0    0  0.14994616928E+01  0.11294523552E+02  0.21321928244E+03  0.21352348127E+03  0.00000000000E+00 0.  1.
         22    1    3    3    0    0  0.32496984736E+02  0.23466384748E+02  0.20849562543E+01  0.40138164790E+02  0.00000000000E+00 0.  1.
</event>
<event>
 7    1  0.5950675E-006  0.2589016E+03  0.7818608E-02  0.1208596E+00
          2   -1    0    0  502    0  0.00000000000E+00  0.00000000000E+00  0.33842855419E+04  0.33842855419E+04  0.00000000000E+00 0. -1.
          1   -1    0    0  501    0 -0.00000000000E+00 -0.00000000000E+00 -0.68528364286E+03  0.68528364286E+03  0.00000000000E+00 0. -1.
         25    2    1    2    0    0 -0.19961475362E+03 -0.11075172595E+03  0.29280532141E+03  0.39175496562E+03  0.12500000869E+03 0.  0.
          2    1    1    2  501    0  0.18211791519E+03  0.18842734163E+03 -0.60825905137E+03  0.66230723360E+03  0.00000000000E+00 0. -1.
          1    1    1    2  502    0  0.17496838435E+02 -0.77675615679E+02  0.30144556290E+04  0.30155069855E+04  0.00000000000E+00 0. -1.
         22    1    3    3    0    0 -0.93924884050E+02  0.12029596849E+02  0.14027258857E+03  0.16924241238E+03  0.00000000000E+00 0. -1.
         22    1    3    3    0    0 -0.10568986957E+03 -0.12278132280E+03  0.15253273284E+03  0.22251255324E+03  0.00000000000E+00 0. -1.
</event>
<event>
 7    1  0.5950675E-006  0.1160509E+03  0.7818608E-02  0.1262866E+00
          2   -1    0    0  502    0  0.00000000000E+00  0.00000000000E+00  0.14598216455E+04  0.14598216455E+04  0.00000000000E+00 0. -1.
          1   -1    0    0  501    0 -0.00000000000E+00 -0.00000000000E+00 -0.28492785215E+03  0.28492785215E+03  0.00000000000E+00 0. -1.
         25    2    1    2    0    0 -0.14242918289E+03 -0.15772761943E+03  0.36238091978E+03  0.43830232734E+03  0.12499970028E+03 0.  0.
          2    1    1    2  501    0  0.63086295808E+02  0.93716420965E+02 -0.23143366280E+03  0.25753482979E+03  0.00000000000E+00 0. -1.
          1    1    1    2  502    0  0.79342887083E+02  0.64011198463E+02  0.10439465364E+04  0.10489123405E+04  0.00000000000E+00 0. -1.
         22    1    3    3    0    0  0.51385638255E+01 -0.75555288017E+02  0.13852666125E+03  0.15787540107E+03  0.00000000000E+00 0.  1.
         22    1    3    3    0    0 -0.14756774672E+03 -0.82172331411E+02  0.22385425852E+03  0.28042692627E+03  0.00000000000E+00 0.  1.
</event>
<event>
 7    1  0.5950675E-006  0.7985330E+02  0.7818608E-02  0.1473889E+00
          2   -1    0    0  502    0  0.00000000000E+00  0.00000000000E+00  0.40531024541E+03  0.40531024541E+03  0.00000000000E+00 0. -1.
          1   -1    0    0  501    0 -0.00000000000E+00 -0.00000000000E+00 -0.39902036115E+03  0.39902036115E+03  0.00000000000E+00 0. -1.
         25    2    1    2    0    0 -0.68603841565E+02 -0.38685768669E+02  0.10491443977E+03  0.18120561800E+03  0.12500144219E+03 0.  0.
          2    1    1    2  501    0 -0.10483825403E+02  0.23180235176E+02 -0.35421588828E+03  0.35512832809E+03  0.00000000000E+00 0. -1.
          1    1    1    2  502    0  0.79087666968E+02  0.15505533493E+02  0.25559133278E+03  0.26799666047E+03  0.00000000000E+00 0. -1.
         22    1    3    3    0    0  0.27150215007E+02 -0.26045725989E+02  0.68178480265E+02  0.77870528369E+02  0.00000000000E+00 0.  1.
         22    1    3    3    0    0 -0.95754056572E+02 -0.12640042680E+02  0.36735959502E+02  0.10333508963E+03  0.00000000000E+00 0.  1.
</event>
<event>
 7    1  0.5950675E-006  0.8896975E+02  0.7818608E-02  0.1352678E+00
          2   -1    0    0  502    0  0.00000000000E+00  0.00000000000E+00  0.30256460360E+03  0.30256460360E+03  0.00000000000E+00 0. -1.
          1   -1    0    0  501    0 -0.00000000000E+00 -0.00000000000E+00 -0.25550459759E+04  0.25550459759E+04  0.00000000000E+00 0. -1.
         25    2    1    2    0    0 -0.13212092687E+03  0.50973486636E+02 -0.35936031040E+03  0.40598003792E+03  0.12500289134E+03 0.  0.
          2    1    1    2  501    0  0.45089617652E+02 -0.37484535403E+02 -0.21650251387E+04  0.21658190171E+04  0.00000000000E+00 0. -1.
          1    1    1    2  502    0  0.87031309216E+02 -0.13488951233E+02  0.27190407671E+03  0.28581152447E+03  0.00000000000E+00 0. -1.
         22    1    3    3    0    0 -0.48416306421E+02  0.83646653593E+02 -0.15390810135E+03  0.18173773699E+03  0.00000000000E+00 0.  1.
         22    1    3    3    0    0 -0.83704620447E+02 -0.32673166957E+02 -0.20545220906E+03  0.22424230094E+03  0.00000000000E+00 0.  1.
</event>
<event>
 7    1  0.5950675E-006  0.4627053E+02  0.7818608E-02  0.1523563E+00
          2   -1    0    0  502    0  0.00000000000E+00  0.00000000000E+00  0.12190087875E+04  0.12190087875E+04  0.00000000000E+00 0. -1.
          1   -1    0    0  501    0 -0.00000000000E+00 -0.00000000000E+00 -0.66398596911E+02  0.66398596911E+02  0.00000000000E+00 0. -1.
         25    2    1    2    0    0 -0.27012979377E+02  0.31475285021E+02  0.20913724097E+03  0.24715197761E+03  0.12500127941E+03 0.  0.
          2    1    1    2  501    0  0.27220581674E+02  0.15222262264E+02 -0.41646431774E+02  0.52029824280E+02  0.00000000000E+00 0. -1.
          1    1    1    2  502    0 -0.20760229760E+00 -0.46697547285E+02  0.98511938135E+03  0.98622558248E+03  0.00000000000E+00 0. -1.
         22    1    3    3    0    0  0.22585812610E+02  0.61725557671E+01  0.18498232533E+03  0.18645825286E+03  0.00000000000E+00 0.  1.
         22    1    3    3    0    0 -0.49598791987E+02  0.25302729254E+02  0.24154915640E+02  0.60693724748E+02  0.00000000000E+00 0.  1.
</event>
<event>
 7    1  0.5950675E-006  0.3885097E+02  0.7818608E-02  0.1549458E+00
          2   -1    0    0  502    0  0.00000000000E+00  0.00000000000E+00  0.20131815121E+04  0.20131815121E+04  0.00000000000E+00 0. -1.
          1   -1    0    0  501    0 -0.00000000000E+00 -0.00000000000E+00 -0.83508807726E+01  0.83508807726E+01  0.00000000000E+00 0. -1.
         25    2    1    2    0    0 -0.49694574813E+01 -0.13550583166E+02  0.88990006608E+03  0.89875194112E+03  0.12499844098E+03 0.  0.
          2    1    1    2  501    0 -0.92888644929E+01  0.41478808975E+02  0.11912652077E+03  0.12648281523E+03  0.00000000000E+00 0. -1.
          1    1    1    2  502    0  0.14258321974E+02 -0.27928225809E+02  0.99580404450E+03  0.99629763654E+03  0.00000000000E+00 0. -1.
         22    1    3    3    0    0 -0.21317087786E+01  0.56576173450E+01 -0.22051201868E+01  0.64354775563E+01  0.00000000000E+00 0. -1.
         22    1    3    3    0    0 -0.28377487026E+01 -0.19208200511E+02  0.89210518626E+03  0.89231646356E+03  0.00000000000E+00 0. -1.
</event>
<event>
 7    1  0.5950675E-006  0.1165699E+03  0.7818608E-02  0.1251984E+00
          2   -1    0    0  502    0  0.00000000000E+00  0.00000000000E+00  0.51640211771E+04  0.51640211771E+04  0.00000000000E+00 0. -1.
          1   -1    0    0  501    0 -0.00000000000E+00 -0.00000000000E+00 -0.31822676513E+03  0.31822676513E+03  0.00000000000E+00 0. -1.
         25    2    1    2    0    0  0.68739634329E+02  0.69765687450E+02 -0.50219724630E+02  0.16654938181E+03  0.12499714944E+03 0.  0.
          2    1    1    2  501    0 -0.12883433395E+03  0.30120095801E+02 -0.18825196491E+03  0.23009630173E+03  0.00000000000E+00 0. -1.
          1    1    1    2  502    0  0.60094699624E+02 -0.99885783250E+02  0.50842661015E+04  0.50856022587E+04  0.00000000000E+00 0. -1.
         22    1    3    3    0    0  0.41877229871E+02  0.96993624205E+02 -0.28775883627E+01  0.10568701923E+03  0.00000000000E+00 0.  1.
         22    1    3    3    0    0  0.26862404458E+02 -0.27227936756E+02 -0.47342136267E+02  0.60862362586E+02  0.00000000000E+00 0.  1.
</event>
<event>
 7    1  0.5950675E-006  0.4529984E+02  0.7818608E-02  0.1510808E+00
          2   -1    0    0  502    0  0.00000000000E+00  0.00000000000E+00  0.15641704462E+04  0.15641704462E+04  0.00000000000E+00 0. -1.
          1   -1    0    0  501    0 -0.00000000000E+00 -0.00000000000E+00 -0.10557437559E+03  0.10557437559E+03  0.00000000000E+00 0. -1.
         25    2    1    2    0    0  0.23822897088E+02  0.30860217592E+02  0.31256853631E+03  0.33888680940E+03  0.12500118496E+03 0.  0.
          2    1    1    2  501    0 -0.31582856407E+02  0.14382616054E+02 -0.88715699359E+02  0.95261806492E+02  0.00000000000E+00 0. -1.
          1    1    1    2  502    0  0.77599593192E+01 -0.45242833646E+02  0.12347432336E+04  0.12355962059E+04  0.00000000000E+00 0. -1.
         22    1    3    3    0    0  0.25255600101E+01 -0.37283874216E+02  0.31444678893E+02  0.48838852982E+02  0.00000000000E+00 0. -1.
         22    1    3    3    0    0  0.21297337078E+02  0.68144091809E+02  0.28112385742E+03  0.29004795642E+03  0.00000000000E+00 0. -1.
</event>
<event>
 7    1  0.5950675E-006  0.5082014E+02  0.7818608E-02  0.1442033E+00
          2   -1    0    0  502    0  0.00000000000E+00  0.00000000000E+00  0.91643668337E+03  0.91643668337E+03  0.00000000000E+00 0. -1.
          1   -1    0    0  501    0 -0.00000000000E+00 -0.00000000000E+00 -0.15950714345E+03  0.15950714345E+03  0.00000000000E+00 0. -1.
         25    2    1    2    0    0  0.82040505106E+01  0.68845528656E+02  0.47392429788E+03  0.49501165178E+03  0.12500112804E+03 0.  0.
          2    1    1    2  501    0  0.32557601257E+02 -0.38496428387E+02 -0.14314396772E+03  0.15176352623E+03  0.00000000000E+00 0. -1.
          1    1    1    2  502    0 -0.40761651768E+02 -0.30349100269E+02  0.42614920976E+03  0.42916864881E+03  0.00000000000E+00 0. -1.
         22    1    3    3    0    0 -0.26071244938E+02  0.85180881016E+02  0.41819331541E+03  0.42757588959E+03  0.00000000000E+00 0.  1.
         22    1    3    3    0    0  0.34275295448E+02 -0.16335352361E+02  0.55730982472E+02  0.67435762190E+02  0.00000000000E+00 0.  1.
</event>
<event>
 7    1  0.5950675E-006  0.1276666E+03  0.7818608E-02  0.1330251E+00
          2   -1    0    0  502    0  0.00000000000E+00  0.00000000000E+00  0.29971920802E+03  0.29971920802E+03  0.00000000000E+00 0. -1.
          1   -1    0    0  501    0 -0.00000000000E+00 -0.00000000000E+00 -0.14916030867E+04  0.14916030867E+04  0.00000000000E+00 0. -1.
         25    2    1    2    0    0  0.10573749063E+03  0.10445728776E+03 -0.25648108274E+02  0.19589464646E+03  0.12500058064E+03 0.  0.
          2    1    1    2  501    0 -0.49071232913E+02  0.72517961129E+01 -0.13620631769E+04  0.13629661303E+04  0.00000000000E+00 0. -1.
          1    1    1    2  502    0 -0.56666257718E+02 -0.11170908387E+03  0.19582740652E+03  0.23246151795E+03  0.00000000000E+00 0. -1.
         22    1    3    3    0    0 -0.87299610198E+01  0.11571667116E+02  0.33930693136E+02  0.36897257838E+02  0.00000000000E+00 0.  1.
         22    1    3    3    0    0  0.11446745165E+03  0.92885620645E+02 -0.59578801409E+02  0.15899738862E+03  0.00000000000E+00 0.  1.
</event>
<event>
 7    1  0.5950675E-006  0.8930396E+02  0.7818608E-02  0.1326544E+00
          2   -1    0    0  502    0  0.00000000000E+00  0.00000000000E+00  0.90263247588E+03  0.90263247588E+03  0.00000000000E+00 0. -1.
          1   -1    0    0  501    0 -0.00000000000E+00 -0.00000000000E+00 -0.26768595378E+03  0.26768595378E+03  0.00000000000E+00 0. -1.
         25    2    1    2    0    0 -0.45477936133E+02  0.15081063065E+03  0.21970761080E+03  0.29784003033E+03  0.12500064175E+03 0.  0.
          2    1    1    2  501    0  0.24781360336E+02 -0.68951010718E+02 -0.21988271265E+03  0.23176877490E+03  0.00000000000E+00 0. -1.
          1    1    1    2  502    0  0.20696575798E+02 -0.81859619929E+02  0.63512162395E+03  0.64070962442E+03  0.00000000000E+00 0. -1.
         22    1    3    3    0    0  0.35487657934E+02  0.45843728382E+02  0.27035606351E+02  0.63968314878E+02  0.00000000000E+00 0.  1.
         22    1    3    3    0    0 -0.80965594067E+02  0.10496690227E+03  0.19267200445E+03  0.23387171546E+03  0.00000000000E+00 0.  1.
</event>
<event>
 7    1  0.5950675E-006  0.1673977E+03  0.7818608E-02  0.1299874E+00
          2   -1    0    0  502    0  0.00000000000E+00  0.00000000000E+00  0.23045742863E+04  0.23045742863E+04  0.00000000000E+00 0. -1.
          1   -1    0    0  501    0 -0.00000000000E+00 -0.00000000000E+00 -0.23360634963E+03  0.23360634963E+03  0.00000000000E+00 0. -1.
         25    2    1    2    0    0  0.19731129382E+03  0.63340045962E+02 -0.12009269716E+02  0.24230769282E+03  0.12500034941E+03 0.  0.
          2    1    1    2  501    0 -0.32898733146E+02 -0.37294345234E+02 -0.97288227223E+02  0.10926204275E+03  0.00000000000E+00 0. -1.
          1    1    1    2  502    0 -0.16441256067E+03 -0.26045700728E+02  0.21802654336E+04  0.21866109004E+04  0.00000000000E+00 0. -1.
         22    1    3    3    0    0  0.20404973756E+03  0.47015625556E+02 -0.36050608897E+02  0.21247684779E+03  0.00000000000E+00 0.  1.
         22    1    3    3    0    0 -0.67384437445E+01  0.16324420406E+02  0.24041339181E+02  0.29830845032E+02  0.00000000000E+00 0.  1.
</event>
<event>
 7    1  0.5950675E-006  0.7374589E+02  0.7818608E-02  0.1385141E+00
          2   -1    0    0  502    0  0.00000000000E+00  0.00000000000E+00  0.17664639875E+02  0.17664639875E+02  0.00000000000E+00 0. -1.
          1   -1    0    0  501    0 -0.00000000000E+00 -0.00000000000E+00 -0.26497382357E+04  0.26497382357E+04  0.00000000000E+00 0. -1.
         25    2    1    2    0    0 -0.49447256529E+02  0.73647895613E+02 -0.69252519289E+03  0.70928400928E+03  0.12499447717E+03 0.  0.
          2    1    1    2  501    0 -0.20372442821E+02 -0.50057932811E+02 -0.17954959609E+04  0.17963091545E+04  0.00000000000E+00 0. -1.
          1    1    1    2  502    0  0.69819699350E+02 -0.23589962802E+02 -0.14405244200E+03  0.16180971173E+03  0.00000000000E+00 0. -1.
         22    1    3    3    0    0 -0.26138675186E+02  0.17950782472E+02 -0.58584831323E+03  0.58670580963E+03  0.00000000000E+00 0. -1.
         22    1    3    3    0    0 -0.23308581343E+02  0.55697113141E+02 -0.10667687966E+03  0.12257819965E+03  0.00000000000E+00 0. -1.
</event>
<event>
 7    1  0.5950675E-006  0.5782975E+02  0.7818608E-02  0.1411596E+00
          2   -1    0    0  502    0  0.00000000000E+00  0.00000000000E+00  0.47829793112E+03  0.47829793112E+03  0.00000000000E+00 0. -1.
          1   -1    0    0  501    0 -0.00000000000E+00 -0.00000000000E+00 -0.17543312168E+03  0.17543312168E+03  0.00000000000E+00 0. -1.
         25    2    1    2    0    0  0.24419228571E+02 -0.17914668834E+02  0.51509234612E+02  0.13853781532E+03  0.12498916329E+03 0.  0.
          2    1    1    2  501    0  0.19117569726E+02  0.55978132258E+02 -0.12295381178E+03  0.13644292798E+03  0.00000000000E+00 0. -1.
          1    1    1    2  502    0 -0.43536798297E+02 -0.38063463424E+02  0.37430938660E+03  0.37875030951E+03  0.00000000000E+00 0. -1.
         22    1    3    3    0    0  0.46666541600E+02 -0.42162998545E+02  0.75167492869E+02  0.98008349315E+02  0.00000000000E+00 0.  1.
         22    1    3    3    0    0 -0.22247313029E+02  0.24248329712E+02 -0.23658258257E+02  0.40529466004E+02  0.00000000000E+00 0.  1.
</event>
<event>
 7    1  0.5950675E-006  0.1446291E+03  0.7818608E-02  0.1244370E+00
          2   -1    0    0  502    0  0.00000000000E+00  0.00000000000E+00  0.29478521263E+03  0.29478521263E+03  0.00000000000E+00 0. -1.
          1   -1    0    0  501    0 -0.00000000000E+00 -0.00000000000E+00 -0.68611225125E+03  0.68611225125E+03  0.00000000000E+00 0. -1.
         25    2    1    2    0    0 -0.15285504784E+02  0.91227370910E+02 -0.13958728305E+03  0.20896318294E+03  0.12499968950E+03 0.  0.
          2    1    1    2  501    0  0.10336029317E+03 -0.13486899253E+03 -0.48762812356E+03  0.51638569135E+03  0.00000000000E+00 0. -1.
          1    1    1    2  502    0 -0.88074788383E+02  0.43641621622E+02  0.23588836799E+03  0.25554858959E+03  0.00000000000E+00 0. -1.
         22    1    3    3    0    0 -0.50488974262E+02  0.77389196748E+02 -0.36842163134E+02  0.99476476011E+02  0.00000000000E+00 0.  1.
         22    1    3    3    0    0  0.35203469477E+02  0.13838174163E+02 -0.10274511991E+03  0.10948670693E+03  0.00000000000E+00 0.  1.
</event>
<event>
 7    1  0.5950675E-006  0.7723491E+02  0.7818608E-02  0.1401999E+00
          2   -1    0    0  502    0  0.00000000000E+00  0.00000000000E+00  0.11904340200E+04  0.11904340200E+04  0.00000000000E+00 0. -1.
          1   -1    0    0  501    0 -0.00000000000E+00 -0.00000000000E+00 -0.57633848844E+02  0.57633848844E+02  0.00000000000E+00 0. -1.
         25    2    1    2    0    0 -0.75226210128E+02 -0.31658576206E+02  0.10177491704E+04  0.10286398000E+04  0.12500086444E+03 0.  0.
          2    1    1    2  501    0  0.43748068977E+02  0.63953331028E+02 -0.17481701782E+02  0.79432562504E+02  0.00000000000E+00 0. -1.
          1    1    1    2  502    0  0.31478141151E+02 -0.32294754822E+02  0.13253270254E+03  0.13999550636E+03  0.00000000000E+00 0. -1.
         22    1    3    3    0    0 -0.93290875659E+02  0.17970276387E+02  0.72025736124E+03  0.72649623862E+03  0.00000000000E+00 0. -1.
         22    1    3    3    0    0  0.18064665531E+02 -0.49628852593E+02  0.29749180917E+03  0.30214356137E+03  0.00000000000E+00 0. -1.
</event>
<event>
 7    1  0.5950675E-006  0.7317323E+02  0.7818608E-02  0.1479163E+00
          2   -1    0    0  502    0  0.00000000000E+00  0.00000000000E+00  0.57857196600E+03  0.57857196600E+03  0.00000000000E+00 0. -1.
          1   -1    0    0  501    0 -0.00000000000E+00 -0.00000000000E+00 -0.21151493378E+03  0.21151493378E+03  0.00000000000E+00 0. -1.
         25    2    1    2    0    0 -0.71148767688E+01 -0.65612547318E+02  0.25907827664E+03  0.29513095651E+03  0.12500040089E+03 0.  0.
          2    1    1    2  501    0  0.33855030020E+02  0.65199543963E+02 -0.18588598246E+03  0.19987681723E+03  0.00000000000E+00 0. -1.
          1    1    1    2  502    0 -0.26740153252E+02  0.41300335519E+00  0.29386473803E+03  0.29507912604E+03  0.00000000000E+00 0. -1.
         22    1    3    3    0    0  0.53501144330E+02 -0.24637669857E+01  0.10717998067E+03  0.11981648822E+03  0.00000000000E+00 0. -1.
         22    1    3    3    0    0 -0.60616021099E+02 -0.63148780332E+02  0.15189829597E+03  0.17531446829E+03  0.00000000000E+00 0. -1.
</event>
<event>
 7    1  0.5950675E-006  0.1053735E+03  0.7818608E-02  0.1323720E+00
          2   -1    0    0  502    0  0.00000000000E+00  0.00000000000E+00  0.68772227843E+03  0.68772227843E+03  0.00000000000E+00 0. -1.
          1   -1    0    0  501    0 -0.00000000000E+00 -0.00000000000E+00 -0.80301597675E+02  0.80301597675E+02  0.00000000000E+00 0. -1.
         25    2    1    2    0    0  0.55606361089E+02  0.77726914069E+02  0.32826764491E+03  0.36402715406E+03  0.12499032615E+03 0.  0.
          2    1    1    2  501    0 -0.49839505523E+02  0.39621244385E+02 -0.32102486991E+02  0.71304901574E+02  0.00000000000E+00 0. -1.
          1    1    1    2  502    0 -0.57668555665E+01 -0.11734815845E+03  0.31125552284E+03  0.33269182048E+03  0.00000000000E+00 0. -1.
         22    1    3    3    0    0  0.45458718291E+02  0.82924233819E+02  0.10835184238E+03  0.14381601222E+03  0.00000000000E+00 0.  1.
         22    1    3    3    0    0  0.10147642798E+02 -0.51973197498E+01  0.21991580253E+03  0.22021114184E+03  0.00000000000E+00 0.  1.
</event>
<event>
 7    1  0.5950675E-006  0.1552304E+03  0.7818608E-02  0.1276547E+00
          2   -1    0    0  502    0  0.00000000000E+00  0.00000000000E+00  0.17688894256E+04  0.17688894256E+04  0.00000000000E+00 0. -1.
          1   -1    0    0  501    0 -0.00000000000E+00 -0.00000000000E+00 -0.17834286804E+03  0.17834286804E+03  0.00000000000E+00 0. -1.
         25    2    1    2    0    0  0.92708334547E+02  0.11005376037E+03  0.23295550888E+03  0.30099861974E+03  0.12500093800E+03 0.  0.
          2    1    1    2  501    0 -0.51425244976E+02  0.42580435919E+02 -0.13218527606E+03  0.14808982596E+03  0.00000000000E+00 0. -1.
          1    1    1    2  502    0 -0.41283089571E+02 -0.15263419629E+03  0.14897763248E+04  0.14981438480E+04  0.00000000000E+00 0. -1.
         22    1    3    3    0    0  0.50074835845E+02  0.55602211978E+02  0.20519667140E+02  0.77589637847E+02  0.00000000000E+00 0. -1.
         22    1    3    3    0    0  0.42633498703E+02  0.54451548393E+02  0.21243584174E+03  0.22340898189E+03  0.00000000000E+00 0. -1.
</event>
<event>
 7    1  0.5950675E-006  0.1134977E+03  0.7818608E-02  0.1311796E+00
          2   -1    0    0  502    0  0.00000000000E+00  0.00000000000E+00  0.11633630420E+04  0.11633630420E+04  0.00000000000E+00 0. -1.
          1   -1    0    0  501    0 -0.00000000000E+00 -0.00000000000E+00 -0.36180004445E+03  0.36180004445E+03  0.00000000000E+00 0. -1.
         25    2    1    2    0    0  0.12084426141E+03 -0.16102970526E+02  0.30768410497E+03  0.35377508872E+03  0.12499865510E+03 0.  0.
          2    1    1    2  501    0 -0.87458591122E+02  0.72782143168E+02 -0.32784866951E+03  0.34703169254E+03  0.00000000000E+00 0. -1.
          1    1    1    2  502    0 -0.33385670290E+02 -0.56679172642E+02  0.82172756207E+03  0.82435630516E+03  0.00000000000E+00 0. -1.
         22    1    3    3    0    0  0.59086011010E+02 -0.27549508433E+02  0.27567567430E+03  0.28327938420E+03  0.00000000000E+00 0. -1.
         22    1    3    3    0    0  0.61758250402E+02  0.11446537907E+02  0.32008430669E+02  0.70495704526E+02  0.00000000000E+00 0. -1.
</event>
<event>
 7    1  0.5950675E-006  0.8541219E+02  0.7818608E-02  0.1369468E+00
          2   -1    0    0  502    0  0.00000000000E+00  0.00000000000E+00  0.12808937438E+03  0.12808937438E+03  0.00000000000E+00 0. -1.
          1   -1    0    0  501    0 -0.00000000000E+00 -0.00000000000E+00 -0.13659085889E+04  0.13659085889E+04  0.00000000000E+00 0. -1.
         25    2    1    2    0    0 -0.65330151401E+02 -0.11979334699E+03 -0.74121717364E+03  0.76396757096E+03  0.12500030523E+03 0.  0.
          2    1    1    2  501    0  0.18102315437E+02  0.49868808675E+02 -0.59673329055E+03  0.59908698196E+03  0.00000000000E+00 0. -1.
          1    1    1    2  502    0  0.47227835964E+02  0.69924538312E+02  0.10013124969E+03  0.13094341035E+03  0.00000000000E+00 0. -1.
         22    1    3    3    0    0 -0.33166068979E+02 -0.11790810373E+03 -0.33876487013E+03  0.36022763122E+03  0.00000000000E+00 0.  1.
         22    1    3    3    0    0 -0.32164082421E+02 -0.18852432532E+01 -0.40245230351E+03  0.40373993974E+03  0.00000000000E+00 0.  1.
</event>
<event>
 7    1  0.5950675E-006  0.1065301E+03  0.7818608E-02  0.1329162E+00
          2   -1    0    0  502    0  0.00000000000E+00  0.00000000000E+00  0.88322943282E+02  0.88322943282E+02  0.00000000000E+00 0. -1.
          1   -1    0    0  501    0 -0.00000000000E+00 -0.00000000000E+00 -0.19162884658E+04  0.19162884658E+04  0.00000000000E+00 0. -1.
         25    2    1    2    0    0  0.14117243441E+02 -0.85937402994E+02 -0.18941811653E+03  0.24306767878E+03  0.12497255621E+03 0.  0.
          2    1    1    2  501    0 -0.73819670199E+02  0.79789035159E+02 -0.16832193429E+04  0.16867255231E+04  0.00000000000E+00 0. -1.
          1    1    1    2  502    0  0.59702426758E+02  0.61483678342E+01  0.44671936904E+02  0.74818207240E+02  0.00000000000E+00 0. -1.
         22    1    3    3    0    0  0.16707817768E+02 -0.10776312646E+03 -0.90425421710E+02  0.14166439034E+03  0.00000000000E+00 0.  1.
         22    1    3    3    0    0 -0.25905743267E+01  0.21825723466E+02 -0.98992694818E+02  0.10140328845E+03  0.00000000000E+00 0.  1.
</event>
<event>
 7    1  0.5950675E-006  0.8848591E+02  0.7818608E-02  0.1398063E+00
          2   -1    0    0  502    0  0.00000000000E+00  0.00000000000E+00  0.22218231928E+03  0.22218231928E+03  0.00000000000E+00 0. -1.
          1   -1    0    0  501    0 -0.00000000000E+00 -0.00000000000E+00 -0.65367831323E+03  0.65367831323E+03  0.00000000000E+00 0. -1.
         25    2    1    2    0    0 -0.62061032840E+02 -0.83939330709E+02 -0.17302928002E+02  0.16377407439E+03  0.12500069235E+03 0.  0.
          2    1    1    2  501    0 -0.12434736363E+02  0.38659018455E+02 -0.54957003802E+03  0.55106838873E+03  0.00000000000E+00 0. -1.
          1    1    1    2  502    0  0.74495769203E+02  0.45280312254E+02  0.13537697207E+03  0.16101816939E+03  0.00000000000E+00 0. -1.
         22    1    3    3    0    0 -0.45405288182E+02 -0.25570504006E+01  0.41844374346E+02  0.61799112988E+02  0.00000000000E+00 0. -1.
         22    1    3    3    0    0 -0.16655744658E+02 -0.81382280308E+02 -0.59147302348E+02  0.10197496140E+03  0.00000000000E+00 0. -1.
</event>
<event>
 7    1  0.5950675E-006  0.1344893E+03  0.7818608E-02  0.1431108E+00
          2   -1    0    0  502    0  0.00000000000E+00  0.00000000000E+00  0.19567665670E+03  0.19567665670E+03  0.00000000000E+00 0. -1.
          1   -1    0    0  501    0 -0.00000000000E+00 -0.00000000000E+00 -0.42495017547E+03  0.42495017547E+03  0.00000000000E+00 0. -1.
         25    2    1    2    0    0  0.78962323058E+02  0.12440632611E+03 -0.15116591272E+03  0.24533326304E+03  0.12500117738E+03 0.  0.
          2    1    1    2  501    0 -0.77519441299E+02 -0.10377614103E+03 -0.20730768607E+03  0.24444882477E+03  0.00000000000E+00 0. -1.
          1    1    1    2  502    0 -0.14428817587E+01 -0.20630185086E+02  0.12920008003E+03  0.13084474435E+03  0.00000000000E+00 0. -1.
         22    1    3    3    0    0  0.83876841806E+02  0.14000148265E+03 -0.99505130064E+02  0.19114656849E+03  0.00000000000E+00 0.  1.
         22    1    3    3    0    0 -0.49145187484E+01 -0.15595156534E+02 -0.51660782660E+02  0.54186694556E+02  0.00000000000E+00 0.  1.
</event>
<event>
 7    1  0.5950675E-006  0.1119281E+03  0.7818608E-02  0.1324252E+00
          2   -1    0    0  502    0  0.00000000000E+00  0.00000000000E+00  0.97731123371E+03  0.97731123371E+03  0.00000000000E+00 0. -1.
          1   -1    0    0  501    0 -0.00000000000E+00 -0.00000000000E+00 -0.16359855719E+03  0.16359855719E+03  0.00000000000E+00 0. -1.
         25    2    1    2    0    0 -0.11193182081E+03  0.12154316009E+03  0.25064066055E+03  0.32518725503E+03  0.12499815133E+03 0.  0.
          2    1    1    2  501    0  0.44676275889E+02 -0.39536882272E+02 -0.11492145751E+03  0.12948388349E+03  0.00000000000E+00 0. -1.
          1    1    1    2  502    0  0.67255544922E+02 -0.82006277819E+02  0.67799347348E+03  0.68623865237E+03  0.00000000000E+00 0. -1.
         22    1    3    3    0    0 -0.24912454814E+02  0.11385045619E+03  0.17123654280E+03  0.20713403962E+03  0.00000000000E+00 0. -1.
         22    1    3    3    0    0 -0.87019365996E+02  0.76927038970E+01  0.79404117754E+02  0.11805321541E+03  0.00000000000E+00 0. -1.
</event>
<event>
 7    1  0.5950675E-006  0.9940593E+02  0.7818608E-02  0.1330389E+00
          2   -1    0    0  502    0  0.00000000000E+00  0.00000000000E+00  0.48794289108E+03  0.48794289108E+03  0.00000000000E+00 0. -1.
          1   -1    0    0  501    0 -0.00000000000E+00 -0.00000000000E+00 -0.53092164174E+03  0.53092164174E+03  0.00000000000E+00 0. -1.
         25    2    1    2    0    0 -0.12899030730E+00  0.59405214993E+02  0.63618301069E+02  0.15232113523E+03  0.12500177518E+03 0.  0.
          2    1    1    2  501    0 -0.58884876544E+02 -0.83196607846E+02 -0.47850053675E+03  0.48923600431E+03  0.00000000000E+00 0. -1.
          1    1    1    2  502    0  0.59013866852E+02  0.23791392852E+02  0.37190348503E+03  0.37730739329E+03  0.00000000000E+00 0. -1.
         22    1    3    3    0    0 -0.47523690478E+02  0.74346996421E+02  0.34632942797E+02  0.94791443497E+02  0.00000000000E+00 0.  1.
         22    1    3    3    0    0  0.47394700171E+02 -0.14941781428E+02  0.28985358272E+02  0.57529691731E+02  0.00000000000E+00 0.  1.
</event>
<event>
 7    1  0.5950675E-006  0.4193835E+02  0.7818608E-02  0.1546814E+00
          2   -1    0    0  502    0  0.00000000000E+00  0.00000000000E+00  0.95704493588E+02  0.95704493588E+02  0.00000000000E+00 0. -1.
          1   -1    0    0  501    0 -0.00000000000E+00 -0.00000000000E+00 -0.77333421348E+03  0.77333421348E+03  0.00000000000E+00 0. -1.
         25    2    1    2    0    0 -0.68918562261E+02 -0.17841070535E+02 -0.62005658404E+03  0.63652441184E+03  0.12500034974E+03 0.  0.
          2    1    1    2  501    0  0.28932749994E+02  0.59970689648E+01 -0.13842359965E+03  0.14154208490E+03  0.00000000000E+00 0. -1.
          1    1    1    2  502    0  0.39985812267E+02  0.11844001570E+02  0.80850463796E+02  0.90972210328E+02  0.00000000000E+00 0. -1.
         22    1    3    3    0    0 -0.10176955546E+03 -0.13086723983E+02 -0.35931240711E+03  0.37367594338E+03  0.00000000000E+00 0. -1.
         22    1    3    3    0    0  0.32850993197E+02 -0.47543465516E+01 -0.26074417693E+03  0.26284846846E+03  0.00000000000E+00 0. -1.
</event>
<event>
 7    1  0.5950675E-006  0.7850756E+02  0.7818608E-02  0.1433317E+00
          2   -1    0    0  502    0  0.00000000000E+00  0.00000000000E+00  0.11101738000E+04  0.11101738000E+04  0.00000000000E+00 0. -1.
          1   -1    0    0  501    0 -0.00000000000E+00 -0.00000000000E+00 -0.15921236478E+03  0.15921236478E+03  0.00000000000E+00 0. -1.
         25    2    1    2    0    0 -0.16628020377E+02 -0.10705323007E+03  0.25280106422E+02  0.16733578721E+03  0.12500118708E+03 0.  0.
          2    1    1    2  501    0  0.14605653916E+02  0.72270857141E+02 -0.72415248485E+02  0.10334587622E+03  0.00000000000E+00 0. -1.
          1    1    1    2  502    0  0.20223664616E+01  0.34782372926E+02  0.99809657724E+03  0.99870450131E+03  0.00000000000E+00 0. -1.
         22    1    3    3    0    0 -0.61500793088E+02 -0.90936315747E+02  0.40916882726E+02  0.11715780966E+03  0.00000000000E+00 0.  1.
         22    1    3    3    0    0  0.44872772711E+02 -0.16116914320E+02 -0.15636776304E+02  0.50177977551E+02  0.00000000000E+00 0.  1.
</event>
<event>
 7    1  0.5950675E-006  0.1281338E+03  0.7818608E-02  0.1254433E+00
          2   -1    0    0  502    0  0.00000000000E+00  0.00000000000E+00  0.21985018173E+03  0.21985018173E+03  0.00000000000E+00 0. -1.
          1   -1    0    0  501    0 -0.00000000000E+00 -0.00000000000E+00 -0.41374981706E+03  0.41374981706E+03  0.00000000000E+00 0. -1.
         25    2    1    2    0    0 -0.35830296428E+02 -0.63885796453E+02 -0.49976787825E+01  0.14496564449E+03  0.12499942463E+03 0.  0.
          2    1    1    2  501    0 -0.90885899832E+02  0.90321754187E+02 -0.29476692711E+03  0.32141220790E+03  0.00000000000E+00 0. -1.
          1    1    1    2  502    0  0.12671619626E+03 -0.26435957735E+02  0.10586497057E+03  0.16722214641E+03  0.00000000000E+00 0. -1.
         22    1    3    3    0    0 -0.43402907172E+02  0.47123011242E+01 -0.47020683656E+02  0.64163563058E+02  0.00000000000E+00 0.  1.
         22    1    3    3    0    0  0.75726107438E+01 -0.68598097577E+02  0.42023004874E+02  0.80802081429E+02  0.00000000000E+00 0.  1.
</event>
<event>
 7    1  0.5950675E-006  0.1042366E+03  0.7818608E-02  0.1304189E+00
          2   -1    0    0  502    0  0.00000000000E+00  0.00000000000E+00  0.21722740890E+03  0.21722740890E+03  0.00000000000E+00 0. -1.
          1   -1    0    0  501    0 -0.00000000000E+00 -0.00000000000E+00 -0.42206983946E+03  0.42206983946E+03  0.00000000000E+00 0. -1.
         25    2    1    2    0    0 -0.15670316404E+02 -0.87286282600E+02  0.52573998405E+02  0.16202927425E+03  0.12500002584E+03 0.  0.
          2    1    1    2  501    0 -0.76554836426E+02  0.56263854585E+01 -0.32693334181E+03  0.33582392586E+03  0.00000000000E+00 0. -1.
          1    1    1    2  502    0  0.92225152831E+02  0.81659897142E+02  0.69516912836E+02  0.14144404825E+03  0.00000000000E+00 0. -1.
         22    1    3    3    0    0 -0.19563266308E+02  0.87645936032E+01  0.61843672050E+02  0.65453642086E+02  0.00000000000E+00 0.  1.
         22    1    3    3    0    0  0.38929499040E+01 -0.96050876204E+02 -0.92696736449E+01  0.96575632164E+02  0.00000000000E+00 0.  1.
</event>
<event>
 7    1  0.5950675E-006  0.1112946E+03  0.7818608E-02  0.1319801E+00
          2   -1    0    0  502    0  0.00000000000E+00  0.00000000000E+00  0.10012708509E+04  0.10012708509E+04  0.00000000000E+00 0. -1.
          1   -1    0    0  501    0 -0.00000000000E+00 -0.00000000000E+00 -0.34280908739E+03  0.34280908739E+03  0.00000000000E+00 0. -1.
         25    2    1    2    0    0  0.40795961118E+02 -0.12873134026E+03  0.23948078126E+03  0.30201246487E+03  0.12499766371E+03 0.  0.
          2    1    1    2  501    0 -0.58996532147E+02  0.20400225329E+02 -0.30422654894E+03  0.31056489351E+03  0.00000000000E+00 0. -1.
          1    1    1    2  502    0  0.18200571029E+02  0.10833111493E+03  0.72320753123E+03  0.73150257995E+03  0.00000000000E+00 0. -1.
         22    1    3    3    0    0  0.46780185998E+02  0.11646511810E+01  0.30427582483E+02  0.55817380717E+02  0.00000000000E+00 0. -1.
         22    1    3    3    0    0 -0.59842248800E+01 -0.12989599144E+03  0.20905319878E+03  0.24619508415E+03  0.00000000000E+00 0. -1.
</event>
<event>
 7    1  0.5950675E-006  0.5422853E+02  0.7818608E-02  0.1551659E+00
          2   -1    0    0  502    0  0.00000000000E+00  0.00000000000E+00  0.43480082778E+03  0.43480082778E+03  0.00000000000E+00 0. -1.
          1   -1    0    0  501    0 -0.00000000000E+00 -0.00000000000E+00 -0.45615997190E+03  0.45615997190E+03  0.00000000000E+00 0. -1.
         25    2    1    2    0    0  0.54990583524E+02  0.38587016681E+02 -0.23364870785E+03  0.27336504910E+03  0.12499523695E+03 0.  0.
          2    1    1    2  501    0 -0.32943845276E+02 -0.40725828607E+02 -0.19896511052E+03  0.20574500058E+03  0.00000000000E+00 0. -1.
          1    1    1    2  502    0 -0.22046738248E+02  0.21388119260E+01  0.41125467425E+03  0.41185075000E+03  0.00000000000E+00 0. -1.
         22    1    3    3    0    0  0.21295794450E+02 -0.39589980843E+02 -0.13888533772E+03  0.14597950020E+03  0.00000000000E+00 0.  1.
         22    1    3    3    0    0  0.33694789074E+02  0.78176997524E+02 -0.94763370123E+02  0.12738554890E+03  0.00000000000E+00 0.  1.
</event>
<event>
 7    1  0.5950675E-006  0.1807700E+03  0.7818608E-02  0.1305144E+00
          2   -1    0    0  502    0  0.00000000000E+00  0.00000000000E+00  0.29164718835E+03  0.29164718835E+03  0.00000000000E+00 0. -1.
          1   -1    0    0  501    0 -0.00000000000E+00 -0.00000000000E+00 -0.49576614487E+03  0.49576614487E+03  0.00000000000E+00 0. -1.
         25    2    1    2    0    0 -0.17218681204E+03 -0.69134562439E+02 -0.11004380057E+03  0.24932433675E+03  0.12500040356E+03 0.  0.
          2    1    1    2  501    0 -0.66490901224E+01  0.43370616055E+02 -0.27730686125E+03  0.28075668475E+03  0.00000000000E+00 0. -1.
          1    1    1    2  502    0  0.17883590216E+03  0.25763946384E+02  0.18323170529E+03  0.25733231173E+03  0.00000000000E+00 0. -1.
         22    1    3    3    0    0 -0.53097139037E+02 -0.88250589586E+02 -0.46645891919E+02  0.11306330956E+03  0.00000000000E+00 0. -1.
         22    1    3    3    0    0 -0.11908967300E+03  0.19116027147E+02 -0.63397908647E+02  0.13626102719E+03  0.00000000000E+00 0. -1.
</event>
<event>
 7    1  0.5950675E-006  0.7440832E+02  0.7818608E-02  0.1370176E+00
          2   -1    0    0  502    0  0.00000000000E+00  0.00000000000E+00  0.65152920020E+03  0.65152920020E+03  0.00000000000E+00 0. -1.
          1   -1    0    0  501    0 -0.00000000000E+00 -0.00000000000E+00 -0.46645714866E+03  0.46645714866E+03  0.00000000000E+00 0. -1.
         25    2    1    2    0    0 -0.89711465787E+02  0.76471344079E+02  0.11790576395E+03  0.20838054239E+03  0.12499867085E+03 0.  0.
          2    1    1    2  501    0  0.19910933322E+02 -0.57174454059E+02 -0.41633360703E+03  0.42071253345E+03  0.00000000000E+00 0. -1.
          1    1    1    2  502    0  0.69800532465E+02 -0.19296890020E+02  0.48349989462E+03  0.48889327301E+03  0.00000000000E+00 0. -1.
         22    1    3    3    0    0 -0.76604446392E+02  0.90720441809E+02  0.13692756834E+03  0.18123906516E+03  0.00000000000E+00 0. -1.
         22    1    3    3    0    0 -0.13107019395E+02 -0.14249097730E+02 -0.19021804393E+02  0.27141477224E+02  0.00000000000E+00 0. -1.
</event>
<event>
 7    1  0.5950675E-006  0.4483829E+03  0.7818608E-02  0.1213199E+00
          2   -1    0    0  502    0  0.00000000000E+00  0.00000000000E+00  0.10645903169E+04  0.10645903169E+04  0.00000000000E+00 0. -1.
          1   -1    0    0  501    0 -0.00000000000E+00 -0.00000000000E+00 -0.48138794631E+03  0.48138794631E+03  0.00000000000E+00 0. -1.
         25    2    1    2    0    0 -0.44416289251E+03 -0.42860915481E+02  0.47935208936E+03  0.66672438136E+03  0.12500096788E+03 0.  0.
          2    1    1    2  501    0 -0.77248776650E+01  0.43085826465E+02 -0.28179779896E+03  0.28517724607E+03  0.00000000000E+00 0. -1.
          1    1    1    2  502    0  0.45188777018E+03 -0.22491098345E+00  0.38564808018E+03  0.59407663577E+03  0.00000000000E+00 0. -1.
         22    1    3    3    0    0 -0.29090805120E+03  0.25081250064E+02  0.26255094598E+03  0.39266978824E+03  0.00000000000E+00 0. -1.
         22    1    3    3    0    0 -0.15325484131E+03 -0.67942165545E+02  0.21680114337E+03  0.27405459312E+03  0.00000000000E+00 0. -1.
</event>
<event>
 7    1  0.5950675E-006  0.1666524E+03  0.7818608E-02  0.1243827E+00
          2   -1    0    0  502    0  0.00000000000E+00  0.00000000000E+00  0.11040351262E+04  0.11040351262E+04  0.00000000000E+00 0. -1.
          1   -1    0    0  501    0 -0.00000000000E+00 -0.00000000000E+00 -0.20874459156E+04  0.20874459156E+04  0.00000000000E+00 0. -1.
         25    2    1    2    0    0 -0.73978393027E+02  0.67939261016E+02  0.25489332834E+03  0.30113740866E+03  0.12499833694E+03 0.  0.
          2    1    1    2  501    0  0.67312258258E+02 -0.15345234030E+03 -0.20586839007E+04  0.20654921844E+04  0.00000000000E+00 0. -1.
          1    1    1    2  502    0  0.66661347691E+01  0.85513079287E+02  0.82037978299E+03  0.82485144870E+03  0.00000000000E+00 0. -1.
         22    1    3    3    0    0 -0.42541464319E+02  0.58465553912E+02  0.25820475556E+03  0.26813745164E+03  0.00000000000E+00 0.  1.
         22    1    3    3    0    0 -0.31436928709E+02  0.94737071044E+01 -0.33114272163E+01  0.32999957017E+02  0.00000000000E+00 0.  1.
</event>
<event>
 7    1  0.5950675E-006  0.6924232E+02  0.7818608E-02  0.1362712E+00
          2   -1    0    0  502    0  0.00000000000E+00  0.00000000000E+00  0.88441224772E+03  0.88441224772E+03  0.00000000000E+00 0. -1.
          1   -1    0    0  501    0 -0.00000000000E+00 -0.00000000000E+00 -0.53762375994E+03  0.53762375994E+03  0.00000000000E+00 0. -1.
         25    2    1    2    0    0  0.34842131777E+02  0.88499808657E+02  0.11000454853E+03  0.19176272178E+03  0.12500300193E+03 0.  0.
          2    1    1    2  501    0 -0.64294713661E+02 -0.25848837170E+02 -0.49268113036E+03  0.49753057072E+03  0.00000000000E+00 0. -1.
          1    1    1    2  502    0  0.29452581884E+02 -0.62650971487E+02  0.72946506962E+03  0.73274271514E+03  0.00000000000E+00 0. -1.
         22    1    3    3    0    0  0.28788531990E+02  0.63820347548E+02 -0.85339270459E+01  0.70531157981E+02  0.00000000000E+00 0.  1.
         22    1    3    3    0    0  0.60535997871E+01  0.24679461109E+02  0.11853847557E+03  0.12123156380E+03  0.00000000000E+00 0.  1.
</event>
<event>
 7    1  0.5950675E-006  0.5932120E+02  0.7818608E-02  0.1491856E+00
          2   -1    0    0  502    0  0.00000000000E+00  0.00000000000E+00  0.20546937155E+04  0.20546937155E+04  0.00000000000E+00 0. -1.
          1   -1    0    0  501    0 -0.00000000000E+00 -0.00000000000E+00 -0.66435298976E+03  0.66435298976E+03  0.00000000000E+00 0. -1.
         25    2    1    2    0    0  0.59864802307E+02  0.27887755564E+02  0.38624673123E+03  0.41130784217E+03  0.12500432863E+03 0.  0.
          2    1    1    2  501    0 -0.36387960387E+02 -0.46852347052E+02 -0.65033476332E+03  0.65303486160E+03  0.00000000000E+00 0. -1.
          1    1    1    2  502    0 -0.23476841920E+02  0.18964591488E+02  0.16544287578E+04  0.16547040015E+04  0.00000000000E+00 0. -1.
         22    1    3    3    0    0 -0.27012726604E+02 -0.17925663380E+01  0.21772027549E+03  0.21939694404E+03  0.00000000000E+00 0.  1.
         22    1    3    3    0    0  0.86877528911E+02  0.29680321902E+02  0.16852645574E+03  0.19191089813E+03  0.00000000000E+00 0.  1.
</event>
<event>
 7    1  0.5950675E-006  0.7586439E+02  0.7818608E-02  0.1385116E+00
          2   -1    0    0  502    0  0.00000000000E+00  0.00000000000E+00  0.17379551136E+04  0.17379551136E+04  0.00000000000E+00 0. -1.
          1   -1    0    0  501    0 -0.00000000000E+00 -0.00000000000E+00 -0.54920215757E+03  0.54920215757E+03  0.00000000000E+00 0. -1.
         25    2    1    2    0    0  0.42381227472E+02  0.53383151166E-01  0.82059541702E+03  0.83114402912E+03  0.12500954928E+03 0.  0.
          2    1    1    2  501    0  0.44165957148E+02 -0.28468667996E+02 -0.54037586298E+03  0.54292464497E+03  0.00000000000E+00 0. -1.
          1    1    1    2  502    0 -0.86547184620E+02  0.28415284845E+02  0.90853340196E+03  0.91308859704E+03  0.00000000000E+00 0. -1.
         22    1    3    3    0    0 -0.84486213550E+01  0.54204812390E+02  0.26603854811E+03  0.27163587755E+03  0.00000000000E+00 0. -1.
         22    1    3    3    0    0  0.50829848827E+02 -0.54151429239E+02  0.55455686890E+03  0.55950815157E+03  0.00000000000E+00 0. -1.
</event>
<event>
 7    1  0.5950675E-006  0.1629655E+03  0.7818608E-02  0.1223786E+00
          2   -1    0    0  502    0  0.00000000000E+00  0.00000000000E+00  0.13916023590E+04  0.13916023590E+04  0.00000000000E+00 0. -1.
          1   -1    0    0  501    0 -0.00000000000E+00 -0.00000000000E+00 -0.10495993458E+04  0.10495993458E+04  0.00000000000E+00 0. -1.
         25    2    1    2    0    0 -0.15488959845E+02 -0.53996408576E+02  0.73153375301E+03  0.74425884642E+03  0.12499631462E+03 0.  0.
          2    1    1    2  501    0  0.42789195824E+02  0.15821728751E+03 -0.10322880710E+04  0.10452187746E+04  0.00000000000E+00 0. -1.
          1    1    1    2  502    0 -0.27300235979E+02 -0.10422087894E+03  0.64275733119E+03  0.65172408371E+03  0.00000000000E+00 0. -1.
         22    1    3    3    0    0  0.49854286413E+02  0.33590884925E+01  0.25176448449E+03  0.25667506502E+03  0.00000000000E+00 0. -1.
         22    1    3    3    0    0 -0.65343246259E+02 -0.57355497069E+02  0.47976926851E+03  0.48758378140E+03  0.00000000000E+00 0. -1.
</event>
<event>
 7    1  0.5950675E-006  0.5615107E+02  0.7818608E-02  0.1512420E+00
          2   -1    0    0  502    0  0.00000000000E+00  0.00000000000E+00  0.23113597621E+03  0.23113597621E+03  0.00000000000E+00 0. -1.
          1   -1    0    0  501    0 -0.00000000000E+00 -0.00000000000E+00 -0.16787307407E+04  0.16787307407E+04  0.00000000000E+00 0. -1.
         25    2    1    2    0    0  0.17714258424E+02  0.80127547277E+02 -0.34741782711E+03  0.37823043818E+03  0.12499959596E+03 0.  0.
          2    1    1    2  501    0 -0.13056993604E+02 -0.24422347806E+02 -0.13121368950E+04  0.13124291095E+04  0.00000000000E+00 0. -1.
          1    1    1    2  502    0 -0.46572648205E+01 -0.55705199471E+02  0.21195995768E+03  0.21920716919E+03  0.00000000000E+00 0. -1.
         22    1    3    3    0    0 -0.48241768777E+01  0.89512836958E+02 -0.12146342438E+03  0.15096086952E+03  0.00000000000E+00 0.  1.
         22    1    3    3    0    0  0.22538435302E+02 -0.93852896815E+01 -0.22595440273E+03  0.22726956867E+03  0.00000000000E+00 0.  1.
</event>
<event>
 7    1  0.5950675E-006  0.5938939E+02  0.7818608E-02  0.1466341E+00
          2   -1    0    0  502    0  0.00000000000E+00  0.00000000000E+00  0.89146430724E+02  0.89146430724E+02  0.00000000000E+00 0. -1.
          1   -1    0    0  501    0 -0.00000000000E+00 -0.00000000000E+00 -0.29685319681E+03  0.29685319681E+03  0.00000000000E+00 0. -1.
         25    2    1    2    0    0  0.45921761760E+02 -0.77028951867E+02 -0.34274559035E+02  0.15761615185E+03  0.12500335314E+03 0.  0.
          2    1    1    2  501    0 -0.17629466945E+02  0.54595574126E+02 -0.18237457971E+03  0.19118567452E+03  0.00000000000E+00 0. -1.
          1    1    1    2  502    0 -0.28292294815E+02  0.22433377742E+02  0.89423726572E+01  0.37197801166E+02  0.00000000000E+00 0. -1.
         22    1    3    3    0    0  0.54515302702E+02 -0.86673029675E+02  0.17831244651E+02  0.10393308226E+03  0.00000000000E+00 0. -1.
         22    1    3    3    0    0 -0.85935409411E+01  0.96440778076E+01 -0.52105803686E+02  0.53683069589E+02  0.00000000000E+00 0. -1.
</event>
<event>
 7    1  0.5950675E-006  0.3891567E+03  0.7818608E-02  0.1281530E+00
          2   -1    0    0  502    0  0.00000000000E+00  0.00000000000E+00  0.12402179496E+04  0.12402179496E+04  0.00000000000E+00 0. -1.
          1   -1    0    0  501    0 -0.00000000000E+00 -0.00000000000E+00 -0.87644864802E+03  0.87644864802E+03  0.00000000000E+00 0. -1.
         25    2    1    2    0    0 -0.23908754707E+03  0.32755956208E+03  0.16923884378E+03  0.45686963319E+03  0.12501981287E+03 0.  0.
          2    1    1    2  501    0  0.24097394701E+03 -0.30223278979E+03 -0.68145144288E+03  0.78344698057E+03  0.00000000000E+00 0. -1.
          1    1    1    2  502    0 -0.18863999435E+01 -0.25326772290E+02  0.87598190064E+03  0.87634998383E+03  0.00000000000E+00 0. -1.
         22    1    3    3    0    0 -0.36717015077E+02  0.11979382751E+01 -0.11461460800E+01  0.36754426987E+02  0.00000000000E+00 0. -1.
         22    1    3    3    0    0 -0.20237053199E+03  0.32636162381E+03  0.17038498986E+03  0.42011520620E+03  0.00000000000E+00 0. -1.
</event>
<event>
 7    1  0.5950675E-006  0.1143821E+03  0.7818608E-02  0.1259267E+00
          2   -1    0    0  502    0  0.00000000000E+00  0.00000000000E+00  0.53164937683E+03  0.53164937683E+03  0.00000000000E+00 0. -1.
          1   -1    0    0  501    0 -0.00000000000E+00 -0.00000000000E+00 -0.43409883682E+03  0.43409883682E+03  0.00000000000E+00 0. -1.
         25    2    1    2    0    0  0.36951252218E+02 -0.17985957940E+03 -0.14169817105E+03  0.26347037422E+03  0.12499361210E+03 0.  0.
          2    1    1    2  501    0  0.41624651184E+02  0.98733368801E+02 -0.21176957914E+03  0.23733361403E+03  0.00000000000E+00 0. -1.
          1    1    1    2  502    0 -0.78575903402E+02  0.81126210601E+02  0.45101829020E+03  0.46494422541E+03  0.00000000000E+00 0. -1.
         22    1    3    3    0    0  0.14055834192E+02  0.12889965746E+00 -0.64972713628E+02  0.66475834754E+02  0.00000000000E+00 0.  1.
         22    1    3    3    0    0  0.22895418025E+02 -0.17998847906E+03 -0.76725457424E+02  0.19699453946E+03  0.00000000000E+00 0.  1.
</event>
<event>
 7    1  0.5950675E-006  0.1146806E+03  0.7818608E-02  0.1344135E+00
          2   -1    0    0  502    0  0.00000000000E+00  0.00000000000E+00  0.60635177314E+03  0.60635177314E+03  0.00000000000E+00 0. -1.
          1   -1    0    0  501    0 -0.00000000000E+00 -0.00000000000E+00 -0.50459696176E+03  0.50459696176E+03  0.00000000000E+00 0. -1.
         25    2    1    2    0    0 -0.96097582141E+02 -0.60656628325E+02 -0.14885071509E+02  0.16958926181E+03  0.12499992205E+03 0.  0.
          2    1    1    2  501    0 -0.18305712459E+02  0.45385103929E+02 -0.40457214122E+03  0.40752119481E+03  0.00000000000E+00 0. -1.
          1    1    1    2  502    0  0.11440329460E+03  0.15271524396E+02  0.52121202412E+03  0.53383827828E+03  0.00000000000E+00 0. -1.
         22    1    3    3    0    0 -0.12407120551E+02 -0.45494724144E+02 -0.57576981640E+02  0.74423218017E+02  0.00000000000E+00 0. -1.
         22    1    3    3    0    0 -0.83690461591E+02 -0.15161904181E+02  0.42691910132E+02  0.95166043788E+02  0.00000000000E+00 0. -1.
</event>
<event>
 7    1  0.5950675E-006  0.1094892E+03  0.7818608E-02  0.1323794E+00
          2   -1    0    0  502    0  0.00000000000E+00  0.00000000000E+00  0.31270934502E+03  0.31270934502E+03  0.00000000000E+00 0. -1.
          1   -1    0    0  501    0 -0.00000000000E+00 -0.00000000000E+00 -0.21619591058E+04  0.21619591058E+04  0.00000000000E+00 0. -1.
         25    2    1    2    0    0  0.40345434730E+02 -0.54048130344E+02 -0.38828153024E+03  0.41344474368E+03  0.12500021941E+03 0.  0.
          2    1    1    2  501    0 -0.25408028612E+02 -0.55716094854E+02 -0.17503205291E+04  0.17513913913E+04  0.00000000000E+00 0. -1.
          1    1    1    2  502    0 -0.14937406117E+02  0.10976422520E+03  0.28935229855E+03  0.30983231579E+03  0.00000000000E+00 0. -1.
         22    1    3    3    0    0  0.59058682212E+02 -0.62677575094E+01 -0.33204799003E+03  0.33731747719E+03  0.00000000000E+00 0. -1.
         22    1    3    3    0    0 -0.18713247482E+02 -0.47780372835E+02 -0.56233540208E+02  0.76127266495E+02  0.00000000000E+00 0. -1.
</event>
<event>
 7    1  0.5950675E-006  0.9401139E+02  0.7818608E-02  0.1379620E+00
          2   -1    0    0  502    0  0.00000000000E+00  0.00000000000E+00  0.15651238596E+04  0.15651238596E+04  0.00000000000E+00 0. -1.
          1   -1    0    0  501    0 -0.00000000000E+00 -0.00000000000E+00 -0.24652479706E+04  0.24652479706E+04  0.00000000000E+00 0. -1.
         25    2    1    2    0    0 -0.82512859678E+02 -0.15015865261E+02  0.15207454084E+03  0.21398117777E+03  0.12500972061E+03 0.  0.
          2    1    1    2  501    0 -0.81267762900E+01  0.43589027023E+02 -0.24324586213E+04  0.24328627154E+04  0.00000000000E+00 0. -1.
          1    1    1    2  502    0  0.90639635968E+02 -0.28573161762E+02  0.13802599695E+04  0.13835279370E+04  0.00000000000E+00 0. -1.
         22    1    3    3    0    0  0.25290182276E+02  0.23831638081E+02  0.47451208617E+02  0.58814602714E+02  0.00000000000E+00 0. -1.
         22    1    3    3    0    0 -0.10780304195E+03 -0.38847503342E+02  0.10462333222E+03  0.15516657506E+03  0.00000000000E+00 0. -1.
</event>
<event>
 7    1  0.5950675E-006  0.1012053E+03  0.7818608E-02  0.1290034E+00
          2   -1    0    0  502    0  0.00000000000E+00  0.00000000000E+00  0.36135828302E+03  0.36135828302E+03  0.00000000000E+00 0. -1.
          1   -1    0    0  501    0 -0.00000000000E+00 -0.00000000000E+00 -0.58042813300E+03  0.58042813300E+03  0.00000000000E+00 0. -1.
         25    2    1    2    0    0 -0.16298713974E+03 -0.63609725889E+02  0.15215189637E+03  0.26340028796E+03  0.12497402603E+03 0.  0.
          2    1    1    2  501    0  0.72962422353E+02  0.68028091792E+02 -0.50627983293E+03  0.51601415250E+03  0.00000000000E+00 0. -1.
          1    1    1    2  502    0  0.90024717382E+02 -0.44183659030E+01  0.13505808658E+03  0.16237197556E+03  0.00000000000E+00 0. -1.
         22    1    3    3    0    0 -0.13727501651E+03  0.65572326347E+01  0.11840831822E+03  0.18140550510E+03  0.00000000000E+00 0. -1.
         22    1    3    3    0    0 -0.25712123222E+02 -0.70166958524E+02  0.33743578150E+02  0.81994782855E+02  0.00000000000E+00 0. -1.
</event>
<event>
 7    1  0.5950675E-006  0.5483252E+02  0.7818608E-02  0.1504749E+00
          2   -1    0    0  502    0  0.00000000000E+00  0.00000000000E+00  0.27945774797E+03  0.27945774797E+03  0.00000000000E+00 0. -1.
          1   -1    0    0  501    0 -0.00000000000E+00 -0.00000000000E+00 -0.44825649374E+03  0.44825649374E+03  0.00000000000E+00 0. -1.
         25    2    1    2    0    0  0.32032386369E+02 -0.10594490363E+02 -0.82969123771E+02  0.15377581761E+03  0.12499923832E+03 0.  0.
          2    1    1    2  501    0 -0.56036801059E+02 -0.71920100687E+01 -0.32653482059E+03  0.33138623559E+03  0.00000000000E+00 0. -1.
          1    1    1    2  502    0  0.24004414690E+02  0.17786500432E+02  0.24070519859E+03  0.24255218851E+03  0.00000000000E+00 0. -1.
         22    1    3    3    0    0 -0.24492326621E+02  0.43514610373E+02 -0.21937929344E+02  0.54540518178E+02  0.00000000000E+00 0.  1.
         22    1    3    3    0    0  0.56524712990E+02 -0.54109100736E+02 -0.61031194427E+02  0.99235299437E+02  0.00000000000E+00 0.  1.
</event>
<event>
 7    1  0.5950675E-006  0.1094426E+03  0.7818608E-02  0.1335531E+00
          2   -1    0    0  502    0  0.00000000000E+00  0.00000000000E+00  0.20706059931E+04  0.20706059931E+04  0.00000000000E+00 0. -1.
          1   -1    0    0  501    0 -0.00000000000E+00 -0.00000000000E+00 -0.20537727559E+03  0.20537727559E+03  0.00000000000E+00 0. -1.
         25    2    1    2    0    0 -0.15420951718E+02  0.79785780393E+02  0.31999559809E+02  0.15248945287E+03  0.12500193960E+03 0.  0.
          2    1    1    2  501    0 -0.26875400394E+02 -0.11533154160E+03 -0.12051997525E+03  0.16896365310E+03  0.00000000000E+00 0. -1.
          1    1    1    2  502    0  0.42296352112E+02  0.35545761208E+02  0.19537491329E+04  0.19545301627E+04  0.00000000000E+00 0. -1.
         22    1    3    3    0    0  0.15678356881E+02  0.44270145662E+02  0.75093749889E+02  0.88570468802E+02  0.00000000000E+00 0.  1.
         22    1    3    3    0    0 -0.31099308599E+02  0.35515634731E+02 -0.43094190080E+02  0.63918984068E+02  0.00000000000E+00 0.  1.
</event>
<event>
 7    1  0.5950675E-006  0.7359932E+02  0.7818608E-02  0.1352464E+00
          2   -1    0    0  502    0  0.00000000000E+00  0.00000000000E+00  0.10479932764E+04  0.10479932764E+04  0.00000000000E+00 0. -1.
          1   -1    0    0  501    0 -0.00000000000E+00 -0.00000000000E+00 -0.19809161092E+03  0.19809161092E+03  0.00000000000E+00 0. -1.
         25    2    1    2    0    0  0.28941566955E+02 -0.71924919518E+02  0.25021406617E+03  0.29024278680E+03  0.12499195189E+03 0.  0.
          2    1    1    2  501    0  0.41357363905E+02  0.61899590654E+02 -0.16858738708E+03  0.18429242512E+03  0.00000000000E+00 0. -1.
          1    1    1    2  502    0 -0.70298930860E+02  0.10025328864E+02  0.76827498639E+03  0.77154967540E+03  0.00000000000E+00 0. -1.
         22    1    3    3    0    0 -0.11647573404E+02  0.30703332004E+02  0.32757117903E+02  0.46383071650E+02  0.00000000000E+00 0. -1.
         22    1    3    3    0    0  0.40589140359E+02 -0.10262825152E+03  0.21745694826E+03  0.24385971515E+03  0.00000000000E+00 0. -1.
</event>
<event>
 7    1  0.5950675E-006  0.6584998E+02  0.7818608E-02  0.1400533E+00
          2   -1    0    0  502    0  0.00000000000E+00  0.00000000000E+00  0.69241444086E+03  0.69241444086E+03  0.00000000000E+00 0. -1.
          1   -1    0    0  501    0 -0.00000000000E+00 -0.00000000000E+00 -0.16081321848E+04  0.16081321848E+04  0.00000000000E+00 0. -1.
         25    2    1    2    0    0 -0.19099729581E+02 -0.15107532100E+02 -0.60758395364E+02  0.14110160624E+03  0.12500017392E+03 0.  0.
          2    1    1    2  501    0  0.14754135583E+02 -0.51437094216E+02 -0.15050209090E+04  0.15059719107E+04  0.00000000000E+00 0. -1.
          1    1    1    2  502    0  0.43455939979E+01  0.66544626316E+02  0.65006156045E+03  0.65347310874E+03  0.00000000000E+00 0. -1.
         22    1    3    3    0    0 -0.43745629144E+02 -0.54717842526E+02 -0.63249358044E+02  0.94383280579E+02  0.00000000000E+00 0. -1.
         22    1    3    3    0    0  0.24645899563E+02  0.39610310426E+02  0.24909626803E+01  0.46718325659E+02  0.00000000000E+00 0. -1.
</event>
<event>
 7    1  0.5950675E-006  0.6598500E+02  0.7818608E-02  0.1413192E+00
          2   -1    0    0  502    0  0.00000000000E+00  0.00000000000E+00  0.29476905150E+03  0.29476905150E+03  0.00000000000E+00 0. -1.
          1   -1    0    0  501    0 -0.00000000000E+00 -0.00000000000E+00 -0.40641964946E+03  0.40641964946E+03  0.00000000000E+00 0. -1.
         25    2    1    2    0    0 -0.44632448247E+02 -0.49457549475E+02  0.11509911551E+02  0.14210568691E+03  0.12499377405E+03 0.  0.
          2    1    1    2  501    0 -0.55442814377E+00  0.66678495977E+02 -0.33511374485E+03  0.34168340786E+03  0.00000000000E+00 0. -1.
          1    1    1    2  502    0  0.45186876391E+02 -0.17220946501E+02  0.21195323535E+03  0.21739960619E+03  0.00000000000E+00 0. -1.
         22    1    3    3    0    0  0.21764733536E+02  0.87097438952E+01  0.42512158768E+02  0.48547367671E+02  0.00000000000E+00 0.  1.
         22    1    3    3    0    0 -0.66397181783E+02 -0.58167293370E+02 -0.31002247217E+02  0.93558319241E+02  0.00000000000E+00 0.  1.
</event>
<event>
 7    1  0.5950675E-006  0.2564676E+02  0.7818608E-02  0.1666655E+00
          2   -1    0    0  502    0  0.00000000000E+00  0.00000000000E+00  0.25252440672E+03  0.25252440672E+03  0.00000000000E+00 0. -1.
          1   -1    0    0  501    0 -0.00000000000E+00 -0.00000000000E+00 -0.36992351156E+03  0.36992351156E+03  0.00000000000E+00 0. -1.
         25    2    1    2    0    0 -0.16888947717E+02  0.33770258124E+02 -0.11529052766E+03  0.17419327954E+03  0.12500290389E+03 0.  0.
          2    1    1    2  501    0  0.23060993541E+02 -0.10974252210E+02 -0.22382833573E+03  0.22528064166E+03  0.00000000000E+00 0. -1.
          1    1    1    2  502    0 -0.61720458232E+01 -0.22796005914E+02  0.22171975855E+03  0.22297399707E+03  0.00000000000E+00 0. -1.
         22    1    3    3    0    0 -0.66823263028E+02  0.25015263367E+02 -0.96746085907E+02  0.12021196705E+03  0.00000000000E+00 0.  1.
         22    1    3    3    0    0  0.49934315311E+02  0.87549947574E+01 -0.18544441755E+02  0.53981312496E+02  0.00000000000E+00 0.  1.
</event>
<event>
 7    1  0.5950675E-006  0.3670448E+02  0.7818608E-02  0.1567773E+00
          2   -1    0    0  502    0  0.00000000000E+00  0.00000000000E+00  0.13188975355E+04  0.13188975355E+04  0.00000000000E+00 0. -1.
          1   -1    0    0  501    0 -0.00000000000E+00 -0.00000000000E+00 -0.97591960374E+03  0.97591960374E+03  0.00000000000E+00 0. -1.
         25    2    1    2    0    0 -0.50547146539E+02  0.35399995049E+02 -0.23438942372E+02  0.14133435100E+03  0.12497136104E+03 0.  0.
          2    1    1    2  501    0  0.15347421698E+02 -0.25248378083E+02 -0.89302227523E+03  0.89351094454E+03  0.00000000000E+00 0. -1.
          1    1    1    2  502    0  0.35199724842E+02 -0.10151616966E+02  0.12594391493E+04  0.12599718437E+04  0.00000000000E+00 0. -1.
         22    1    3    3    0    0 -0.12113647544E+02 -0.45057168313E+02 -0.23338653367E+02  0.52168780071E+02  0.00000000000E+00 0.  1.
         22    1    3    3    0    0 -0.38433498995E+02  0.80457163361E+02 -0.10028900505E+00  0.89165570929E+02  0.00000000000E+00 0.  1.
</event>
<event>
 7    1  0.5950675E-006  0.7823133E+02  0.7818608E-02  0.1380452E+00
          2   -1    0    0  502    0  0.00000000000E+00  0.00000000000E+00  0.94458112271E+03  0.94458112271E+03  0.00000000000E+00 0. -1.
          1   -1    0    0  501    0 -0.00000000000E+00 -0.00000000000E+00 -0.19642634442E+03  0.19642634442E+03  0.00000000000E+00 0. -1.
         25    2    1    2    0    0  0.89850230484E+02  0.41236018878E+02  0.63118625725E+03  0.65099516575E+03  0.12500056530E+03 0.  0.
          2    1    1    2  501    0 -0.42772664402E+02 -0.65415223025E+02 -0.17585675941E+03  0.19244285399E+03  0.00000000000E+00 0. -1.
          1    1    1    2  502    0 -0.47077566083E+02  0.24179204147E+02  0.29282528046E+03  0.29756944738E+03  0.00000000000E+00 0. -1.
         22    1    3    3    0    0  0.51679608119E+02  0.72253520702E+02  0.54122285229E+03  0.54846470168E+03  0.00000000000E+00 0.  1.
         22    1    3    3    0    0  0.38170622365E+02 -0.31017501824E+02  0.89963404958E+02  0.10253046407E+03  0.00000000000E+00 0.  1.
</event>
<event>
 7    1  0.5950675E-006  0.3121444E+02  0.7818608E-02  0.1637777E+00
          2   -1    0    0  502    0  0.00000000000E+00  0.00000000000E+00  0.85934591233E+02  0.85934591233E+02  0.00000000000E+00 0. -1.
          1   -1    0    0  501    0 -0.00000000000E+00 -0.00000000000E+00 -0.40237992799E+03  0.40237992799E+03  0.00000000000E+00 0. -1.
         25    2    1    2    0    0 -0.31303989185E+01  0.42025802913E+02 -0.20719690298E+03  0.24562449473E+03  0.12499947319E+03 0.  0.
          2    1    1    2  501    0  0.18224000508E+02 -0.24895790724E+02 -0.17260734358E+03  0.17534311976E+03  0.00000000000E+00 0. -1.
          1    1    1    2  502    0 -0.15093601589E+02 -0.17130012189E+02  0.63358909800E+02  0.67346904736E+02  0.00000000000E+00 0. -1.
         22    1    3    3    0    0 -0.26975706435E+02 -0.31002757225E+02 -0.13150699910E+03  0.13777862863E+03  0.00000000000E+00 0.  1.
         22    1    3    3    0    0  0.23845307516E+02  0.73028560138E+02 -0.75689903878E+02  0.10784586610E+03  0.00000000000E+00 0.  1.
</event>
<event>
 7    1  0.5950675E-006  0.5844105E+02  0.7818608E-02  0.1428391E+00
          2   -1    0    0  502    0  0.00000000000E+00  0.00000000000E+00  0.34018574636E+03  0.34018574636E+03  0.00000000000E+00 0. -1.
          1   -1    0    0  501    0 -0.00000000000E+00 -0.00000000000E+00 -0.89101078929E+03  0.89101078929E+03  0.00000000000E+00 0. -1.
         25    2    1    2    0    0 -0.78341627909E+02  0.35369204452E+01  0.62088490045E+02  0.16009682481E+03  0.12500436892E+03 0.  0.
          2    1    1    2  501    0  0.44239502163E+02 -0.38139269919E+02 -0.83840337157E+03  0.84043557214E+03  0.00000000000E+00 0. -1.
          1    1    1    2  502    0  0.34102125746E+02  0.34602349474E+02  0.22548983860E+03  0.23066413870E+03  0.00000000000E+00 0. -1.
         22    1    3    3    0    0  0.97633232638E+01  0.34366589670E+02  0.56166188260E+02  0.66565949782E+02  0.00000000000E+00 0.  1.
         22    1    3    3    0    0 -0.88104951172E+02 -0.30829669225E+02  0.59223017843E+01  0.93530875031E+02  0.00000000000E+00 0.  1.
</event>
<event>
 7    1  0.5950675E-006  0.1414590E+03  0.7818608E-02  0.1287849E+00
          2   -1    0    0  502    0  0.00000000000E+00  0.00000000000E+00  0.44650186251E+03  0.44650186251E+03  0.00000000000E+00 0. -1.
          1   -1    0    0  501    0 -0.00000000000E+00 -0.00000000000E+00 -0.73650673615E+03  0.73650673615E+03  0.00000000000E+00 0. -1.
         25    2    1    2    0    0 -0.15150025900E+02  0.19105564779E+03 -0.44090432110E+02  0.23302516265E+03  0.12499990554E+03 0.  0.
          2    1    1    2  501    0  0.35338929695E+02 -0.55528522556E+02 -0.58269221071E+03  0.58639787618E+03  0.00000000000E+00 0. -1.
          1    1    1    2  502    0 -0.20188903795E+02 -0.13552712523E+03  0.33677776917E+03  0.36358555984E+03  0.00000000000E+00 0. -1.
         22    1    3    3    0    0  0.13093360246E+01  0.69408793605E+02  0.43769499135E+02  0.82067435960E+02  0.00000000000E+00 0. -1.
         22    1    3    3    0    0 -0.16459361924E+02  0.12164685419E+03 -0.87859931245E+02  0.15095772669E+03  0.00000000000E+00 0. -1.
</event>
<event>
 7    1  0.5950675E-006  0.1149150E+03  0.7818608E-02  0.1386948E+00
          2   -1    0    0  502    0  0.00000000000E+00  0.00000000000E+00  0.32943869793E+04  0.32943869793E+04  0.00000000000E+00 0. -1.
          1   -1    0    0  501    0 -0.00000000000E+00 -0.00000000000E+00 -0.24952689197E+02  0.24952689197E+02  0.00000000000E+00 0. -1.
         25    2    1    2    0    0 -0.10881577347E+03 -0.11212228783E+02  0.45423141338E+03  0.48365007525E+03  0.12499852701E+03 0.  0.
          2    1    1    2  501    0  0.23208856781E+01 -0.34101231622E+02  0.23248104166E+02  0.41337088139E+02  0.00000000000E+00 0. -1.
          1    1    1    2  502    0  0.10649488779E+03  0.45313460405E+02  0.27919547726E+04  0.27943525051E+04  0.00000000000E+00 0. -1.
         22    1    3    3    0    0 -0.49373688230E+02 -0.79080977008E+01  0.37027859112E+02  0.62220265582E+02  0.00000000000E+00 0.  1.
         22    1    3    3    0    0 -0.59442085237E+02 -0.33041310819E+01  0.41720355427E+03  0.42142980966E+03  0.00000000000E+00 0.  1.
</event>
<event>
 7    1  0.5950675E-006  0.1832570E+03  0.7818608E-02  0.1251264E+00
          2   -1    0    0  502    0  0.00000000000E+00  0.00000000000E+00  0.14218405449E+04  0.14218405449E+04  0.00000000000E+00 0. -1.
          1   -1    0    0  501    0 -0.00000000000E+00 -0.00000000000E+00 -0.50539538142E+03  0.50539538142E+03  0.00000000000E+00 0. -1.
         25    2    1    2    0    0 -0.16161430926E+03 -0.15399360548E+03  0.20528311035E+03  0.32802418778E+03  0.12500198755E+03 0.  0.
          2    1    1    2  501    0  0.89306489996E+02  0.15754215702E+03 -0.42435935322E+03  0.46138491638E+03  0.00000000000E+00 0. -1.
          1    1    1    2  502    0  0.72307819261E+02 -0.35485515384E+01  0.11355214064E+04  0.11378268222E+04  0.00000000000E+00 0. -1.
         22    1    3    3    0    0 -0.24438480915E+02 -0.86834498906E+02  0.12869988453E+03  0.15716593087E+03  0.00000000000E+00 0.  1.
         22    1    3    3    0    0 -0.13717582834E+03 -0.67159106573E+02  0.76583225817E+02  0.17085825691E+03  0.00000000000E+00 0.  1.
</event>
<event>
 7    1  0.5950675E-006  0.8973527E+02  0.7818608E-02  0.1472939E+00
          2   -1    0    0  502    0  0.00000000000E+00  0.00000000000E+00  0.30756307788E+04  0.30756307788E+04  0.00000000000E+00 0. -1.
          1   -1    0    0  501    0 -0.00000000000E+00 -0.00000000000E+00 -0.16394265058E+03  0.16394265058E+03  0.00000000000E+00 0. -1.
         25    2    1    2    0    0 -0.81191301487E+02  0.77320643510E+02  0.18281621180E+04  0.18358573064E+04  0.12499924219E+03 0.  0.
          2    1    1    2  501    0  0.62729285560E+02 -0.63953585341E+02 -0.14744963555E+03  0.17252947391E+03  0.00000000000E+00 0. -1.
          1    1    1    2  502    0  0.18462015927E+02 -0.13367058169E+02  0.12309756458E+04  0.12311866491E+04  0.00000000000E+00 0. -1.
         22    1    3    3    0    0 -0.38961569558E+02 -0.14130187834E+02  0.10977518835E+04  0.10985339612E+04  0.00000000000E+00 0.  1.
         22    1    3    3    0    0 -0.42229731930E+02  0.91450831344E+02  0.73041023446E+03  0.73732334523E+03  0.00000000000E+00 0.  1.
</event>
<event>
 7    1  0.5950675E-006  0.8106661E+02  0.7818608E-02  0.1492718E+00
          2   -1    0    0  502    0  0.00000000000E+00  0.00000000000E+00  0.76092506662E+03  0.76092506662E+03  0.00000000000E+00 0. -1.
          1   -1    0    0  501    0 -0.00000000000E+00 -0.00000000000E+00 -0.26912395284E+02  0.26912395284E+02  0.00000000000E+00 0. -1.
         25    2    1    2    0    0 -0.82907374336E+02 -0.35447534665E+02  0.58939583605E+03  0.60921444492E+03  0.12499851161E+03 0.  0.
          2    1    1    2  501    0  0.78103989248E+02  0.14026947183E+02  0.12981076242E+03  0.15214408442E+03  0.00000000000E+00 0. -1.
          1    1    1    2  502    0  0.48033850877E+01  0.21420587482E+02  0.14806072869E+02  0.26478932573E+02  0.00000000000E+00 0. -1.
         22    1    3    3    0    0 -0.78031649515E+02  0.33551201036E+02  0.32045568943E+03  0.33152144773E+03  0.00000000000E+00 0. -1.
         22    1    3    3    0    0 -0.48757248212E+01 -0.68998735701E+02  0.26894014662E+03  0.27769299719E+03  0.00000000000E+00 0. -1.
</event>
<event>
 7    1  0.5950675E-006  0.8848250E+02  0.7818608E-02  0.1434668E+00
          2   -1    0    0  502    0  0.00000000000E+00  0.00000000000E+00  0.39673813482E+02  0.39673813482E+02  0.00000000000E+00 0. -1.
          1   -1    0    0  501    0 -0.00000000000E+00 -0.00000000000E+00 -0.55544573311E+03  0.55544573311E+03  0.00000000000E+00 0. -1.
         25    2    1    2    0    0 -0.74463545138E+02 -0.75573912697E+02 -0.32426478776E+03  0.36335782847E+03  0.12500009237E+03 0.  0.
          2    1    1    2  501    0  0.36070289793E+01  0.30386741582E+02 -0.11188413353E+03  0.11599320695E+03  0.00000000000E+00 0. -1.
          1    1    1    2  502    0  0.70856516158E+02  0.45187171115E+02 -0.79622998333E+02  0.11576851117E+03  0.00000000000E+00 0. -1.
         22    1    3    3    0    0  0.15314335827E+02 -0.68646969213E+02 -0.10560299392E+03  0.12688154945E+03  0.00000000000E+00 0.  1.
         22    1    3    3    0    0 -0.89777880965E+02 -0.69269434832E+01 -0.21866179383E+03  0.23647627902E+03  0.00000000000E+00 0.  1.
</event>
<event>
 7    1  0.5950675E-006  0.1142141E+03  0.7818608E-02  0.1256401E+00
          2   -1    0    0  502    0  0.00000000000E+00  0.00000000000E+00  0.13889142162E+04  0.13889142162E+04  0.00000000000E+00 0. -1.
          1   -1    0    0  501    0 -0.00000000000E+00 -0.00000000000E+00 -0.37052221657E+03  0.37052221657E+03  0.00000000000E+00 0. -1.
         25    2    1    2    0    0 -0.71887114494E+02  0.80169117954E+01 -0.47531112583E+02  0.15204310516E+03  0.12500348418E+03 0.  0.
          2    1    1    2  501    0  0.38436915731E+02  0.10347460862E+03 -0.25682077821E+03  0.27953765979E+03  0.00000000000E+00 0. -1.
          1    1    1    2  502    0  0.33450198763E+02 -0.11149152042E+03  0.13227438904E+04  0.13278556678E+04  0.00000000000E+00 0. -1.
         22    1    3    3    0    0 -0.66087777331E+02  0.99189814272E+01 -0.88345933424E+02  0.11077447566E+03  0.00000000000E+00 0. -1.
         22    1    3    3    0    0 -0.57993371635E+01 -0.19020696318E+01  0.40814820842E+02  0.41268629499E+02  0.00000000000E+00 0. -1.
</event>
<event>
 7    1  0.5950675E-006  0.4743025E+02  0.7818608E-02  0.1584204E+00
          2   -1    0    0  502    0  0.00000000000E+00  0.00000000000E+00  0.58395029364E+03  0.58395029364E+03  0.00000000000E+00 0. -1.
          1   -1    0    0  501    0 -0.00000000000E+00 -0.00000000000E+00 -0.85315687298E+03  0.85315687298E+03  0.00000000000E+00 0. -1.
         25    2    1    2    0    0 -0.13851305307E+02  0.24491400091E+02  0.23650704025E+02  0.13028995506E+03  0.12499771699E+03 0.  0.
          2    1    1    2  501    0 -0.24119794771E+01  0.20506959290E+02 -0.79857458556E+03  0.79884148723E+03  0.00000000000E+00 0. -1.
          1    1    1    2  502    0  0.16263284784E+02 -0.44998359382E+02  0.50571730219E+03  0.50797572433E+03  0.00000000000E+00 0. -1.
         22    1    3    3    0    0 -0.12775327877E+02 -0.41255951212E+02 -0.23695519899E+02  0.49261954652E+02  0.00000000000E+00 0.  1.
         22    1    3    3    0    0 -0.10759774295E+01  0.65747351303E+02  0.47346223924E+02  0.81028000412E+02  0.00000000000E+00 0.  1.
</event>
<event>
 7    1  0.5950675E-006  0.1675981E+03  0.7818608E-02  0.1265657E+00
          2   -1    0    0  502    0  0.00000000000E+00  0.00000000000E+00  0.22704557647E+04  0.22704557647E+04  0.00000000000E+00 0. -1.
          1   -1    0    0  501    0 -0.00000000000E+00 -0.00000000000E+00 -0.50347242077E+03  0.50347242077E+03  0.00000000000E+00 0. -1.
         25    2    1    2    0    0  0.62260193172E+02  0.21336213415E+03  0.55293482623E+03  0.60890409489E+03  0.12501017066E+03 0.  0.
          2    1    1    2  501    0 -0.42273968686E+02 -0.54144957475E+02 -0.46917090216E+03  0.47417306997E+03  0.00000000000E+00 0. -1.
          1    1    1    2  502    0 -0.19986224486E+02 -0.15921717668E+03  0.16832194198E+04  0.16908510206E+04  0.00000000000E+00 0. -1.
         22    1    3    3    0    0  0.69222733451E+02  0.19423798365E+03  0.35980207253E+03  0.41470195625E+03  0.00000000000E+00 0. -1.
         22    1    3    3    0    0 -0.69625402792E+01  0.19124150499E+02  0.19313275371E+03  0.19420213864E+03  0.00000000000E+00 0. -1.
</event>
<event>
 7    1  0.5950675E-006  0.9033883E+02  0.7818608E-02  0.1338469E+00
          2   -1    0    0  502    0  0.00000000000E+00  0.00000000000E+00  0.10542939765E+03  0.10542939765E+03  0.00000000000E+00 0. -1.
          1   -1    0    0  501    0 -0.00000000000E+00 -0.00000000000E+00 -0.16670553214E+04  0.16670553214E+04  0.00000000000E+00 0. -1.
         25    2    1    2    0    0 -0.13238306821E+03 -0.28615168671E+02 -0.17105284222E+03  0.25144557183E+03  0.12498678384E+03 0.  0.
          2    1    1    2  501    0  0.48312667916E+02  0.43846725963E+02 -0.14267612641E+04  0.14282522025E+04  0.00000000000E+00 0. -1.
          1    1    1    2  502    0  0.84070400292E+02 -0.15231557291E+02  0.36188182602E+02  0.92786944678E+02  0.00000000000E+00 0. -1.
         22    1    3    3    0    0 -0.14424174732E+03 -0.52919509644E+02 -0.16112583183E+03  0.22263802428E+03  0.00000000000E+00 0. -1.
         22    1    3    3    0    0  0.11858679118E+02  0.24304340973E+02 -0.99270103890E+01  0.28807547549E+02  0.00000000000E+00 0. -1.
</event>
<event>
 7    1  0.5950675E-006  0.3337003E+02  0.7818608E-02  0.1641203E+00
          2   -1    0    0  502    0  0.00000000000E+00  0.00000000000E+00  0.49037893988E+03  0.49037893988E+03  0.00000000000E+00 0. -1.
          1   -1    0    0  501    0 -0.00000000000E+00 -0.00000000000E+00 -0.12000958119E+04  0.12000958119E+04  0.00000000000E+00 0. -1.
         25    2    1    2    0    0  0.22264969363E+02  0.46491346934E+02  0.48596882525E+02  0.14367660918E+03  0.12499654729E+03 0.  0.
          2    1    1    2  501    0 -0.65192717712E+01 -0.32684630133E+02 -0.11520366822E+04  0.11525186780E+04  0.00000000000E+00 0. -1.
          1    1    1    2  502    0 -0.15745697592E+02 -0.13806716801E+02  0.39372292768E+03  0.39427946460E+03  0.00000000000E+00 0. -1.
         22    1    3    3    0    0 -0.10530516907E+02 -0.16655733374E+02 -0.31112403381E+02  0.36827800432E+02  0.00000000000E+00 0.  1.
         22    1    3    3    0    0  0.32795486270E+02  0.63147080308E+02  0.79709285906E+02  0.10684880875E+03  0.00000000000E+00 0.  1.
</event>
<event>
 7    1  0.5950675E-006  0.4637515E+02  0.7818608E-02  0.1590184E+00
          2   -1    0    0  502    0  0.00000000000E+00  0.00000000000E+00  0.20146898967E+03  0.20146898967E+03  0.00000000000E+00 0. -1.
          1   -1    0    0  501    0 -0.00000000000E+00 -0.00000000000E+00 -0.25685201481E+03  0.25685201481E+03  0.00000000000E+00 0. -1.
         25    2    1    2    0    0 -0.41171958792E+02 -0.84776170847E+01 -0.18087506818E+02  0.13311373336E+03  0.12500043169E+03 0.  0.
          2    1    1    2  501    0  0.40075456504E+01 -0.19961268017E+02 -0.17684867417E+03  0.17801675819E+03  0.00000000000E+00 0. -1.
          1    1    1    2  502    0  0.37164413141E+02  0.28438885101E+02  0.13955315585E+03  0.14719051293E+03  0.00000000000E+00 0. -1.
         22    1    3    3    0    0 -0.55396431286E+01 -0.26533456058E+02 -0.65636048280E+02  0.71012694430E+02  0.00000000000E+00 0.  1.
         22    1    3    3    0    0 -0.35632315663E+02  0.18055838973E+02  0.47548541462E+02  0.62101038927E+02  0.00000000000E+00 0.  1.
</event>
<event>
 7    1  0.5950675E-006  0.6759063E+02  0.7818608E-02  0.1396925E+00
          2   -1    0    0  502    0  0.00000000000E+00  0.00000000000E+00  0.36664276993E+02  0.36664276993E+02  0.00000000000E+00 0. -1.
          1   -1    0    0  501    0 -0.00000000000E+00 -0.00000000000E+00 -0.34854293745E+04  0.34854293745E+04  0.00000000000E+00 0. -1.
         25    2    1    2    0    0  0.10910943483E+01  0.31019943831E+02 -0.25069768215E+03  0.28184796178E+03  0.12500207327E+03 0.  0.
          2    1    1    2  501    0  0.39137847111E+02  0.36691029901E+02 -0.31445864363E+04  0.31450440153E+04  0.00000000000E+00 0. -1.
          1    1    1    2  502    0 -0.40228941459E+02 -0.67710973732E+02 -0.53480979086E+02  0.95201674453E+02  0.00000000000E+00 0. -1.
         22    1    3    3    0    0  0.52240174948E+02  0.31080244123E+02 -0.63984544439E+02  0.88255534559E+02  0.00000000000E+00 0. -1.
         22    1    3    3    0    0 -0.51149080599E+02 -0.60300292651E-01 -0.18671313771E+03  0.19359242722E+03  0.00000000000E+00 0. -1.
</event>
<event>
 7    1  0.5950675E-006  0.1203804E+03  0.7818608E-02  0.1260081E+00
          2   -1    0    0  502    0  0.00000000000E+00  0.00000000000E+00  0.36754936587E+03  0.36754936587E+03  0.00000000000E+00 0. -1.
          1   -1    0    0  501    0 -0.00000000000E+00 -0.00000000000E+00 -0.13323618264E+03  0.13323618264E+03  0.00000000000E+00 0. -1.
         25    2    1    2    0    0  0.51022649401E+02 -0.14700151174E+03  0.54757860226E+02  0.20696938106E+03  0.12500058494E+03 0.  0.
          2    1    1    2  501    0  0.40621735574E+02  0.10455162562E+03  0.35051172095E+02  0.11751490325E+03  0.00000000000E+00 0. -1.
          1    1    1    2  502    0 -0.91644384975E+02  0.42449886123E+02  0.14450415091E+03  0.17630126420E+03  0.00000000000E+00 0. -1.
         22    1    3    3    0    0  0.50288821665E+02 -0.80237145561E+02 -0.29759749472E+02  0.99260303248E+02  0.00000000000E+00 0.  1.
         22    1    3    3    0    0  0.73382773546E+00 -0.66764366181E+02  0.84517609697E+02  0.10770907781E+03  0.00000000000E+00 0.  1.
</event>
<event>
 7    1  0.5950675E-006  0.1829001E+03  0.7818608E-02  0.1198232E+00
          2   -1    0    0  502    0  0.00000000000E+00  0.00000000000E+00  0.35979515785E+04  0.35979515785E+04  0.00000000000E+00 0. -1.
          1   -1    0    0  501    0 -0.00000000000E+00 -0.00000000000E+00 -0.48174991693E+03  0.48174991693E+03  0.00000000000E+00 0. -1.
         25    2    1    2    0    0 -0.84959756337E+02 -0.32023118329E+02  0.44355474621E+03  0.46967988163E+03  0.12495894530E+03 0.  0.
          2    1    1    2  501    0 -0.75975195327E+02 -0.10058195431E+03 -0.45667881086E+03  0.47375573466E+03  0.00000000000E+00 0. -1.
          1    1    1    2  502    0  0.16093495166E+03  0.13260507264E+03  0.31293257262E+04  0.31362658792E+04  0.00000000000E+00 0. -1.
         22    1    3    3    0    0 -0.85705094421E+02 -0.47440658182E+02  0.44355601408E+03  0.45424433610E+03  0.00000000000E+00 0.  1.
         22    1    3    3    0    0  0.74533808400E+00  0.15417539854E+02 -0.12678625515E-02  0.15435545524E+02  0.00000000000E+00 0.  1.
</event>
<event>
 7    1  0.5950675E-006  0.7783055E+02  0.7818608E-02  0.1389323E+00
          2   -1    0    0  502    0  0.00000000000E+00  0.00000000000E+00  0.51187984137E+03  0.51187984137E+03  0.00000000000E+00 0. -1.
          1   -1    0    0  501    0 -0.00000000000E+00 -0.00000000000E+00 -0.26905789652E+04  0.26905789652E+04  0.00000000000E+00 0. -1.
         25    2    1    2    0    0  0.39689637011E+02  0.93265161326E+00 -0.80568950771E+03  0.81629541724E+03  0.12500595286E+03 0.  0.
          2    1    1    2  501    0 -0.79605783793E+02 -0.30222424653E+02 -0.18774095177E+04  0.18793395045E+04  0.00000000000E+00 0. -1.
          1    1    1    2  502    0  0.39916146782E+02  0.29289773040E+02  0.50439990159E+03  0.50682388489E+03  0.00000000000E+00 0. -1.
         22    1    3    3    0    0  0.77225301716E+02 -0.86603733154E+01 -0.68841892376E+03  0.69279099582E+03  0.00000000000E+00 0. -1.
         22    1    3    3    0    0 -0.37535664705E+02  0.95930249287E+01 -0.11727058395E+03  0.12350442142E+03  0.00000000000E+00 0. -1.
</event>
<event>
 7    1  0.5950675E-006  0.8734512E+02  0.7818608E-02  0.1387480E+00
          2   -1    0    0  502    0  0.00000000000E+00  0.00000000000E+00  0.51363755204E+03  0.51363755204E+03  0.00000000000E+00 0. -1.
          1   -1    0    0  501    0 -0.00000000000E+00 -0.00000000000E+00 -0.54729053861E+02  0.54729053861E+02  0.00000000000E+00 0. -1.
         25    2    1    2    0    0 -0.10912108796E+03 -0.49516694099E+02  0.22803947347E+03  0.28633358453E+03  0.12500242134E+03 0.  0.
          2    1    1    2  501    0  0.76979669054E+02  0.18342399665E+02  0.45394726234E+02  0.91230445812E+02  0.00000000000E+00 0. -1.
          1    1    1    2  502    0  0.32141418903E+02  0.31174294434E+02  0.18547429848E+03  0.19080257556E+03  0.00000000000E+00 0. -1.
         22    1    3    3    0    0 -0.50845404037E+02  0.23979646235E+02  0.22776088732E+02  0.60654997842E+02  0.00000000000E+00 0. -1.
         22    1    3    3    0    0 -0.58275683920E+02 -0.73496340334E+02  0.20526338473E+03  0.22567858669E+03  0.00000000000E+00 0. -1.
</event>
<event>
 7    1  0.5950675E-006  0.1271498E+03  0.7818608E-02  0.1375625E+00
          2   -1    0    0  502    0  0.00000000000E+00  0.00000000000E+00  0.22427053592E+03  0.22427053592E+03  0.00000000000E+00 0. -1.
          1   -1    0    0  501    0 -0.00000000000E+00 -0.00000000000E+00 -0.19548672412E+03  0.19548672412E+03  0.00000000000E+00 0. -1.
         25    2    1    2    0    0  0.11431290107E+03  0.48544151405E+02  0.73954845068E+02  0.19109411658E+03  0.12499467307E+03 0.  0.
          2    1    1    2  501    0 -0.12751882581E+03 -0.17350800930E+02 -0.10084185186E+03  0.16349672876E+03  0.00000000000E+00 0. -1.
          1    1    1    2  502    0  0.13205924735E+02 -0.31193350475E+02  0.55670818590E+02  0.65166414697E+02  0.00000000000E+00 0. -1.
         22    1    3    3    0    0  0.78979126192E+02  0.91309234991E+02  0.51139266257E+02  0.13111179704E+03  0.00000000000E+00 0. -1.
         22    1    3    3    0    0  0.35333774880E+02 -0.42765083586E+02  0.22815578811E+02  0.59982319544E+02  0.00000000000E+00 0. -1.
</event>
<event>
 7    1  0.5950675E-006  0.1450146E+03  0.7818608E-02  0.1250648E+00
          2   -1    0    0  502    0  0.00000000000E+00  0.00000000000E+00  0.10401394236E+04  0.10401394236E+04  0.00000000000E+00 0. -1.
          1   -1    0    0  501    0 -0.00000000000E+00 -0.00000000000E+00 -0.12685905140E+04  0.12685905140E+04  0.00000000000E+00 0. -1.
         25    2    1    2    0    0 -0.44083393024E+02  0.14115797489E+03  0.15702412038E+03  0.24929957358E+03  0.12499913435E+03 0.  0.
          2    1    1    2  501    0 -0.47892009400E+02 -0.13745886097E+03 -0.12155664613E+04  0.12242509567E+04  0.00000000000E+00 0. -1.
          1    1    1    2  502    0  0.91975402424E+02 -0.36991139252E+01  0.83009125054E+03  0.83517940727E+03  0.00000000000E+00 0. -1.
         22    1    3    3    0    0 -0.34599621279E+02  0.13617714893E+03  0.61833455897E+02  0.15350806477E+03  0.00000000000E+00 0. -1.
         22    1    3    3    0    0 -0.94837717457E+01  0.49808259642E+01  0.95190664485E+02  0.95791508803E+02  0.00000000000E+00 0. -1.
</event>
<event>
 7    1  0.5950675E-006  0.1073464E+03  0.7818608E-02  0.1446932E+00
          2   -1    0    0  502    0  0.00000000000E+00  0.00000000000E+00  0.98692558091E+03  0.98692558091E+03  0.00000000000E+00 0. -1.
          1   -1    0    0  501    0 -0.00000000000E+00 -0.00000000000E+00 -0.28162452525E+03  0.28162452525E+03  0.00000000000E+00 0. -1.
         25    2    1    2    0    0 -0.11261995340E+03 -0.31956439450E+02  0.18306279181E+02  0.17223459219E+03  0.12500066785E+03 0.  0.
          2    1    1    2  501    0  0.16807828734E+02 -0.15724210739E+02 -0.20078928523E+03  0.20210415872E+03  0.00000000000E+00 0. -1.
          1    1    1    2  502    0  0.95812124666E+02  0.47680650189E+02  0.88778406171E+03  0.89421135525E+03  0.00000000000E+00 0. -1.
         22    1    3    3    0    0 -0.11191007391E+03  0.38472376822E+01  0.51640666991E+02  0.12331027681E+03  0.00000000000E+00 0. -1.
         22    1    3    3    0    0 -0.70987949491E+00 -0.35803677132E+02 -0.33334387809E+02  0.48924315383E+02  0.00000000000E+00 0. -1.
</event>
<event>
 7    1  0.5950675E-006  0.7715327E+02  0.7818608E-02  0.1453583E+00
          2   -1    0    0  502    0  0.00000000000E+00  0.00000000000E+00  0.26182588835E+04  0.26182588835E+04  0.00000000000E+00 0. -1.
          1   -1    0    0  501    0 -0.00000000000E+00 -0.00000000000E+00 -0.63864658816E+03  0.63864658816E+03  0.00000000000E+00 0. -1.
         25    2    1    2    0    0  0.78540480567E+02 -0.42630324386E+02  0.84629791615E+02  0.17542233417E+03  0.12499936821E+03 0.  0.
          2    1    1    2  501    0 -0.24601203666E+01  0.30393398258E+02 -0.59226139476E+03  0.59304584188E+03  0.00000000000E+00 0. -1.
          1    1    1    2  502    0 -0.76080360201E+02  0.12236926129E+02  0.24872438985E+04  0.24884372956E+04  0.00000000000E+00 0. -1.
         22    1    3    3    0    0  0.12440484594E+02 -0.75672880762E+02  0.25623432878E+02  0.80856112028E+02  0.00000000000E+00 0. -1.
         22    1    3    3    0    0  0.66099995974E+02  0.33042556376E+02  0.59006358737E+02  0.94566222146E+02  0.00000000000E+00 0. -1.
</event>
<event>
 7    1  0.5950675E-006  0.1246154E+03  0.7818608E-02  0.1309772E+00
          2   -1    0    0  502    0  0.00000000000E+00  0.00000000000E+00  0.15929498430E+04  0.15929498430E+04  0.00000000000E+00 0. -1.
          1   -1    0    0  501    0 -0.00000000000E+00 -0.00000000000E+00 -0.96507858981E+03  0.96507858981E+03  0.00000000000E+00 0. -1.
         25    2    1    2    0    0  0.77765447285E+02 -0.32292465768E+02  0.11620215860E+03  0.19031072432E+03  0.12499984796E+03 0.  0.
          2    1    1    2  501    0  0.50462567797E+02  0.34309925726E+02 -0.92416019874E+03  0.92617261603E+03  0.00000000000E+00 0. -1.
          1    1    1    2  502    0 -0.12822801508E+03 -0.20174599577E+01  0.14358292934E+04  0.14415450925E+04  0.00000000000E+00 0. -1.
         22    1    3    3    0    0  0.61937335335E+02 -0.11107148252E+02 -0.79026148838E+01  0.63419662350E+02  0.00000000000E+00 0. -1.
         22    1    3    3    0    0  0.15828111951E+02 -0.21185317516E+02  0.12410477348E+03  0.12689106196E+03  0.00000000000E+00 0. -1.
</event>
<event>
 7    1  0.5950675E-006  0.6488633E+02  0.7818608E-02  0.1526648E+00
          2   -1    0    0  502    0  0.00000000000E+00  0.00000000000E+00  0.99889936937E+03  0.99889936937E+03  0.00000000000E+00 0. -1.
          1   -1    0    0  501    0 -0.00000000000E+00 -0.00000000000E+00 -0.41858543037E+02  0.41858543037E+02  0.00000000000E+00 0. -1.
         25    2    1    2    0    0 -0.19303403308E+02  0.57330676562E+02  0.19640463282E+03  0.24053831745E+03  0.12499789804E+03 0.  0.
          2    1    1    2  501    0  0.20256452265E+02  0.80277174610E+01 -0.11965037010E+02  0.24858202200E+02  0.00000000000E+00 0. -1.
          1    1    1    2  502    0 -0.95304895685E+00 -0.65358394023E+02  0.77260123052E+03  0.77536139276E+03  0.00000000000E+00 0. -1.
         22    1    3    3    0    0 -0.16156192259E+02  0.86039864985E+02  0.73564399269E+02  0.11434859752E+03  0.00000000000E+00 0. -1.
         22    1    3    3    0    0 -0.31472110493E+01 -0.28709188423E+02  0.12284023355E+03  0.12618971993E+03  0.00000000000E+00 0. -1.
</event>
<event>
 7    1  0.5950675E-006  0.6755795E+02  0.7818608E-02  0.1450775E+00
          2   -1    0    0  502    0  0.00000000000E+00  0.00000000000E+00  0.17838149892E+04  0.17838149892E+04  0.00000000000E+00 0. -1.
          1   -1    0    0  501    0 -0.00000000000E+00 -0.00000000000E+00 -0.24532553403E+04  0.24532553403E+04  0.00000000000E+00 0. -1.
         25    2    1    2    0    0  0.16313354122E+02 -0.63108421910E+02 -0.52969977631E+02  0.15060019727E+03  0.12500320975E+03 0.  0.
          2    1    1    2  501    0 -0.48236014829E+02  0.47465668256E+02 -0.23508011694E+04  0.23517750404E+04  0.00000000000E+00 0. -1.
          1    1    1    2  502    0  0.31922660708E+02  0.15642753654E+02  0.17343307959E+04  0.17346950918E+04  0.00000000000E+00 0. -1.
         22    1    3    3    0    0 -0.18433843003E+02  0.82315442278E+01 -0.67036985655E+02  0.70010872969E+02  0.00000000000E+00 0. -1.
         22    1    3    3    0    0  0.34747197125E+02 -0.71339966138E+02  0.14067008024E+02  0.80589324301E+02  0.00000000000E+00 0. -1.
</event>
<event>
 7    1  0.5950675E-006  0.3141971E+03  0.7818608E-02  0.1176138E+00
          2   -1    0    0  502    0  0.00000000000E+00  0.00000000000E+00  0.19266313124E+03  0.19266313124E+03  0.00000000000E+00 0. -1.
          1   -1    0    0  501    0 -0.00000000000E+00 -0.00000000000E+00 -0.15913284311E+04  0.15913284311E+04  0.00000000000E+00 0. -1.
         25    2    1    2    0    0  0.25292454476E+03 -0.24241394834E+03 -0.63460261379E+03  0.73558256199E+03  0.12500352149E+03 0.  0.
          2    1    1    2  501    0 -0.91749121987E+02 -0.19383107560E+02 -0.73348916756E+03  0.73945923834E+03  0.00000000000E+00 0. -1.
          1    1    1    2  502    0 -0.16117542278E+03  0.26179705590E+03 -0.30573518482E+02  0.30894976197E+03  0.00000000000E+00 0. -1.
         22    1    3    3    0    0  0.18663464926E+03 -0.13764739684E+03 -0.50777801850E+03  0.55822738578E+03  0.00000000000E+00 0. -1.
         22    1    3    3    0    0  0.66289895509E+02 -0.10476655150E+03 -0.12682459529E+03  0.17735517622E+03  0.00000000000E+00 0. -1.
</event>
<event>
 7    1  0.5950675E-006  0.5345024E+02  0.7818608E-02  0.1433906E+00
          2   -1    0    0  502    0  0.00000000000E+00  0.00000000000E+00  0.73322074188E+03  0.73322074188E+03  0.00000000000E+00 0. -1.
          1   -1    0    0  501    0 -0.00000000000E+00 -0.00000000000E+00 -0.32727396095E+03  0.32727396095E+03  0.00000000000E+00 0. -1.
         25    2    1    2    0    0 -0.47644495225E+02  0.12409426044E+01  0.51918725874E+02  0.14349024975E+03  0.12498943881E+03 0.  0.
          2    1    1    2  501    0  0.19037480300E+02 -0.47256985977E+02 -0.27801425169E+03  0.28264389702E+03  0.00000000000E+00 0. -1.
          1    1    1    2  502    0  0.28607014925E+02  0.46016043373E+02  0.63204230675E+03  0.63436055605E+03  0.00000000000E+00 0. -1.
         22    1    3    3    0    0  0.48156954018E+01  0.55095377779E+02  0.37812471273E+02  0.66996078681E+02  0.00000000000E+00 0.  1.
         22    1    3    3    0    0 -0.52460190626E+02 -0.53854435175E+02  0.14106254601E+02  0.76494171068E+02  0.00000000000E+00 0.  1.
</event>
<event>
 7    1  0.5950675E-006  0.3532359E+02  0.7818608E-02  0.1565075E+00
          2   -1    0    0  502    0  0.00000000000E+00  0.00000000000E+00  0.20148591424E+04  0.20148591424E+04  0.00000000000E+00 0. -1.
          1   -1    0    0  501    0 -0.00000000000E+00 -0.00000000000E+00 -0.56638368665E+03  0.56638368665E+03  0.00000000000E+00 0. -1.
         25    2    1    2    0    0  0.49758456856E+02  0.17476452587E+02  0.36063374873E+03  0.38530854565E+03  0.12499857679E+03 0.  0.
          2    1    1    2  501    0 -0.29191625968E+02  0.11089176473E+02 -0.55341743477E+03  0.55429773404E+03  0.00000000000E+00 0. -1.
          1    1    1    2  502    0 -0.20566830888E+02 -0.28565629060E+02  0.16412591417E+04  0.16416365493E+04  0.00000000000E+00 0. -1.
         22    1    3    3    0    0  0.58069828139E+02 -0.44431672583E+02  0.20133896024E+03  0.21420470438E+03  0.00000000000E+00 0. -1.
         22    1    3    3    0    0 -0.83113712825E+01  0.61908125170E+02  0.15929478849E+03  0.17110384126E+03  0.00000000000E+00 0. -1.
</event>
<event>
 7    1  0.5950675E-006  0.8626812E+02  0.7818608E-02  0.1452596E+00
          2   -1    0    0  502    0  0.00000000000E+00  0.00000000000E+00  0.91173525636E+02  0.91173525636E+02  0.00000000000E+00 0. -1.
          1   -1    0    0  501    0 -0.00000000000E+00 -0.00000000000E+00 -0.10507173815E+04  0.10507173815E+04  0.00000000000E+00 0. -1.
         25    2    1    2    0    0  0.22747363568E+02 -0.78536566763E+02 -0.35798692460E+02  0.15359016246E+03  0.12499182675E+03 0.  0.
          2    1    1    2  501    0  0.27337935912E+02  0.26819115523E+01 -0.89139416741E+03  0.89181731150E+03  0.00000000000E+00 0. -1.
          1    1    1    2  502    0 -0.50085299480E+02  0.75854655211E+02 -0.32350996030E+02  0.96483433217E+02  0.00000000000E+00 0. -1.
         22    1    3    3    0    0  0.35873437865E+02 -0.10608252030E+03 -0.46500074981E+02  0.12125453241E+03  0.00000000000E+00 0.  1.
         22    1    3    3    0    0 -0.13126074297E+02  0.27545953537E+02  0.10701382522E+02  0.32335630048E+02  0.00000000000E+00 0.  1.
</event>
<event>
 7    1  0.5950675E-006  0.6888179E+02  0.7818608E-02  0.1407808E+00
          2   -1    0    0  502    0  0.00000000000E+00  0.00000000000E+00  0.44584349265E+03  0.44584349265E+03  0.00000000000E+00 0. -1.
          1   -1    0    0  501    0 -0.00000000000E+00 -0.00000000000E+00 -0.17310388029E+03  0.17310388029E+03  0.00000000000E+00 0. -1.
         25    2    1    2    0    0 -0.56772093180E+02  0.79480610975E+01  0.29082607924E+03  0.32170042460E+03  0.12500045032E+03 0.  0.
          2    1    1    2  501    0  0.43410953115E+02 -0.54373461844E+02 -0.14533796852E+03  0.16113382419E+03  0.00000000000E+00 0. -1.
          1    1    1    2  502    0  0.13361140065E+02  0.46425400747E+02  0.12725150164E+03  0.13611312416E+03  0.00000000000E+00 0. -1.
         22    1    3    3    0    0  0.62504723810E+01 -0.50217211656E+01  0.23885564200E+03  0.23899017512E+03  0.00000000000E+00 0. -1.
         22    1    3    3    0    0 -0.63022565561E+02  0.12969782263E+02  0.51970437241E+02  0.82710249479E+02  0.00000000000E+00 0. -1.
</event>
<event>
 7    1  0.5950675E-006  0.1412113E+03  0.7818608E-02  0.1275403E+00
          2   -1    0    0  502    0  0.00000000000E+00  0.00000000000E+00  0.12489717348E+03  0.12489717348E+03  0.00000000000E+00 0. -1.
          1   -1    0    0  501    0 -0.00000000000E+00 -0.00000000000E+00 -0.66776059774E+03  0.66776059774E+03  0.00000000000E+00 0. -1.
         25    2    1    2    0    0 -0.11209823162E+03  0.12778682052E+03 -0.42674640504E+02  0.21527079442E+03  0.12499961982E+03 0.  0.
          2    1    1    2  501    0  0.73322575398E+02 -0.11393406585E+02 -0.42936366505E+03  0.43572831747E+03  0.00000000000E+00 0. -1.
          1    1    1    2  502    0  0.38775656226E+02 -0.11639341394E+03 -0.70825118709E+02  0.14165865933E+03  0.00000000000E+00 0. -1.
         22    1    3    3    0    0  0.25818414618E+02  0.36374433248E+02 -0.88635201673E+00  0.44614745851E+02  0.00000000000E+00 0. -1.
         22    1    3    3    0    0 -0.13791664624E+03  0.91412387276E+02 -0.41788288488E+02  0.17065604857E+03  0.00000000000E+00 0. -1.
</event>
<event>
 7    1  0.5950675E-006  0.8987854E+02  0.7818608E-02  0.1395604E+00
          2   -1    0    0  502    0  0.00000000000E+00  0.00000000000E+00  0.90794650644E+03  0.90794650644E+03  0.00000000000E+00 0. -1.
          1   -1    0    0  501    0 -0.00000000000E+00 -0.00000000000E+00 -0.10032257009E+03  0.10032257009E+03  0.00000000000E+00 0. -1.
         25    2    1    2    0    0 -0.42862814277E+02 -0.10545204851E+03  0.14055461632E+03  0.21985942920E+03  0.12500085223E+03 0.  0.
          2    1    1    2  501    0  0.55189822628E+02  0.66590055498E+02 -0.28944528634E+02  0.91202728856E+02  0.00000000000E+00 0. -1.
          1    1    1    2  502    0 -0.12327008351E+02  0.38861993008E+02  0.69601384866E+03  0.69720691847E+03  0.00000000000E+00 0. -1.
         22    1    3    3    0    0  0.20311243286E+02  0.19998082461E+02  0.20919330620E+02  0.35356587781E+02  0.00000000000E+00 0.  1.
         22    1    3    3    0    0 -0.63174057563E+02 -0.12545013097E+03  0.11963528570E+03  0.18450284142E+03  0.00000000000E+00 0.  1.
</event>
<event>
 7    1  0.5950675E-006  0.9527996E+02  0.7818608E-02  0.1402001E+00
          2   -1    0    0  502    0  0.00000000000E+00  0.00000000000E+00  0.15251978571E+03  0.15251978571E+03  0.00000000000E+00 0. -1.
          1   -1    0    0  501    0 -0.00000000000E+00 -0.00000000000E+00 -0.78379939488E+03  0.78379939488E+03  0.00000000000E+00 0. -1.
         25    2    1    2    0    0 -0.10706576560E+03 -0.21454134762E+02 -0.52421199218E+03  0.54986089620E+03  0.12500173746E+03 0.  0.
          2    1    1    2  501    0  0.87881824689E+02 -0.96639819137E+01 -0.23622467658E+03  0.25222748756E+03  0.00000000000E+00 0. -1.
          1    1    1    2  502    0  0.19183940907E+02  0.31118116676E+02  0.12915705959E+03  0.13423079682E+03  0.00000000000E+00 0. -1.
         22    1    3    3    0    0 -0.11696022683E+03 -0.26202248016E+02 -0.26995891307E+03  0.29537106697E+03  0.00000000000E+00 0. -1.
         22    1    3    3    0    0  0.98944612355E+01  0.47481132544E+01 -0.25425307911E+03  0.25448982923E+03  0.00000000000E+00 0. -1.
</event>
<event>
 7    1  0.5950675E-006  0.4493495E+02  0.7818608E-02  0.1476663E+00
          2   -1    0    0  502    0  0.00000000000E+00  0.00000000000E+00  0.34490722491E+02  0.34490722491E+02  0.00000000000E+00 0. -1.
          1   -1    0    0  501    0 -0.00000000000E+00 -0.00000000000E+00 -0.92945866858E+03  0.92945866858E+03  0.00000000000E+00 0. -1.
         25    2    1    2    0    0  0.31570248734E+02  0.22823647112E+02 -0.36322287957E+03  0.38609919723E+03  0.12499652150E+03 0.  0.
          2    1    1    2  501    0 -0.41593613855E+02  0.20979117730E+02 -0.53086660284E+03  0.53290665421E+03  0.00000000000E+00 0. -1.
          1    1    1    2  502    0  0.10023365120E+02 -0.43802764842E+02 -0.87846368524E+00  0.44943539631E+02  0.00000000000E+00 0. -1.
         22    1    3    3    0    0  0.57828917551E+01  0.52483079231E+02 -0.33125699254E+03  0.33543868374E+03  0.00000000000E+00 0.  1.
         22    1    3    3    0    0  0.25787356979E+02 -0.29659432119E+02 -0.31965887029E+02  0.50660513490E+02  0.00000000000E+00 0.  1.
</event>
<event>
 7    1  0.5950675E-006  0.1353507E+03  0.7818608E-02  0.1306160E+00
          2   -1    0    0  502    0  0.00000000000E+00  0.00000000000E+00  0.25566708942E+04  0.25566708942E+04  0.00000000000E+00 0. -1.
          1   -1    0    0  501    0 -0.00000000000E+00 -0.00000000000E+00 -0.60514669827E+03  0.60514669827E+03  0.00000000000E+00 0. -1.
         25    2    1    2    0    0  0.15045044239E+03 -0.87037409603E+02  0.68118147741E+03  0.71403419789E+03  0.12500313715E+03 0.  0.
          2    1    1    2  501    0 -0.93346014576E+02  0.97526042455E+02 -0.58051998134E+03  0.59601028190E+03  0.00000000000E+00 0. -1.
          1    1    1    2  502    0 -0.57104427815E+02 -0.10488632852E+02  0.18508626998E+04  0.18517731127E+04  0.00000000000E+00 0. -1.
         22    1    3    3    0    0  0.27195721449E+01 -0.39722627845E+02  0.49195048967E+02  0.63288514586E+02  0.00000000000E+00 0. -1.
         22    1    3    3    0    0  0.14773087025E+03 -0.47314781757E+02  0.63198642844E+03  0.65074568330E+03  0.00000000000E+00 0. -1.
</event>
<event>
 7    1  0.5950675E-006  0.2117012E+03  0.7818608E-02  0.1283649E+00
          2   -1    0    0  502    0  0.00000000000E+00  0.00000000000E+00  0.16727131650E+04  0.16727131650E+04  0.00000000000E+00 0. -1.
          1   -1    0    0  501    0 -0.00000000000E+00 -0.00000000000E+00 -0.18753601107E+03  0.18753601107E+03  0.00000000000E+00 0. -1.
         25    2    1    2    0    0  0.18345667799E+03 -0.37208948059E+01  0.38682737395E+03  0.44602290959E+03  0.12502328138E+03 0.  0.
          2    1    1    2  501    0 -0.21376422880E+03  0.38002425414E+02 -0.82668581178E+02  0.23232181164E+03  0.00000000000E+00 0. -1.
          1    1    1    2  502    0  0.30307550814E+02 -0.34281530608E+02  0.11810183611E+04  0.11819044548E+04  0.00000000000E+00 0. -1.
         22    1    3    3    0    0  0.81282216291E+02 -0.14478030534E+02  0.56387571813E+02  0.99979849511E+02  0.00000000000E+00 0. -1.
         22    1    3    3    0    0  0.10217446169E+03  0.10757135729E+02  0.33043980214E+03  0.34604306008E+03  0.00000000000E+00 0. -1.
</event>
<event>
 7    1  0.5950675E-006  0.7319507E+02  0.7818608E-02  0.1402646E+00
          2   -1    0    0  502    0  0.00000000000E+00  0.00000000000E+00  0.75155917903E+03  0.75155917903E+03  0.00000000000E+00 0. -1.
          1   -1    0    0  501    0 -0.00000000000E+00 -0.00000000000E+00 -0.58197038461E+03  0.58197038461E+03  0.00000000000E+00 0. -1.
         25    2    1    2    0    0 -0.11667247599E+03 -0.93158396215E+01 -0.49552596914E+02  0.17826914605E+03  0.12500070821E+03 0.  0.
          2    1    1    2  501    0  0.44507778285E+02  0.16142768164E+02 -0.46494249376E+03  0.46734682389E+03  0.00000000000E+00 0. -1.
          1    1    1    2  502    0  0.72164697706E+02 -0.68269285426E+01  0.68408388509E+03  0.68791359370E+03  0.00000000000E+00 0. -1.
         22    1    3    3    0    0  0.44023905375E+01 -0.39783521568E+02  0.79591942642E+01  0.40810028230E+02  0.00000000000E+00 0. -1.
         22    1    3    3    0    0 -0.12107486653E+03  0.30467681947E+02 -0.57511791178E+02  0.13745911782E+03  0.00000000000E+00 0. -1.
</event>
<event>
 7    1  0.5950675E-006  0.6502843E+02  0.7818608E-02  0.1466493E+00
          2   -1    0    0  502    0  0.00000000000E+00  0.00000000000E+00  0.22711774582E+03  0.22711774582E+03  0.00000000000E+00 0. -1.
          1   -1    0    0  501    0 -0.00000000000E+00 -0.00000000000E+00 -0.41329093620E+03  0.41329093620E+03  0.00000000000E+00 0. -1.
         25    2    1    2    0    0 -0.12223535234E+02 -0.64116671022E+02  0.98276875474E+02  0.17188454636E+03  0.12500236281E+03 0.  0.
          2    1    1    2  501    0  0.32937476062E+02  0.39258000387E+00 -0.36344707123E+03  0.36493671374E+03  0.00000000000E+00 0. -1.
          1    1    1    2  502    0 -0.20713940828E+02  0.63724091018E+02  0.78997005382E+02  0.10358742192E+03  0.00000000000E+00 0. -1.
         22    1    3    3    0    0  0.12490473161E+02 -0.60673736735E+02  0.12239693008E+03  0.13717989190E+03  0.00000000000E+00 0. -1.
         22    1    3    3    0    0 -0.24714008394E+02 -0.34429342868E+01 -0.24120054603E+02  0.34704654464E+02  0.00000000000E+00 0. -1.
</event>
<event>
 7    1  0.5950675E-006  0.7663702E+02  0.7818608E-02  0.1362209E+00
          2   -1    0    0  502    0  0.00000000000E+00  0.00000000000E+00  0.71043351668E+03  0.71043351668E+03  0.00000000000E+00 0. -1.
          1   -1    0    0  501    0 -0.00000000000E+00 -0.00000000000E+00 -0.27119706132E+03  0.27119706132E+03  0.00000000000E+00 0. -1.
         25    2    1    2    0    0 -0.22938237477E+02  0.42296452033E+02  0.37617536950E+02  0.13912343273E+03  0.12500039142E+03 0.  0.
          2    1    1    2  501    0  0.55331003754E+02  0.29730987214E+02 -0.21339278310E+03  0.22244534488E+03  0.00000000000E+00 0. -1.
          1    1    1    2  502    0 -0.32392766277E+02 -0.72027439247E+02  0.61501170152E+03  0.62006180040E+03  0.00000000000E+00 0. -1.
         22    1    3    3    0    0  0.42909301068E+02  0.51298951937E+02  0.25456178615E+02  0.71559818458E+02  0.00000000000E+00 0.  1.
         22    1    3    3    0    0 -0.65847538545E+02 -0.90024999042E+01  0.12161358334E+02  0.67563614272E+02  0.00000000000E+00 0.  1.
</event>
<event>
 7    1  0.5950675E-006  0.6752792E+02  0.7818608E-02  0.1469132E+00
          2   -1    0    0  502    0  0.00000000000E+00  0.00000000000E+00  0.26682585334E+03  0.26682585334E+03  0.00000000000E+00 0. -1.
          1   -1    0    0  501    0 -0.00000000000E+00 -0.00000000000E+00 -0.12304429376E+03  0.12304429376E+03  0.00000000000E+00 0. -1.
         25    2    1    2    0    0 -0.21596261862E+02  0.33285480806E+02 -0.55681026698E+02  0.14247403355E+03  0.12499660693E+03 0.  0.
          2    1    1    2  501    0 -0.26348438513E+02  0.16568597495E+02 -0.50245477211E+01  0.31527840313E+02  0.00000000000E+00 0. -1.
          1    1    1    2  502    0  0.47944700375E+02 -0.49854078301E+02  0.20448713400E+03  0.21586827324E+03  0.00000000000E+00 0. -1.
         22    1    3    3    0    0 -0.99534830980E+01  0.37997881986E+02 -0.94145260787E+02  0.10201098465E+03  0.00000000000E+00 0. -1.
         22    1    3    3    0    0 -0.11642778764E+02 -0.47124011800E+01  0.38464234088E+02  0.40463048899E+02  0.00000000000E+00 0. -1.
</event>
<event>
 7    1  0.5950675E-006  0.7368185E+02  0.7818608E-02  0.1413902E+00
          2   -1    0    0  502    0  0.00000000000E+00  0.00000000000E+00  0.11812753974E+04  0.11812753974E+04  0.00000000000E+00 0. -1.
          1   -1    0    0  501    0 -0.00000000000E+00 -0.00000000000E+00 -0.12881164589E+03  0.12881164589E+03  0.00000000000E+00 0. -1.
         25    2    1    2    0    0  0.47163119679E+02  0.37006479182E+02  0.70112906271E+03  0.71470761982E+03  0.12502471712E+03 0.  0.
          2    1    1    2  501    0 -0.74003900676E+02 -0.33256732442E+01 -0.10968237956E+03  0.13235505961E+03  0.00000000000E+00 0. -1.
          1    1    1    2  502    0  0.26840780998E+02 -0.33680805938E+02  0.46101706831E+03  0.46302436382E+03  0.00000000000E+00 0. -1.
         22    1    3    3    0    0  0.82086134203E+02  0.21311348810E+02  0.60992500157E+03  0.61579283413E+03  0.00000000000E+00 0. -1.
         22    1    3    3    0    0 -0.34923014524E+02  0.15695130372E+02  0.91204061135E+02  0.98914785691E+02  0.00000000000E+00 0. -1.
</event>
<event>
 7    1  0.5950675E-006  0.2976704E+02  0.7818608E-02  0.1638773E+00
          2   -1    0    0  502    0  0.00000000000E+00  0.00000000000E+00  0.85973975974E+02  0.85973975974E+02  0.00000000000E+00 0. -1.
          1   -1    0    0  501    0 -0.00000000000E+00 -0.00000000000E+00 -0.61594206696E+03  0.61594206696E+03  0.00000000000E+00 0. -1.
         25    2    1    2    0    0  0.15785113661E+02 -0.80164714130E+01 -0.51458778467E+03  0.52984784510E+03  0.12499886878E+03 0.  0.
          2    1    1    2  501    0 -0.10468385672E+02 -0.21379626732E+02 -0.89258797511E+02  0.92378614792E+02  0.00000000000E+00 0. -1.
          1    1    1    2  502    0 -0.53167279893E+01  0.29396098145E+02  0.73878491201E+02  0.79689583038E+02  0.00000000000E+00 0. -1.
         22    1    3    3    0    0 -0.47201675078E+02 -0.19619455695E+02 -0.12528171291E+03  0.13530864260E+03  0.00000000000E+00 0. -1.
         22    1    3    3    0    0  0.62986788739E+02  0.11602984282E+02 -0.38930607177E+03  0.39453920250E+03  0.00000000000E+00 0. -1.
</event>
<event>
 7    1  0.5950675E-006  0.1015503E+03  0.7818608E-02  0.1465749E+00
          2   -1    0    0  502    0  0.00000000000E+00  0.00000000000E+00  0.26391332719E+03  0.26391332719E+03  0.00000000000E+00 0. -1.
          1   -1    0    0  501    0 -0.00000000000E+00 -0.00000000000E+00 -0.51944976344E+03  0.51944976344E+03  0.00000000000E+00 0. -1.
         25    2    1    2    0    0 -0.43353615519E+01  0.82834051984E+02 -0.36236308706E+02  0.15433347575E+03  0.12500190455E+03 0.  0.
          2    1    1    2  501    0 -0.20330627600E+01  0.21108900911E+02 -0.41063959475E+03  0.41118681377E+03  0.00000000000E+00 0. -1.
          1    1    1    2  502    0  0.63684243119E+01 -0.10394295290E+03  0.19133946720E+03  0.21784280111E+03  0.00000000000E+00 0. -1.
         22    1    3    3    0    0 -0.24391738572E+02  0.90572516584E+02 -0.68087643882E+02  0.11590627645E+03  0.00000000000E+00 0.  1.
         22    1    3    3    0    0  0.20056377020E+02 -0.77384646005E+01  0.31851335176E+02  0.38427199300E+02  0.00000000000E+00 0.  1.
</event>
<event>
 7    1  0.5950675E-006  0.7251934E+02  0.7818608E-02  0.1420190E+00
          2   -1    0    0  502    0  0.00000000000E+00  0.00000000000E+00  0.35285071172E+03  0.35285071172E+03  0.00000000000E+00 0. -1.
          1   -1    0    0  501    0 -0.00000000000E+00 -0.00000000000E+00 -0.15813142333E+03  0.15813142333E+03  0.00000000000E+00 0. -1.
         25    2    1    2    0    0 -0.59523893594E+02  0.90117068907E+02  0.17208000654E+03  0.23853842551E+03  0.12499948710E+03 0.  0.
          2    1    1    2  501    0  0.25429975192E+02 -0.66134748486E+02 -0.11142672872E+03  0.13204697827E+03  0.00000000000E+00 0. -1.
          1    1    1    2  502    0  0.34093918402E+02 -0.23982320420E+02  0.13406601057E+03  0.14039673128E+03  0.00000000000E+00 0. -1.
         22    1    3    3    0    0 -0.91753588429E+02  0.58357814568E+02  0.15672862838E+03  0.19075696177E+03  0.00000000000E+00 0.  1.
         22    1    3    3    0    0  0.32229694834E+02  0.31759254339E+02  0.15351378161E+02  0.47781463736E+02  0.00000000000E+00 0.  1.
</event>
<event>
 7    1  0.5950675E-006  0.6226086E+02  0.7818608E-02  0.1483461E+00
          2   -1    0    0  502    0  0.00000000000E+00  0.00000000000E+00  0.14693076292E+04  0.14693076292E+04  0.00000000000E+00 0. -1.
          1   -1    0    0  501    0 -0.00000000000E+00 -0.00000000000E+00 -0.16877456550E+04  0.16877456550E+04  0.00000000000E+00 0. -1.
         25    2    1    2    0    0 -0.44438661859E+02  0.18969721246E+02 -0.11705415183E+02  0.13452378696E+03  0.12499995008E+03 0.  0.
          2    1    1    2  501    0  0.56433064258E+01  0.29965575147E+02 -0.16137944834E+04  0.16140825311E+04  0.00000000000E+00 0. -1.
          1    1    1    2  502    0  0.38795355434E+02 -0.48935296393E+02  0.14070618727E+04  0.14084469661E+04  0.00000000000E+00 0. -1.
         22    1    3    3    0    0 -0.63579313621E+02  0.54268897800E+02 -0.32031242349E+02  0.89517835516E+02  0.00000000000E+00 0.  1.
         22    1    3    3    0    0  0.19140651762E+02 -0.35299176554E+02  0.20325827166E+02  0.45005951443E+02  0.00000000000E+00 0.  1.
</event>
<event>
 7    1  0.5950675E-006  0.1284912E+03  0.7818608E-02  0.1392391E+00
          2   -1    0    0  502    0  0.00000000000E+00  0.00000000000E+00  0.41370332621E+03  0.41370332621E+03  0.00000000000E+00 0. -1.
          1   -1    0    0  501    0 -0.00000000000E+00 -0.00000000000E+00 -0.19581968349E+03  0.19581968349E+03  0.00000000000E+00 0. -1.
         25    2    1    2    0    0 -0.10592799061E+03  0.40674049628E+02 -0.26337143232E+02  0.17086197395E+03  0.12500020608E+03 0.  0.
          2    1    1    2  501    0 -0.22804495387E+02 -0.18332799198E+02 -0.82098345905E+02  0.87156611548E+02  0.00000000000E+00 0. -1.
          1    1    1    2  502    0  0.12873248600E+03 -0.22341250430E+02  0.32631913185E+03  0.35150442420E+03  0.00000000000E+00 0. -1.
         22    1    3    3    0    0 -0.80092008489E+02  0.85449711158E+02 -0.19043673131E+02  0.11865514926E+03  0.00000000000E+00 0. -1.
         22    1    3    3    0    0 -0.25835982121E+02 -0.44775661530E+02 -0.72934701005E+01  0.52206824685E+02  0.00000000000E+00 0. -1.
</event>
<event>
 7    1  0.5950675E-006  0.2760045E+02  0.7818608E-02  0.1658129E+00
          2   -1    0    0  502    0  0.00000000000E+00  0.00000000000E+00  0.11155293779E+03  0.11155293779E+03  0.00000000000E+00 0. -1.
          1   -1    0    0  501    0 -0.00000000000E+00 -0.00000000000E+00 -0.10697464603E+04  0.10697464603E+04  0.00000000000E+00 0. -1.
         25    2    1    2    0    0  0.63768735857E+01  0.12597421400E+01 -0.13686868287E+03  0.18547632730E+03  0.12500472059E+03 0.  0.
          2    1    1    2  501    0 -0.18238490665E+02 -0.20977290727E+02 -0.90684012686E+03  0.90726606073E+03  0.00000000000E+00 0. -1.
          1    1    1    2  502    0  0.11861617079E+02  0.19717548587E+02  0.85515287225E+02  0.88557010062E+02  0.00000000000E+00 0. -1.
         22    1    3    3    0    0  0.48635854291E+02  0.31524042313E+02 -0.11559828273E+03  0.12931424723E+03  0.00000000000E+00 0.  1.
         22    1    3    3    0    0 -0.42258980706E+02 -0.30264300173E+02 -0.21270400141E+02  0.56162080067E+02  0.00000000000E+00 0.  1.
</event>
<event>
 7    1  0.5950675E-006  0.2161823E+03  0.7818608E-02  0.1283471E+00
          2   -1    0    0  502    0  0.00000000000E+00  0.00000000000E+00  0.23883876080E+04  0.23883876080E+04  0.00000000000E+00 0. -1.
          1   -1    0    0  501    0 -0.00000000000E+00 -0.00000000000E+00 -0.84563496865E+02  0.84563496865E+02  0.00000000000E+00 0. -1.
         25    2    1    2    0    0  0.86002033569E+02  0.19959203367E+03  0.17945173224E+04  0.18119465404E+04  0.12499805979E+03 0.  0.
          2    1    1    2  501    0 -0.12473049558E+03 -0.17690373787E+03  0.82186589020E+02  0.23153242627E+03  0.00000000000E+00 0. -1.
          1    1    1    2  502    0  0.38728462011E+02 -0.22688295793E+02  0.42712019970E+03  0.42947213824E+03  0.00000000000E+00 0. -1.
         22    1    3    3    0    0  0.40013790358E+01  0.38741096772E+02  0.81491823453E+03  0.81584840049E+03  0.00000000000E+00 0. -1.
         22    1    3    3    0    0  0.82000654533E+02  0.16085093689E+03  0.97959908790E+03  0.99609813987E+03  0.00000000000E+00 0. -1.
</event>
<event>
 7    1  0.5950675E-006  0.4459074E+02  0.7818608E-02  0.1526959E+00
          2   -1    0    0  502    0  0.00000000000E+00  0.00000000000E+00  0.12678824717E+04  0.12678824717E+04  0.00000000000E+00 0. -1.
          1   -1    0    0  501    0 -0.00000000000E+00 -0.00000000000E+00 -0.55639524389E+03  0.55639524389E+03  0.00000000000E+00 0. -1.
         25    2    1    2    0    0  0.49699359569E+02  0.20934987147E+02 -0.44598903918E+03  0.46630388537E+03  0.12499916168E+03 0.  0.
          2    1    1    2  501    0 -0.42228537067E+02  0.98116690018E+01 -0.95352538858E+02  0.10474552429E+03  0.00000000000E+00 0. -1.
          1    1    1    2  502    0 -0.74708225023E+01 -0.30746656149E+02  0.12528288059E+04  0.12532283060E+04  0.00000000000E+00 0. -1.
         22    1    3    3    0    0  0.86614110952E+02  0.39045821390E+02 -0.30868741626E+03  0.32297755547E+03  0.00000000000E+00 0. -1.
         22    1    3    3    0    0 -0.36914751383E+02 -0.18110834243E+02 -0.13730162292E+03  0.14332632990E+03  0.00000000000E+00 0. -1.
</event>
<event>
 7    1  0.5950675E-006  0.1176743E+03  0.7818608E-02  0.1277239E+00
          2   -1    0    0  502    0  0.00000000000E+00  0.00000000000E+00  0.86446807750E+03  0.86446807750E+03  0.00000000000E+00 0. -1.
          1   -1    0    0  501    0 -0.00000000000E+00 -0.00000000000E+00 -0.41978394632E+03  0.41978394632E+03  0.00000000000E+00 0. -1.
         25    2    1    2    0    0  0.12707216981E+03 -0.65053895227E+02  0.30094244908E+02  0.19212430733E+03  0.12500696087E+03 0.  0.
          2    1    1    2  501    0 -0.11584266941E+03 -0.21715918766E+02 -0.32586357311E+03  0.34652297682E+03  0.00000000000E+00 0. -1.
          1    1    1    2  502    0 -0.11229500401E+02  0.86769813993E+02  0.74045345938E+03  0.74560473966E+03  0.00000000000E+00 0. -1.
         22    1    3    3    0    0  0.72841426954E+02 -0.82167822956E+02 -0.25357994462E+02  0.11269628429E+03  0.00000000000E+00 0.  1.
         22    1    3    3    0    0  0.54230742853E+02  0.17113927728E+02  0.55452239370E+02  0.79428023039E+02  0.00000000000E+00 0.  1.
</event>
<event>
 7    1  0.5950675E-006  0.7491965E+02  0.7818608E-02  0.1511189E+00
          2   -1    0    0  502    0  0.00000000000E+00  0.00000000000E+00  0.95846903676E+02  0.95846903676E+02  0.00000000000E+00 0. -1.
          1   -1    0    0  501    0 -0.00000000000E+00 -0.00000000000E+00 -0.22435839232E+04  0.22435839232E+04  0.00000000000E+00 0. -1.
         25    2    1    2    0    0 -0.84194691151E+02 -0.30124899805E+02 -0.87067234478E+03  0.88413319164E+03  0.12499965196E+03 0.  0.
          2    1    1    2  501    0  0.19593921829E+02 -0.73561980891E+01 -0.13504374991E+04  0.13505996722E+04  0.00000000000E+00 0. -1.
          1    1    1    2  502    0  0.64600769323E+02  0.37481097894E+02  0.73372824426E+02  0.10469796302E+03  0.00000000000E+00 0. -1.
         22    1    3    3    0    0  0.18336618056E+02  0.24017994905E+02 -0.90987517018E+02  0.95874000095E+02  0.00000000000E+00 0. -1.
         22    1    3    3    0    0 -0.10253130921E+03 -0.54142894710E+02 -0.77968482776E+03  0.78825919155E+03  0.00000000000E+00 0. -1.
</event>
<event>
 7    1  0.5950675E-006  0.1234958E+03  0.7818608E-02  0.1366464E+00
          2   -1    0    0  502    0  0.00000000000E+00  0.00000000000E+00  0.52349054405E+02  0.52349054405E+02  0.00000000000E+00 0. -1.
          1   -1    0    0  501    0 -0.00000000000E+00 -0.00000000000E+00 -0.27714064022E+04  0.27714064022E+04  0.00000000000E+00 0. -1.
         25    2    1    2    0    0  0.95770313151E+02 -0.54068454674E+02 -0.17595218094E+03  0.24224055724E+03  0.12500386762E+03 0.  0.
          2    1    1    2  501    0  0.37166059148E+02  0.58196169698E+01 -0.22997028440E+04  0.23000105119E+04  0.00000000000E+00 0. -1.
          1    1    1    2  502    0 -0.13293637230E+03  0.48248837704E+02 -0.24340232279E+03  0.28150438746E+03  0.00000000000E+00 0. -1.
         22    1    3    3    0    0 -0.29471420959E+02 -0.23155551335E+02 -0.41063595496E+02  0.55596430515E+02  0.00000000000E+00 0. -1.
         22    1    3    3    0    0  0.12524173411E+03 -0.30912903339E+02 -0.13488858545E+03  0.18664412672E+03  0.00000000000E+00 0. -1.
</event>
<event>
 7    1  0.5950675E-006  0.2264266E+03  0.7818608E-02  0.1287427E+00
          2   -1    0    0  502    0  0.00000000000E+00  0.00000000000E+00  0.44285264595E+03  0.44285264595E+03  0.00000000000E+00 0. -1.
          1   -1    0    0  501    0 -0.00000000000E+00 -0.00000000000E+00 -0.42132990540E+03  0.42132990540E+03  0.00000000000E+00 0. -1.
         25    2    1    2    0    0  0.16385804542E+03  0.16644462365E+03 -0.11608606917E+03  0.28922709127E+03  0.12499225209E+03 0.  0.
          2    1    1    2  501    0 -0.12641365132E+03 -0.18383208006E+03 -0.15996972062E+03  0.27452678634E+03  0.00000000000E+00 0. -1.
          1    1    1    2  502    0 -0.37444394101E+02  0.17387456418E+02  0.29757853034E+03  0.30042867375E+03  0.00000000000E+00 0. -1.
         22    1    3    3    0    0  0.17572471675E+03  0.11201546840E+03 -0.10062809135E+03  0.23141446370E+03  0.00000000000E+00 0. -1.
         22    1    3    3    0    0 -0.11866671334E+02  0.54429155247E+02 -0.15457977815E+02  0.57812627579E+02  0.00000000000E+00 0. -1.
</event>
<event>
 7    1  0.5950675E-006  0.9252389E+02  0.7818608E-02  0.1305480E+00
          2   -1    0    0  502    0  0.00000000000E+00  0.00000000000E+00  0.67634704766E+02  0.67634704766E+02  0.00000000000E+00 0. -1.
          1   -1    0    0  501    0 -0.00000000000E+00 -0.00000000000E+00 -0.12114018172E+04  0.12114018172E+04  0.00000000000E+00 0. -1.
         25    2    1    2    0    0 -0.48077396042E+02  0.11493662109E+02 -0.56687702212E+03  0.58259647431E+03  0.12500221352E+03 0.  0.
          2    1    1    2  501    0  0.12303089976E+03 -0.52553975711E+02 -0.59434173816E+03  0.60921311902E+03  0.00000000000E+00 0. -1.
          1    1    1    2  502    0 -0.74953503716E+02  0.41060313602E+02  0.17451647830E+02  0.87226928665E+02  0.00000000000E+00 0. -1.
         22    1    3    3    0    0  0.28809404247E+02  0.38046957902E+02 -0.13656132869E+03  0.14466011638E+03  0.00000000000E+00 0.  1.
         22    1    3    3    0    0 -0.76886800289E+02 -0.26553295793E+02 -0.43031569344E+03  0.43793635793E+03  0.00000000000E+00 0.  1.
</event>
<event>
 7    1  0.5950675E-006  0.9429351E+02  0.7818608E-02  0.1316464E+00
          2   -1    0    0  502    0  0.00000000000E+00  0.00000000000E+00  0.20937344612E+04  0.20937344612E+04  0.00000000000E+00 0. -1.
          1   -1    0    0  501    0 -0.00000000000E+00 -0.00000000000E+00 -0.12104864227E+03  0.12104864227E+03  0.00000000000E+00 0. -1.
         25    2    1    2    0    0  0.22848695196E+02 -0.71631317374E+02  0.62730904509E+03  0.64404548958E+03  0.12499938437E+03 0.  0.
          2    1    1    2  501    0  0.52596995406E+02  0.80061654246E+02 -0.91136277646E+02  0.13222001932E+03  0.00000000000E+00 0. -1.
          1    1    1    2  502    0 -0.75445690602E+02 -0.84303368715E+01  0.14365130515E+04  0.14385175946E+04  0.00000000000E+00 0. -1.
         22    1    3    3    0    0  0.62114798321E+02 -0.35565577756E+02  0.51234086099E+03  0.51731645666E+03  0.00000000000E+00 0. -1.
         22    1    3    3    0    0 -0.39266103125E+02 -0.36065739619E+02  0.11496818410E+03  0.12672903292E+03  0.00000000000E+00 0. -1.
</event>
<event>
 7    1  0.5950675E-006  0.4699931E+02  0.7818608E-02  0.1570164E+00
          2   -1    0    0  502    0  0.00000000000E+00  0.00000000000E+00  0.30041471652E+03  0.30041471652E+03  0.00000000000E+00 0. -1.
          1   -1    0    0  501    0 -0.00000000000E+00 -0.00000000000E+00 -0.23124457704E+03  0.23124457704E+03  0.00000000000E+00 0. -1.
         25    2    1    2    0    0  0.45076288080E+01 -0.63069444764E+02  0.12592796507E+03  0.18837434082E+03  0.12501586424E+03 0.  0.
          2    1    1    2  501    0 -0.16494323257E+02  0.43754861923E+02 -0.19635653688E+03  0.20184756678E+03  0.00000000000E+00 0. -1.
          1    1    1    2  502    0  0.11986694449E+02  0.19314582841E+02  0.13959871129E+03  0.14143738596E+03  0.00000000000E+00 0. -1.
         22    1    3    3    0    0  0.10776340667E+02  0.34743393017E+02  0.12495788856E+02  0.38462678217E+02  0.00000000000E+00 0.  1.
         22    1    3    3    0    0 -0.62687118587E+01 -0.97812837781E+02  0.11343217621E+03  0.14991166260E+03  0.00000000000E+00 0.  1.
</event>
<event>
 7    1  0.5950675E-006  0.7548039E+02  0.7818608E-02  0.1427349E+00
          2   -1    0    0  502    0  0.00000000000E+00  0.00000000000E+00  0.49660906250E+03  0.49660906250E+03  0.00000000000E+00 0. -1.
          1   -1    0    0  501    0 -0.00000000000E+00 -0.00000000000E+00 -0.49595095425E+03  0.49595095425E+03  0.00000000000E+00 0. -1.
         25    2    1    2    0    0  0.97102077387E+02  0.20575514372E+02 -0.65571222078E+02  0.17255969379E+03  0.12500039012E+03 0.  0.
          2    1    1    2  501    0 -0.73624283152E+02  0.91954851914E+01 -0.37240806993E+03  0.37972735293E+03  0.00000000000E+00 0. -1.
          1    1    1    2  502    0 -0.23477794236E+02 -0.29770999563E+02  0.43863740025E+03  0.44027297003E+03  0.00000000000E+00 0. -1.
         22    1    3    3    0    0  0.54637871348E+02 -0.52064371612E+02 -0.30490647120E+02  0.81398251447E+02  0.00000000000E+00 0. -1.
         22    1    3    3    0    0  0.42464206039E+02  0.72639885984E+02 -0.35080574958E+02  0.91161442341E+02  0.00000000000E+00 0. -1.
</event>
<event>
 7    1  0.5950675E-006  0.6549669E+02  0.7818608E-02  0.1387625E+00
          2   -1    0    0  502    0  0.00000000000E+00  0.00000000000E+00  0.16634176437E+03  0.16634176437E+03  0.00000000000E+00 0. -1.
          1   -1    0    0  501    0 -0.00000000000E+00 -0.00000000000E+00 -0.85994633421E+03  0.85994633421E+03  0.00000000000E+00 0. -1.
         25    2    1    2    0    0 -0.42366343665E+02 -0.10268730010E+03 -0.49734752913E+03  0.52470885474E+03  0.12500091530E+03 0.  0.
          2    1    1    2  501    0 -0.60850929697E+01  0.59331827887E+02 -0.33927424402E+03  0.34447685962E+03  0.00000000000E+00 0. -1.
          1    1    1    2  502    0  0.48451436635E+02  0.43355472214E+02  0.14301720332E+03  0.15710238422E+03  0.00000000000E+00 0. -1.
         22    1    3    3    0    0  0.41491811187E+02 -0.54794689606E+02 -0.24688734358E+03  0.25627600127E+03  0.00000000000E+00 0.  1.
         22    1    3    3    0    0 -0.83858154852E+02 -0.47892610496E+02 -0.25046018555E+03  0.26843285347E+03  0.00000000000E+00 0.  1.
</event>
<event>
 7    1  0.5950675E-006  0.1051777E+03  0.7818608E-02  0.1273002E+00
          2   -1    0    0  502    0  0.00000000000E+00  0.00000000000E+00  0.48973025959E+03  0.48973025959E+03  0.00000000000E+00 0. -1.
          1   -1    0    0  501    0 -0.00000000000E+00 -0.00000000000E+00 -0.15475568619E+04  0.15475568619E+04  0.00000000000E+00 0. -1.
         25    2    1    2    0    0  0.18520962885E+02 -0.20420274405E+03  0.15926740181E+03  0.28815698455E+03  0.12500622272E+03 0.  0.
          2    1    1    2  501    0  0.20097869314E+01  0.10434334786E+03 -0.14714279653E+04  0.14751243441E+04  0.00000000000E+00 0. -1.
          1    1    1    2  502    0 -0.20530749817E+02  0.99859396190E+02  0.25433396119E+03  0.27400579284E+03  0.00000000000E+00 0. -1.
         22    1    3    3    0    0  0.26909342263E+02 -0.22006167166E+03  0.14214030854E+03  0.26335360136E+03  0.00000000000E+00 0. -1.
         22    1    3    3    0    0 -0.83883793777E+01  0.15858927614E+02  0.17127093270E+02  0.24803383187E+02  0.00000000000E+00 0. -1.
</event>
<event>
 7    1  0.5950675E-006  0.1480829E+03  0.7818608E-02  0.1237612E+00
          2   -1    0    0  502    0  0.00000000000E+00  0.00000000000E+00  0.63903653526E+03  0.63903653526E+03  0.00000000000E+00 0. -1.
          1   -1    0    0  501    0 -0.00000000000E+00 -0.00000000000E+00 -0.10720413685E+04  0.10720413685E+04  0.00000000000E+00 0. -1.
         25    2    1    2    0    0  0.14996192115E+03  0.24835799976E+02 -0.21518006593E+03  0.29160418876E+03  0.12500058949E+03 0.  0.
          2    1    1    2  501    0 -0.13240967912E+03  0.76464173912E+02 -0.80701946838E+03  0.82137659776E+03  0.00000000000E+00 0. -1.
          1    1    1    2  502    0 -0.17552242034E+02 -0.10129997389E+03  0.58919470106E+03  0.59809711725E+03  0.00000000000E+00 0. -1.
         22    1    3    3    0    0  0.14883574296E+03  0.12851919453E+02 -0.22891060855E+03  0.27334468519E+03  0.00000000000E+00 0. -1.
         22    1    3    3    0    0  0.11261781899E+01  0.11983880523E+02  0.13730542622E+02  0.18259503564E+02  0.00000000000E+00 0. -1.
</event>
<event>
 7    1  0.6296044E-006  0.4336257E+02  0.7818608E-02  0.1549202E+00
          2   -1    0    0  502    0  0.00000000000E+00  0.00000000000E+00  0.17260182482E+04  0.17260182482E+04  0.00000000000E+00 0. -1.
          1   -1    0    0  501    0 -0.00000000000E+00 -0.00000000000E+00 -0.84442658599E+03  0.84442658599E+03  0.00000000000E+00 0. -1.
         25    2    1    2    0    0  0.25172391640E+01 -0.15124635861E+02 -0.17055913138E+02  0.12708472682E+03  0.12499813005E+03 0.  0.
          2    1    1    2  501    0  0.41728228280E+01 -0.27830060838E+02 -0.77181705106E+03  0.77232990687E+03  0.00000000000E+00 0. -1.
          1    1    1    2  502    0 -0.66900619920E+01  0.42954696699E+02  0.16704646264E+04  0.16710302005E+04  0.00000000000E+00 0. -1.
         22    1    3    3    0    0 -0.11977001019E+02 -0.69018644748E+02 -0.73010586277E+01  0.70429591319E+02  0.00000000000E+00 0. -1.
         22    1    3    3    0    0  0.14494240183E+02  0.53894008887E+02 -0.97548545098E+01  0.56655135504E+02  0.00000000000E+00 0. -1.
</event>
<event>
 7    1  0.5950675E-006  0.4648025E+02  0.7818608E-02  0.1586267E+00
          2   -1    0    0  502    0  0.00000000000E+00  0.00000000000E+00  0.92935627290E+02  0.92935627290E+02  0.00000000000E+00 0. -1.
          1   -1    0    0  501    0 -0.00000000000E+00 -0.00000000000E+00 -0.44218557542E+03  0.44218557542E+03  0.00000000000E+00 0. -1.
         25    2    1    2    0    0  0.21986064975E+02  0.18525792697E+02 -0.25271285314E+03  0.28339905293E+03  0.12499858004E+03 0.  0.
          2    1    1    2  501    0  0.20785287760E+02  0.91621468463E+00 -0.16630945070E+03  0.16760579056E+03  0.00000000000E+00 0. -1.
          1    1    1    2  502    0 -0.42771352735E+02 -0.19442007382E+02  0.69772355714E+02  0.84116359216E+02  0.00000000000E+00 0. -1.
         22    1    3    3    0    0 -0.23031111203E+02 -0.41904544313E+02 -0.61700380831E+02  0.78059976377E+02  0.00000000000E+00 0.  1.
         22    1    3    3    0    0  0.45017176178E+02  0.60430337011E+02 -0.19101247231E+03  0.20533907656E+03  0.00000000000E+00 0.  1.
</event>
<event>
 7    1  0.5950675E-006  0.5837978E+02  0.7818608E-02  0.1449668E+00
          2   -1    0    0  502    0  0.00000000000E+00  0.00000000000E+00  0.39563094414E+03  0.39563094414E+03  0.00000000000E+00 0. -1.
          1   -1    0    0  501    0 -0.00000000000E+00 -0.00000000000E+00 -0.90765132241E+02  0.90765132241E+02  0.00000000000E+00 0. -1.
         25    2    1    2    0    0 -0.71745392673E+02 -0.54552866325E+02  0.24646271778E+03  0.29067578052E+03  0.12500048613E+03 0.  0.
          2    1    1    2  501    0  0.25861241508E+02  0.32424636414E+02 -0.56466668083E+02  0.70061726094E+02  0.00000000000E+00 0. -1.
          1    1    1    2  502    0  0.45884151165E+02  0.22128229911E+02  0.11486976220E+03  0.12565856977E+03  0.00000000000E+00 0. -1.
         22    1    3    3    0    0  0.89513980164E+01  0.37091265661E+01 -0.10991175905E+02  0.14652340909E+02  0.00000000000E+00 0. -1.
         22    1    3    3    0    0 -0.80696790689E+02 -0.58261992891E+02  0.25745389368E+03  0.27602343961E+03  0.00000000000E+00 0. -1.
</event>
<event>
 7    1  0.5950675E-006  0.4894604E+02  0.7818608E-02  0.1554616E+00
          2   -1    0    0  502    0  0.00000000000E+00  0.00000000000E+00  0.45674721436E+03  0.45674721436E+03  0.00000000000E+00 0. -1.
          1   -1    0    0  501    0 -0.00000000000E+00 -0.00000000000E+00 -0.16946125329E+04  0.16946125329E+04  0.00000000000E+00 0. -1.
         25    2    1    2    0    0 -0.60454527636E+02  0.28940654360E+02 -0.98395823570E+02  0.17262462966E+03  0.12500085313E+03 0.  0.
          2    1    1    2  501    0  0.48077349478E+02 -0.82838884575E+01 -0.15583747899E+04  0.15591382364E+04  0.00000000000E+00 0. -1.
          1    1    1    2  502    0  0.12377178158E+02 -0.20656765902E+02  0.41890529499E+03  0.41959688117E+03  0.00000000000E+00 0. -1.
         22    1    3    3    0    0 -0.12400651091E+02  0.52640152838E+01 -0.11558258238E+03  0.11636502633E+03  0.00000000000E+00 0.  1.
         22    1    3    3    0    0 -0.48053876545E+02  0.23676639076E+02  0.17186758806E+02  0.56259603333E+02  0.00000000000E+00 0.  1.
</event>
<event>
 7    1  0.5950675E-006  0.1641790E+03  0.7818608E-02  0.1262335E+00
          2   -1    0    0  502    0  0.00000000000E+00  0.00000000000E+00  0.14464053765E+04  0.14464053765E+04  0.00000000000E+00 0. -1.
          1   -1    0    0  501    0 -0.00000000000E+00 -0.00000000000E+00 -0.12056882085E+03  0.12056882085E+03  0.00000000000E+00 0. -1.
         25    2    1    2    0    0 -0.54378291602E+02  0.22186367762E+03  0.53974615497E+03  0.59927451061E+03  0.12499414872E+03 0.  0.
          2    1    1    2  501    0  0.43787583000E+02 -0.15020677046E+03 -0.20559499310E+02  0.15780405359E+03  0.00000000000E+00 0. -1.
          1    1    1    2  502    0  0.10590708602E+02 -0.71656907161E+02  0.80664990001E+03  0.80989563318E+03  0.00000000000E+00 0. -1.
         22    1    3    3    0    0 -0.49407564104E+02  0.80315665918E+02  0.35009656830E+03  0.36257319360E+03  0.00000000000E+00 0.  1.
         22    1    3    3    0    0 -0.49707274982E+01  0.14154801171E+03  0.18964958667E+03  0.23670131701E+03  0.00000000000E+00 0.  1.
</event>
<event>
 7    1  0.5950675E-006  0.6324949E+02  0.7818608E-02  0.1472199E+00
          2   -1    0    0  502    0  0.00000000000E+00  0.00000000000E+00  0.30688359687E+03  0.30688359687E+03  0.00000000000E+00 0. -1.
          1   -1    0    0  501    0 -0.00000000000E+00 -0.00000000000E+00 -0.60481608585E+03  0.60481608585E+03  0.00000000000E+00 0. -1.
         25    2    1    2    0    0  0.86555936573E+02  0.27589202932E+02 -0.30270839741E+03  0.33986771934E+03  0.12499839405E+03 0.  0.
          2    1    1    2  501    0 -0.54580976260E+02 -0.21721392757E+02 -0.27954900506E+03  0.28565459580E+03  0.00000000000E+00 0. -1.
          1    1    1    2  502    0 -0.31974960313E+02 -0.58678101750E+01  0.28432491349E+03  0.28617736758E+03  0.00000000000E+00 0. -1.
         22    1    3    3    0    0  0.53528146910E+02 -0.17111879505E+01 -0.25771937032E+02  0.59433857473E+02  0.00000000000E+00 0. -1.
         22    1    3    3    0    0  0.33027789664E+02  0.29300390882E+02 -0.27693646038E+03  0.28043386187E+03  0.00000000000E+00 0. -1.
</event>
<event>
 7    1  0.5950675E-006  0.5104766E+02  0.7818608E-02  0.1456011E+00
          2   -1    0    0  502    0  0.00000000000E+00  0.00000000000E+00  0.12227151380E+03  0.12227151380E+03  0.00000000000E+00 0. -1.
          1   -1    0    0  501    0 -0.00000000000E+00 -0.00000000000E+00 -0.13300769682E+04  0.13300769682E+04  0.00000000000E+00 0. -1.
         25    2    1    2    0    0  0.12862820991E+02 -0.77899447916E+01 -0.47755554900E+03  0.49387339750E+03  0.12500197989E+03 0.  0.
          2    1    1    2  501    0 -0.16818463996E+02  0.52891973656E+02 -0.83891831569E+03  0.84075225959E+03  0.00000000000E+00 0. -1.
          1    1    1    2  502    0  0.39556430050E+01 -0.45102028864E+02  0.10866841027E+03  0.11772282493E+03  0.00000000000E+00 0. -1.
         22    1    3    3    0    0 -0.11482193731E+02 -0.38948357542E+02 -0.43049662888E+03  0.43240740373E+03  0.00000000000E+00 0. -1.
         22    1    3    3    0    0  0.24345014722E+02  0.31158412750E+02 -0.47058920121E+02  0.61465993768E+02  0.00000000000E+00 0. -1.
</event>
<event>
 7    1  0.5950675E-006  0.3802596E+02  0.7818608E-02  0.1553453E+00
          2   -1    0    0  502    0  0.00000000000E+00  0.00000000000E+00  0.35364415247E+02  0.35364415247E+02  0.00000000000E+00 0. -1.
          1   -1    0    0  501    0 -0.00000000000E+00 -0.00000000000E+00 -0.17430769200E+04  0.17430769200E+04  0.00000000000E+00 0. -1.
         25    2    1    2    0    0 -0.53102151566E+01 -0.18854401171E+02 -0.52178124016E+03  0.53690141441E+03  0.12499511743E+03 0.  0.
          2    1    1    2  501    0  0.36256661655E+02  0.14674022558E+02 -0.12045488552E+04  0.12051837274E+04  0.00000000000E+00 0. -1.
          1    1    1    2  502    0 -0.30946446498E+02  0.41803786130E+01  0.18617590593E+02  0.36356193360E+02  0.00000000000E+00 0. -1.
         22    1    3    3    0    0  0.87600941479E+01  0.21176562504E+02 -0.12987179901E+02  0.26341087501E+02  0.00000000000E+00 0. -1.
         22    1    3    3    0    0 -0.14070309305E+02 -0.40030963675E+02 -0.50879406026E+03  0.51056032691E+03  0.00000000000E+00 0. -1.
</event>
<event>
 7    1  0.5950675E-006  0.6416364E+02  0.7818608E-02  0.1391628E+00
          2   -1    0    0  502    0  0.00000000000E+00  0.00000000000E+00  0.18401578416E+03  0.18401578416E+03  0.00000000000E+00 0. -1.
          1   -1    0    0  501    0 -0.00000000000E+00 -0.00000000000E+00 -0.52478873681E+03  0.52478873681E+03  0.00000000000E+00 0. -1.
         25    2    1    2    0    0  0.10437480255E+03 -0.41405456745E+02 -0.22220752123E+03  0.27858626084E+03  0.12500244390E+03 0.  0.
          2    1    1    2  501    0 -0.58906121412E+02 -0.23725148285E+01 -0.26462061207E+03  0.27110814872E+03  0.00000000000E+00 0. -1.
          1    1    1    2  502    0 -0.45468681140E+02  0.43777971573E+02  0.14605518065E+03  0.15911011142E+03  0.00000000000E+00 0. -1.
         22    1    3    3    0    0  0.11382692382E+03 -0.64433711720E+02 -0.13531234942E+03  0.18819591839E+03  0.00000000000E+00 0. -1.
         22    1    3    3    0    0 -0.94521212728E+01  0.23028254976E+02 -0.86895171809E+02  0.90390342446E+02  0.00000000000E+00 0. -1.
</event>
<event>
 7    1  0.5950675E-006  0.7641599E+02  0.7818608E-02  0.1437939E+00
          2   -1    0    0  502    0  0.00000000000E+00  0.00000000000E+00  0.78017015890E+02  0.78017015890E+02  0.00000000000E+00 0. -1.
          1   -1    0    0  501    0 -0.00000000000E+00 -0.00000000000E+00 -0.14569563641E+04  0.14569563641E+04  0.00000000000E+00 0. -1.
         25    2    1    2    0    0  0.99195875381E+02  0.79464894053E+01 -0.58407985681E+03  0.60553931432E+03  0.12500245466E+03 0.  0.
          2    1    1    2  501    0 -0.25133569763E+02 -0.23738578665E+02 -0.84037177010E+03  0.84108259311E+03  0.00000000000E+00 0. -1.
          1    1    1    2  502    0 -0.74062305618E+02  0.15792089260E+02  0.45512278681E+02  0.88351472582E+02  0.00000000000E+00 0. -1.
         22    1    3    3    0    0  0.11046447462E+03 -0.16136913865E+02 -0.29796607140E+03  0.31819267724E+03  0.00000000000E+00 0.  1.
         22    1    3    3    0    0 -0.11268599236E+02  0.24083403271E+02 -0.28611378541E+03  0.28734663708E+03  0.00000000000E+00 0.  1.
</event>
<event>
 7    1  0.7535038E-006  0.1206949E+03  0.7818608E-02  0.1313620E+00
          2   -1    0    0  502    0  0.00000000000E+00  0.00000000000E+00  0.11614832513E+04  0.11614832513E+04  0.00000000000E+00 0. -1.
          1   -1    0    0  501    0 -0.00000000000E+00 -0.00000000000E+00 -0.94076569533E+03  0.94076569533E+03  0.00000000000E+00 0. -1.
         25    2    1    2    0    0 -0.60494881405E+02 -0.25255124333E+02 -0.23137963657E+03  0.27102922460E+03  0.12499140925E+03 0.  0.
          2    1    1    2  501    0 -0.34975326484E+02 -0.49790957703E+02 -0.68497963680E+03  0.68767689779E+03  0.00000000000E+00 0. -1.
          1    1    1    2  502    0  0.95470207888E+02  0.75046082036E+02  0.11370768294E+04  0.11435428243E+04  0.00000000000E+00 0. -1.
         22    1    3    3    0    0  0.16484165249E+02  0.20751944630E+02 -0.42562445792E+01  0.26841880110E+02  0.00000000000E+00 0. -1.
         22    1    3    3    0    0 -0.76979046654E+02 -0.46007068963E+02 -0.22712339199E+03  0.24418734449E+03  0.00000000000E+00 0. -1.
</event>
<event>
 7    1  0.5950675E-006  0.1217389E+03  0.7818608E-02  0.1345657E+00
          2   -1    0    0  502    0  0.00000000000E+00  0.00000000000E+00  0.27246729340E+04  0.27246729340E+04  0.00000000000E+00 0. -1.
          1   -1    0    0  501    0 -0.00000000000E+00 -0.00000000000E+00 -0.30117168090E+02  0.30117168090E+02  0.00000000000E+00 0. -1.
         25    2    1    2    0    0 -0.14258099463E+03 -0.68453060767E+02  0.11029788441E+04  0.11212504216E+04  0.12500006355E+03 0.  0.
          2    1    1    2  501    0  0.97284323128E+02  0.64141970541E+02  0.14397178794E+03  0.18521962000E+03  0.00000000000E+00 0. -1.
          1    1    1    2  502    0  0.45296671502E+02  0.43110902256E+01  0.14476051339E+04  0.14483200605E+04  0.00000000000E+00 0. -1.
         22    1    3    3    0    0 -0.83052177833E+02 -0.27045766255E+02  0.24302353307E+03  0.25824324839E+03  0.00000000000E+00 0. -1.
         22    1    3    3    0    0 -0.59528816797E+02 -0.41407294512E+02  0.85995531098E+03  0.86300717318E+03  0.00000000000E+00 0. -1.
</event>
<event>
 7    1  0.5950675E-006  0.1125194E+03  0.7818608E-02  0.1335308E+00
          2   -1    0    0  502    0  0.00000000000E+00  0.00000000000E+00  0.79020384608E+03  0.79020384608E+03  0.00000000000E+00 0. -1.
          1   -1    0    0  501    0 -0.00000000000E+00 -0.00000000000E+00 -0.25007993497E+03  0.25007993497E+03  0.00000000000E+00 0. -1.
         25    2    1    2    0    0 -0.15749942746E+02  0.69646515843E+02  0.22179798898E+03  0.26441938903E+03  0.12499827004E+03 0.  0.
          2    1    1    2  501    0  0.62078336551E+02 -0.97083377689E+02 -0.21281005286E+03  0.24200624102E+03  0.00000000000E+00 0. -1.
          1    1    1    2  502    0 -0.46328393805E+02  0.27436861846E+02  0.53113597499E+03  0.53385815100E+03  0.00000000000E+00 0. -1.
         22    1    3    3    0    0 -0.20447035826E+02  0.33116170431E+02 -0.66749102033E+00  0.38925667141E+02  0.00000000000E+00 0.  1.
         22    1    3    3    0    0  0.46970930799E+01  0.36530345413E+02  0.22246548000E+03  0.22549372189E+03  0.00000000000E+00 0.  1.
</event>
<event>
 7    1  0.5950675E-006  0.1551300E+03  0.7818608E-02  0.1305953E+00
          2   -1    0    0  502    0  0.00000000000E+00  0.00000000000E+00  0.30987208396E+03  0.30987208396E+03  0.00000000000E+00 0. -1.
          1   -1    0    0  501    0 -0.00000000000E+00 -0.00000000000E+00 -0.12130568412E+04  0.12130568412E+04  0.00000000000E+00 0. -1.
         25    2    1    2    0    0  0.12499564552E+03 -0.44555027175E+02 -0.19332025654E+03  0.26571313293E+03  0.12498674161E+03 0.  0.
          2    1    1    2  501    0  0.93690582496E+00 -0.50743979558E+02 -0.96003063482E+03  0.96137123373E+03  0.00000000000E+00 0. -1.
          1    1    1    2  502    0 -0.12593255134E+03  0.95299006734E+02  0.25016613409E+03  0.29584455854E+03  0.00000000000E+00 0. -1.
         22    1    3    3    0    0 -0.25779805088E+02 -0.85129448060E+01 -0.32343358622E+02  0.42227496097E+02  0.00000000000E+00 0. -1.
         22    1    3    3    0    0  0.15077545061E+03 -0.36042082369E+02 -0.16097689792E+03  0.22348563683E+03  0.00000000000E+00 0. -1.
</event>
<event>
 7    1  0.5950675E-006  0.9159679E+02  0.7818608E-02  0.1352123E+00
          2   -1    0    0  502    0  0.00000000000E+00  0.00000000000E+00  0.10605524838E+04  0.10605524838E+04  0.00000000000E+00 0. -1.
          1   -1    0    0  501    0 -0.00000000000E+00 -0.00000000000E+00 -0.23819186699E+03  0.23819186699E+03  0.00000000000E+00 0. -1.
         25    2    1    2    0    0 -0.31563680077E+02  0.14342069299E+03  0.42462148593E+03  0.46636254416E+03  0.12499942082E+03 0.  0.
          2    1    1    2  501    0  0.26686857334E+02 -0.86405625831E+02 -0.20650281356E+03  0.22543631592E+03  0.00000000000E+00 0. -1.
          1    1    1    2  502    0  0.48768227429E+01 -0.57015067158E+02  0.60424194444E+03  0.60694549072E+03  0.00000000000E+00 0. -1.
         22    1    3    3    0    0 -0.47091733835E+02  0.53798451415E+02  0.69253183472E+02  0.99538475935E+02  0.00000000000E+00 0.  1.
         22    1    3    3    0    0  0.15528053758E+02  0.89622241574E+02  0.35536830246E+03  0.36682406823E+03  0.00000000000E+00 0.  1.
</event>
<event>
 7    1  0.5950675E-006  0.4338691E+02  0.7818608E-02  0.1494671E+00
          2   -1    0    0  502    0  0.00000000000E+00  0.00000000000E+00  0.81325571602E+03  0.81325571602E+03  0.00000000000E+00 0. -1.
          1   -1    0    0  501    0 -0.00000000000E+00 -0.00000000000E+00 -0.59645226264E+03  0.59645226264E+03  0.00000000000E+00 0. -1.
         25    2    1    2    0    0 -0.12490053881E+02  0.26278608719E+01 -0.17283342849E+03  0.21368115956E+03  0.12500134739E+03 0.  0.
          2    1    1    2  501    0 -0.11840091094E+02 -0.38694928530E+02 -0.40158053203E+03  0.40361418330E+03  0.00000000000E+00 0. -1.
          1    1    1    2  502    0  0.24330144975E+02  0.36067067658E+02  0.79121741390E+03  0.79241263580E+03  0.00000000000E+00 0. -1.
         22    1    3    3    0    0  0.20668011231E+02  0.24343788497E+02 -0.17104925044E+03  0.17400469190E+03  0.00000000000E+00 0. -1.
         22    1    3    3    0    0 -0.33158065112E+02 -0.21715927625E+02 -0.17841780465E+01  0.39676467659E+02  0.00000000000E+00 0. -1.
</event>
<event>
 7    1  0.5950675E-006  0.8513280E+02  0.7818608E-02  0.1388060E+00
          2   -1    0    0  502    0  0.00000000000E+00  0.00000000000E+00  0.70204908429E+03  0.70204908429E+03  0.00000000000E+00 0. -1.
          1   -1    0    0  501    0 -0.00000000000E+00 -0.00000000000E+00 -0.53924455975E+03  0.53924455975E+03  0.00000000000E+00 0. -1.
         25    2    1    2    0    0 -0.14651219163E+02  0.54724606587E+02 -0.20142661528E+03  0.24373505375E+03  0.12499861716E+03 0.  0.
          2    1    1    2  501    0 -0.59281828035E+01 -0.95557076106E+02 -0.30863339705E+03  0.32314218530E+03  0.00000000000E+00 0. -1.
          1    1    1    2  502    0  0.20579401967E+02  0.40832469519E+02  0.67286453687E+03  0.67441640500E+03  0.00000000000E+00 0. -1.
         22    1    3    3    0    0  0.55525017129E+01  0.56433208074E+02 -0.21297925887E+03  0.22039896088E+03  0.00000000000E+00 0. -1.
         22    1    3    3    0    0 -0.20203720876E+02 -0.17086014866E+01  0.11552643589E+02  0.23336092864E+02  0.00000000000E+00 0. -1.
</event>
<event>
 7    1  0.5950675E-006  0.1362031E+03  0.7818608E-02  0.1218907E+00
          2   -1    0    0  502    0  0.00000000000E+00  0.00000000000E+00  0.51477978708E+03  0.51477978708E+03  0.00000000000E+00 0. -1.
          1   -1    0    0  501    0 -0.00000000000E+00 -0.00000000000E+00 -0.27366188880E+04  0.27366188880E+04  0.00000000000E+00 0. -1.
         25    2    1    2    0    0  0.11292956447E+03  0.57958883082E+02 -0.38665411768E+03  0.42572042146E+03  0.12499660741E+03 0.  0.
          2    1    1    2  501    0 -0.10958896209E+03  0.79972571760E+02 -0.23188008498E+04  0.23227661815E+04  0.00000000000E+00 0. -1.
          1    1    1    2  502    0 -0.33406023879E+01 -0.13793145484E+03  0.48361586659E+03  0.50291207211E+03  0.00000000000E+00 0. -1.
         22    1    3    3    0    0  0.93690414043E+02  0.33051835157E+02 -0.38100517593E+03  0.39374517340E+03  0.00000000000E+00 0. -1.
         22    1    3    3    0    0  0.19239150430E+02  0.24907047925E+02 -0.56489417591E+01  0.31975248061E+02  0.00000000000E+00 0. -1.
</event>
<event>
 7    1  0.5950675E-006  0.9447506E+02  0.7818608E-02  0.1325151E+00
          2   -1    0    0  502    0  0.00000000000E+00  0.00000000000E+00  0.13281784990E+04  0.13281784990E+04  0.00000000000E+00 0. -1.
          1   -1    0    0  501    0 -0.00000000000E+00 -0.00000000000E+00 -0.27137468806E+03  0.27137468806E+03  0.00000000000E+00 0. -1.
         25    2    1    2    0    0  0.85011856730E+01 -0.13474597237E+03  0.33411606791E+02  0.18700339764E+03  0.12500075214E+03 0.  0.
          2    1    1    2  501    0 -0.49188419361E+02  0.77639636184E+02 -0.18264993539E+03  0.20447105566E+03  0.00000000000E+00 0. -1.
          1    1    1    2  502    0  0.40687233688E+02  0.57106336183E+02  0.12060421395E+04  0.12080787338E+04  0.00000000000E+00 0. -1.
         22    1    3    3    0    0 -0.28861716435E+02 -0.14251704983E+03  0.21279833944E+02  0.14695897217E+03  0.00000000000E+00 0. -1.
         22    1    3    3    0    0  0.37362902108E+02  0.77710774676E+01  0.12131772847E+02  0.40044425472E+02  0.00000000000E+00 0. -1.
</event>
<event>
 7    1  0.5950675E-006  0.1668473E+03  0.7818608E-02  0.1392713E+00
          2   -1    0    0  502    0  0.00000000000E+00  0.00000000000E+00  0.17977221679E+03  0.17977221679E+03  0.00000000000E+00 0. -1.
          1   -1    0    0  501    0 -0.00000000000E+00 -0.00000000000E+00 -0.83536905651E+03  0.83536905651E+03  0.00000000000E+00 0. -1.
         25    2    1    2    0    0 -0.23958085291E+02  0.15721870973E+03 -0.57796817301E+03  0.61234225070E+03  0.12499644174E+03 0.  0.
          2    1    1    2  501    0 -0.22149398104E+02  0.38144797630E+01 -0.19625869885E+03  0.19754144620E+03  0.00000000000E+00 0. -1.
          1    1    1    2  502    0  0.46107483396E+02 -0.16103318949E+03  0.11863003213E+03  0.20525757640E+03  0.00000000000E+00 0. -1.
         22    1    3    3    0    0 -0.31071196115E+02  0.12492296689E+02 -0.26907815144E+03  0.27115406744E+03  0.00000000000E+00 0. -1.
         22    1    3    3    0    0  0.71131108234E+01  0.14472641304E+03 -0.30889002156E+03  0.34118818326E+03  0.00000000000E+00 0. -1.
</event>
<event>
 7    1  0.5950675E-006  0.1402624E+03  0.7818608E-02  0.1257498E+00
          2   -1    0    0  502    0  0.00000000000E+00  0.00000000000E+00  0.10731151517E+04  0.10731151517E+04  0.00000000000E+00 0. -1.
          1   -1    0    0  501    0 -0.00000000000E+00 -0.00000000000E+00 -0.33290720293E+03  0.33290720293E+03  0.00000000000E+00 0. -1.
         25    2    1    2    0    0  0.12033814423E+03 -0.48395009539E+02 -0.79287315813E+02  0.19681176138E+03  0.12500018026E+03 0.  0.
          2    1    1    2  501    0  0.15760566641E+02  0.87507340840E+02 -0.17945421457E+03  0.20027417529E+03  0.00000000000E+00 0. -1.
          1    1    1    2  502    0 -0.13609871087E+03 -0.39112331300E+02  0.99894947920E+03  0.10089364180E+04  0.00000000000E+00 0. -1.
         22    1    3    3    0    0  0.11447107932E+03 -0.79008508657E+02 -0.36364642979E+02  0.14376494600E+03  0.00000000000E+00 0. -1.
         22    1    3    3    0    0  0.58670649135E+01  0.30613499118E+02 -0.42922672834E+02  0.53046815381E+02  0.00000000000E+00 0. -1.
</event>
<event>
 7    1  0.5950675E-006  0.5501209E+02  0.7818608E-02  0.1442578E+00
          2   -1    0    0  502    0  0.00000000000E+00  0.00000000000E+00  0.35743074231E+03  0.35743074231E+03  0.00000000000E+00 0. -1.
          1   -1    0    0  501    0 -0.00000000000E+00 -0.00000000000E+00 -0.41498061401E+03  0.41498061401E+03  0.00000000000E+00 0. -1.
         25    2    1    2    0    0  0.10050366469E+02  0.62205119949E+02  0.70933744026E+02  0.15693017078E+03  0.12499998258E+03 0.  0.
          2    1    1    2  501    0  0.35405399014E+02 -0.29970917190E+02 -0.36731625998E+03  0.37023375455E+03  0.00000000000E+00 0. -1.
          1    1    1    2  502    0 -0.45455765483E+02 -0.32234202760E+02  0.23883264426E+03  0.24524743099E+03  0.00000000000E+00 0. -1.
         22    1    3    3    0    0  0.47663806766E+01  0.83748986845E+02  0.13490828339E+01  0.83895358672E+02  0.00000000000E+00 0.  1.
         22    1    3    3    0    0  0.52839857924E+01 -0.21543866895E+02  0.69584661192E+02  0.73034812109E+02  0.00000000000E+00 0.  1.
</event>
<event>
 7    1  0.5950675E-006  0.4902699E+02  0.7818608E-02  0.1510328E+00
          2   -1    0    0  502    0  0.00000000000E+00  0.00000000000E+00  0.22420105017E+03  0.22420105017E+03  0.00000000000E+00 0. -1.
          1   -1    0    0  501    0 -0.00000000000E+00 -0.00000000000E+00 -0.11481589002E+04  0.11481589002E+04  0.00000000000E+00 0. -1.
         25    2    1    2    0    0 -0.77217980157E+02  0.69326986869E+00 -0.32000978035E+03  0.35212852508E+03  0.12500056628E+03 0.  0.
          2    1    1    2  501    0  0.46832297738E+02  0.98710526246E+01 -0.81013622613E+03  0.81154877036E+03  0.00000000000E+00 0. -1.
          1    1    1    2  502    0  0.30385682420E+02 -0.10564322493E+02  0.20618815646E+03  0.20868265493E+03  0.00000000000E+00 0. -1.
         22    1    3    3    0    0 -0.31301452403E+02  0.43219948052E+02 -0.44154932120E+02  0.69263286543E+02  0.00000000000E+00 0. -1.
         22    1    3    3    0    0 -0.45916527754E+02 -0.42526678184E+02 -0.27585484823E+03  0.28286523853E+03  0.00000000000E+00 0. -1.
</event>
<event>
 7    1  0.5950675E-006  0.1015354E+03  0.7818608E-02  0.1318669E+00
          2   -1    0    0  502    0  0.00000000000E+00  0.00000000000E+00  0.36472660718E+04  0.36472660718E+04  0.00000000000E+00 0. -1.
          1   -1    0    0  501    0 -0.00000000000E+00 -0.00000000000E+00 -0.14891630483E+03  0.14891630483E+03  0.00000000000E+00 0. -1.
         25    2    1    2    0    0  0.23834984573E+02  0.24813805325E+02  0.63080301900E+03  0.64398943563E+03  0.12500445191E+03 0.  0.
          2    1    1    2  501    0 -0.72555976585E+02 -0.73843007020E+02 -0.12304539056E+03  0.16080213793E+03  0.00000000000E+00 0. -1.
          1    1    1    2  502    0  0.48720992011E+02  0.49029201695E+02  0.29905921386E+04  0.29913908031E+04  0.00000000000E+00 0. -1.
         22    1    3    3    0    0  0.12686864782E+02  0.13478619729E+02  0.67023898061E+01  0.19686334268E+02  0.00000000000E+00 0.  1.
         22    1    3    3    0    0  0.11148119792E+02  0.11335185596E+02  0.62410062920E+03  0.62430310136E+03  0.00000000000E+00 0.  1.
</event>
<event>
 7    1  0.5950675E-006  0.1163576E+03  0.7818608E-02  0.1281899E+00
          2   -1    0    0  502    0  0.00000000000E+00  0.00000000000E+00  0.31429450981E+04  0.31429450981E+04  0.00000000000E+00 0. -1.
          1   -1    0    0  501    0 -0.00000000000E+00 -0.00000000000E+00 -0.71597778632E+02  0.71597778632E+02  0.00000000000E+00 0. -1.
         25    2    1    2    0    0  0.44433254497E+02 -0.13398908054E+02  0.14710468199E+04  0.14770770664E+04  0.12499627620E+03 0.  0.
          2    1    1    2  501    0 -0.33502596704E+01 -0.11630937976E+03 -0.14219244379E+02  0.11722321857E+03  0.00000000000E+00 0. -1.
          1    1    1    2  502    0 -0.41082994827E+02  0.12970828782E+03  0.16145197439E+04  0.16202425917E+04  0.00000000000E+00 0. -1.
         22    1    3    3    0    0  0.59238307776E+02 -0.44853678949E+02  0.50823901080E+03  0.51364182240E+03  0.00000000000E+00 0. -1.
         22    1    3    3    0    0 -0.14805053279E+02  0.31454770895E+02  0.96280780906E+03  0.96343524401E+03  0.00000000000E+00 0. -1.
</event>
<event>
 7    1  0.5950675E-006  0.1523422E+03  0.7818608E-02  0.1327954E+00
          2   -1    0    0  502    0  0.00000000000E+00  0.00000000000E+00  0.85130740403E+03  0.85130740403E+03  0.00000000000E+00 0. -1.
          1   -1    0    0  501    0 -0.00000000000E+00 -0.00000000000E+00 -0.37512309796E+03  0.37512309796E+03  0.00000000000E+00 0. -1.
         25    2    1    2    0    0  0.75666363890E+02  0.10467341782E+03 -0.12687080047E+02  0.18019588211E+03  0.12501068317E+03 0.  0.
          2    1    1    2  501    0 -0.11802367221E+03 -0.10696249237E+03 -0.25526870255E+03  0.30088647773E+03  0.00000000000E+00 0. -1.
          1    1    1    2  502    0  0.42357308322E+02  0.22890745512E+01  0.74414008868E+03  0.74534814215E+03  0.00000000000E+00 0. -1.
         22    1    3    3    0    0  0.66517729285E+02  0.85985117343E+02  0.45914972739E+02  0.11800946333E+03  0.00000000000E+00 0. -1.
         22    1    3    3    0    0  0.91486346056E+01  0.18688300479E+02 -0.58602052786E+02  0.62186418780E+02  0.00000000000E+00 0. -1.
</event>
<event>
 7    1  0.5950675E-006  0.8189989E+02  0.7818608E-02  0.1377139E+00
          2   -1    0    0  502    0  0.00000000000E+00  0.00000000000E+00  0.92030327068E+03  0.92030327068E+03  0.00000000000E+00 0. -1.
          1   -1    0    0  501    0 -0.00000000000E+00 -0.00000000000E+00 -0.53183039475E+02  0.53183039475E+02  0.00000000000E+00 0. -1.
         25    2    1    2    0    0  0.27901167028E+01  0.74589314210E+02  0.28306811188E+03  0.31831192415E+03  0.12499429804E+03 0.  0.
          2    1    1    2  501    0 -0.51740645684E+02 -0.45477105061E+01 -0.11769005664E+02  0.53256789060E+02  0.00000000000E+00 0. -1.
          1    1    1    2  502    0  0.48950528981E+02 -0.70041603704E+02  0.59582112499E+03  0.60191759695E+03  0.00000000000E+00 0. -1.
         22    1    3    3    0    0  0.59990088533E+02  0.43121061131E+02  0.10286050068E+03  0.12664327553E+03  0.00000000000E+00 0.  1.
         22    1    3    3    0    0 -0.57199971830E+02  0.31468253079E+02  0.18020761120E+03  0.19166864862E+03  0.00000000000E+00 0.  1.
</event>
<event>
 7    1  0.5950675E-006  0.1706230E+03  0.7818608E-02  0.1229182E+00
          2   -1    0    0  502    0  0.00000000000E+00  0.00000000000E+00  0.11295651932E+04  0.11295651932E+04  0.00000000000E+00 0. -1.
          1   -1    0    0  501    0 -0.00000000000E+00 -0.00000000000E+00 -0.30177204229E+04  0.30177204229E+04  0.00000000000E+00 0. -1.
         25    2    1    2    0    0 -0.70590409573E+02  0.68725006362E+02 -0.21781087263E+03  0.26976446823E+03  0.12500063864E+03 0.  0.
          2    1    1    2  501    0  0.17189554649E+02  0.95763498175E+02 -0.27662970771E+04  0.27680075229E+04  0.00000000000E+00 0. -1.
          1    1    1    2  502    0  0.53400854924E+02 -0.16448850454E+03  0.10959527200E+04  0.11095136249E+04  0.00000000000E+00 0. -1.
         22    1    3    3    0    0 -0.30102463400E+02 -0.12682855298E+01 -0.17632981754E+03  0.17888535827E+03  0.00000000000E+00 0.  1.
         22    1    3    3    0    0 -0.40487946173E+02  0.69993291892E+02 -0.41481055093E+02  0.90879109958E+02  0.00000000000E+00 0.  1.
</event>
<event>
 7    1  0.5950675E-006  0.1977183E+03  0.7818608E-02  0.1259140E+00
          2   -1    0    0  502    0  0.00000000000E+00  0.00000000000E+00  0.22059436766E+04  0.22059436766E+04  0.00000000000E+00 0. -1.
          1   -1    0    0  501    0 -0.00000000000E+00 -0.00000000000E+00 -0.67271947926E+02  0.67271947926E+02  0.00000000000E+00 0. -1.
         25    2    1    2    0    0 -0.12274497135E+03 -0.11103425214E+03  0.30979112169E+03  0.37281414057E+03  0.12499964477E+03 0.  0.
          2    1    1    2  501    0  0.12082985422E+02 -0.60876885559E+02  0.19795241078E+01  0.62095992204E+02  0.00000000000E+00 0. -1.
          1    1    1    2  502    0  0.11066198593E+03  0.17191113770E+03  0.18269010828E+04  0.18383054917E+04  0.00000000000E+00 0. -1.
         22    1    3    3    0    0 -0.11727067803E+03 -0.13433530164E+03  0.29490750311E+03  0.34462852550E+03  0.00000000000E+00 0. -1.
         22    1    3    3    0    0 -0.54742933217E+01  0.23301049503E+02  0.14883618580E+02  0.28185615078E+02  0.00000000000E+00 0. -1.
</event>
<event>
 7    1  0.5950675E-006  0.7691649E+02  0.7818608E-02  0.1365525E+00
          2   -1    0    0  502    0  0.00000000000E+00  0.00000000000E+00  0.82742853531E+03  0.82742853531E+03  0.00000000000E+00 0. -1.
          1   -1    0    0  501    0 -0.00000000000E+00 -0.00000000000E+00 -0.20302036233E+04  0.20302036233E+04  0.00000000000E+00 0. -1.
         25    2    1    2    0    0  0.10449689850E+03 -0.32530808811E+02 -0.14289026794E+03  0.21913560321E+03  0.12499971442E+03 0.  0.
          2    1    1    2  501    0 -0.73902790176E+02 -0.20097629329E+02 -0.18472222777E+04  0.18488092602E+04  0.00000000000E+00 0. -1.
          1    1    1    2  502    0 -0.30594108327E+02  0.52628438140E+02  0.78733745769E+03  0.78968729523E+03  0.00000000000E+00 0. -1.
         22    1    3    3    0    0  0.31275586873E+02  0.46392471101E+02 -0.67660224822E+02  0.87797094098E+02  0.00000000000E+00 0.  1.
         22    1    3    3    0    0  0.73221311631E+02 -0.78923279912E+02 -0.75230043116E+02  0.13133850911E+03  0.00000000000E+00 0.  1.
</event>
<event>
 7    1  0.5950675E-006  0.6832748E+02  0.7818608E-02  0.1437327E+00
          2   -1    0    0  502    0  0.00000000000E+00  0.00000000000E+00  0.61592663316E+03  0.61592663316E+03  0.00000000000E+00 0. -1.
          1   -1    0    0  501    0 -0.00000000000E+00 -0.00000000000E+00 -0.17043056629E+03  0.17043056629E+03  0.00000000000E+00 0. -1.
         25    2    1    2    0    0  0.34323068324E+02 -0.57603019235E+02  0.28985240333E+03  0.32270055621E+03  0.12500020968E+03 0.  0.
          2    1    1    2  501    0  0.28964600006E+02  0.25880305754E+02 -0.14741133320E+03  0.15244290549E+03  0.00000000000E+00 0. -1.
          1    1    1    2  502    0 -0.63287668330E+02  0.31722713481E+02  0.30305499674E+03  0.31121373774E+03  0.00000000000E+00 0. -1.
         22    1    3    3    0    0  0.54702419192E+02 -0.61733654585E+02  0.91215759732E+02  0.12297850868E+03  0.00000000000E+00 0.  1.
         22    1    3    3    0    0 -0.20379350868E+02  0.41306353504E+01  0.19863664360E+03  0.19972204753E+03  0.00000000000E+00 0.  1.
</event>
<event>
 7    1  0.5950675E-006  0.7996747E+02  0.7818608E-02  0.1503197E+00
          2   -1    0    0  502    0  0.00000000000E+00  0.00000000000E+00  0.13970229440E+03  0.13970229440E+03  0.00000000000E+00 0. -1.
          1   -1    0    0  501    0 -0.00000000000E+00 -0.00000000000E+00 -0.23321842831E+03  0.23321842831E+03  0.00000000000E+00 0. -1.
         25    2    1    2    0    0  0.47255100874E+02 -0.53755153166E+02  0.45362908863E+02  0.15101320292E+03  0.12499813161E+03 0.  0.
          2    1    1    2  501    0 -0.37230936863E+02  0.71870718258E+02 -0.16782200024E+03  0.18632167498E+03  0.00000000000E+00 0. -1.
          1    1    1    2  502    0 -0.10024164010E+02 -0.18115565092E+02  0.28942957474E+02  0.35585844799E+02  0.00000000000E+00 0. -1.
         22    1    3    3    0    0  0.67793233834E+02 -0.57888711735E+02  0.73773737742E+02  0.11571339542E+03  0.00000000000E+00 0. -1.
         22    1    3    3    0    0 -0.20538132960E+02  0.41335585690E+01 -0.28410828880E+02  0.35299807500E+02  0.00000000000E+00 0. -1.
</event>
<event>
 7    1  0.5950675E-006  0.7464829E+02  0.7818608E-02  0.1404288E+00
          2   -1    0    0  502    0  0.00000000000E+00  0.00000000000E+00  0.49988591675E+02  0.49988591675E+02  0.00000000000E+00 0. -1.
          1   -1    0    0  501    0 -0.00000000000E+00 -0.00000000000E+00 -0.68643667840E+03  0.68643667840E+03  0.00000000000E+00 0. -1.
         25    2    1    2    0    0 -0.39240478146E+02  0.86136915247E+02 -0.21607555294E+03  0.26697480608E+03  0.12501007643E+03 0.  0.
          2    1    1    2  501    0  0.58333467381E+02 -0.44477164702E+02 -0.41710632999E+03  0.42350761754E+03  0.00000000000E+00 0. -1.
          1    1    1    2  502    0 -0.19092989235E+02 -0.41659750545E+02 -0.32662037961E+01  0.45942846458E+02  0.00000000000E+00 0. -1.
         22    1    3    3    0    0 -0.19623431097E+02  0.11780581537E+03 -0.16907268091E+03  0.20699966332E+03  0.00000000000E+00 0. -1.
         22    1    3    3    0    0 -0.19617047049E+02 -0.31668900125E+02 -0.47002872033E+02  0.59975142762E+02  0.00000000000E+00 0. -1.
</event>
<event>
 7    1  0.5950675E-006  0.1604017E+03  0.7818608E-02  0.1324421E+00
          2   -1    0    0  502    0  0.00000000000E+00  0.00000000000E+00  0.19997438441E+04  0.19997438441E+04  0.00000000000E+00 0. -1.
          1   -1    0    0  501    0 -0.00000000000E+00 -0.00000000000E+00 -0.95960806090E+02  0.95960806090E+02  0.00000000000E+00 0. -1.
         25    2    1    2    0    0  0.80231365185E+02 -0.12108264404E+03  0.49969524027E+02  0.19803974655E+03  0.12499883693E+03 0.  0.
          2    1    1    2  501    0 -0.27325402857E+02 -0.31323512203E+02  0.50467297119E+01  0.41872539197E+02  0.00000000000E+00 0. -1.
          1    1    1    2  502    0 -0.52905962328E+02  0.15240615625E+03  0.18487667843E+04  0.18557923645E+04  0.00000000000E+00 0. -1.
         22    1    3    3    0    0  0.15625543067E+02  0.12034583651E+02 -0.25259424476E+02  0.32047267038E+02  0.00000000000E+00 0.  1.
         22    1    3    3    0    0  0.64605822118E+02 -0.13311722769E+03  0.75228948503E+02  0.16599247951E+03  0.00000000000E+00 0.  1.
</event>
<event>
 7    1  0.5950675E-006  0.8421235E+02  0.7818608E-02  0.1456865E+00
          2   -1    0    0  502    0  0.00000000000E+00  0.00000000000E+00  0.92001696711E+03  0.92001696711E+03  0.00000000000E+00 0. -1.
          1   -1    0    0  501    0 -0.00000000000E+00 -0.00000000000E+00 -0.34559224747E+03  0.34559224747E+03  0.00000000000E+00 0. -1.
         25    2    1    2    0    0 -0.21416642741E+02  0.10411745025E+03  0.28123029859E+03  0.32560109976E+03  0.12500591701E+03 0.  0.
          2    1    1    2  501    0  0.15029564084E+02 -0.22759404545E+02 -0.32012416944E+03  0.32128392763E+03  0.00000000000E+00 0. -1.
          1    1    1    2  502    0  0.63870786570E+01 -0.81358045710E+02  0.61331859049E+03  0.61872418719E+03  0.00000000000E+00 0. -1.
         22    1    3    3    0    0 -0.18152081712E+02  0.37714041286E+02  0.57934907747E+01  0.42254130165E+02  0.00000000000E+00 0.  1.
         22    1    3    3    0    0 -0.32645610282E+01  0.66403408969E+02  0.27543680781E+03  0.28334696960E+03  0.00000000000E+00 0.  1.
</event>
<event>
 7    1  0.5950675E-006  0.6560027E+02  0.7818608E-02  0.1409440E+00
          2   -1    0    0  502    0  0.00000000000E+00  0.00000000000E+00  0.35042484050E+03  0.35042484050E+03  0.00000000000E+00 0. -1.
          1   -1    0    0  501    0 -0.00000000000E+00 -0.00000000000E+00 -0.12909170541E+04  0.12909170541E+04  0.00000000000E+00 0. -1.
         25    2    1    2    0    0  0.27276051132E+02 -0.17243287541E+02 -0.26581924526E+03  0.29551037580E+03  0.12500078849E+03 0.  0.
          2    1    1    2  501    0 -0.18086294193E+02  0.66475948531E+02 -0.10072003447E+04  0.10095537133E+04  0.00000000000E+00 0. -1.
          1    1    1    2  502    0 -0.91897569388E+01 -0.49232660989E+02  0.33252737627E+03  0.33627780555E+03  0.00000000000E+00 0. -1.
         22    1    3    3    0    0  0.77010727338E+02 -0.14736427261E+02 -0.14524289007E+03  0.16505548016E+03  0.00000000000E+00 0. -1.
         22    1    3    3    0    0 -0.49734676206E+02 -0.25068602800E+01 -0.12057635519E+03  0.13045489564E+03  0.00000000000E+00 0. -1.
</event>
<event>
 7    1  0.5950675E-006  0.1406618E+03  0.7818608E-02  0.1270899E+00
          2   -1    0    0  502    0  0.00000000000E+00  0.00000000000E+00  0.89198603127E+03  0.89198603127E+03  0.00000000000E+00 0. -1.
          1   -1    0    0  501    0 -0.00000000000E+00 -0.00000000000E+00 -0.15783040673E+04  0.15783040673E+04  0.00000000000E+00 0. -1.
         25    2    1    2    0    0  0.55004603279E+02 -0.96222185946E+02  0.67599025508E+02  0.18021959368E+03  0.12500103298E+03 0.  0.
          2    1    1    2  501    0  0.73291019237E+02  0.26074988190E+02 -0.15140270779E+04  0.15160242317E+04  0.00000000000E+00 0. -1.
          1    1    1    2  502    0 -0.12829562252E+03  0.70147197756E+02  0.76011001635E+03  0.77404627320E+03  0.00000000000E+00 0. -1.
         22    1    3    3    0    0 -0.39525265320E+02 -0.35322251531E+02  0.33531109501E+02  0.62723547063E+02  0.00000000000E+00 0.  1.
         22    1    3    3    0    0  0.94529868598E+02 -0.60899934415E+02  0.34067916007E+02  0.11749604661E+03  0.00000000000E+00 0.  1.
</event>
<event>
 7    1  0.5950675E-006  0.5706351E+02  0.7818608E-02  0.1456685E+00
          2   -1    0    0  502    0  0.00000000000E+00  0.00000000000E+00  0.56005158718E+03  0.56005158718E+03  0.00000000000E+00 0. -1.
          1   -1    0    0  501    0 -0.00000000000E+00 -0.00000000000E+00 -0.65373927069E+03  0.65373927069E+03  0.00000000000E+00 0. -1.
         25    2    1    2    0    0 -0.20290787586E+02 -0.28791528181E+02 -0.18020331535E+02  0.13111383730E+03  0.12500175129E+03 0.  0.
          2    1    1    2  501    0  0.56706453550E+02  0.11521734356E+02 -0.57691599334E+03  0.57981068945E+03  0.00000000000E+00 0. -1.
          1    1    1    2  502    0 -0.36415665965E+02  0.17269793825E+02  0.50124864137E+03  0.50286633112E+03  0.00000000000E+00 0. -1.
         22    1    3    3    0    0  0.28821587986E+02  0.36034993651E+02  0.54534128993E+01  0.46464442467E+02  0.00000000000E+00 0. -1.
         22    1    3    3    0    0 -0.49112375572E+02 -0.64826521832E+02 -0.23473744435E+02  0.84649394829E+02  0.00000000000E+00 0. -1.
</event>
<event>
 7    1  0.5950675E-006  0.3243712E+03  0.7818608E-02  0.1300271E+00
          2   -1    0    0  502    0  0.00000000000E+00  0.00000000000E+00  0.92334849056E+03  0.92334849056E+03  0.00000000000E+00 0. -1.
          1   -1    0    0  501    0 -0.00000000000E+00 -0.00000000000E+00 -0.80258793601E+03  0.80258793601E+03  0.00000000000E+00 0. -1.
         25    2    1    2    0    0  0.27759463014E+03 -0.16428320899E+03 -0.47071412304E+03  0.58416154147E+03  0.12500067789E+03 0.  0.
          2    1    1    2  501    0 -0.12189815877E+02 -0.22478714639E+02 -0.24407658408E+03  0.24541243473E+03  0.00000000000E+00 0. -1.
          1    1    1    2  502    0 -0.26540481426E+03  0.18676192363E+03  0.83555126167E+03  0.89636245037E+03  0.00000000000E+00 0. -1.
         22    1    3    3    0    0  0.18456770963E+03 -0.17158836096E+03 -0.35862384585E+03  0.43831366379E+03  0.00000000000E+00 0. -1.
         22    1    3    3    0    0  0.93026920509E+02  0.73051519675E+01 -0.11209027719E+03  0.14584787768E+03  0.00000000000E+00 0. -1.
</event>
<event>
 7    1  0.5950675E-006  0.1484887E+03  0.7818608E-02  0.1276139E+00
          2   -1    0    0  502    0  0.00000000000E+00  0.00000000000E+00  0.27647757515E+04  0.27647757515E+04  0.00000000000E+00 0. -1.
          1   -1    0    0  501    0 -0.00000000000E+00 -0.00000000000E+00 -0.49934964217E+03  0.49934964217E+03  0.00000000000E+00 0. -1.
         25    2    1    2    0    0  0.13002244962E+03  0.92331281651E+02  0.21213059749E+03  0.29335181562E+03  0.12499997745E+03 0.  0.
          2    1    1    2  501    0 -0.71265727297E+02 -0.13050799854E+03 -0.44618517878E+03  0.47031091348E+03  0.00000000000E+00 0. -1.
          1    1    1    2  502    0 -0.58756722321E+02  0.38176716886E+02  0.24994806906E+04  0.25004626646E+04  0.00000000000E+00 0. -1.
         22    1    3    3    0    0  0.11448804851E+02 -0.20927511784E+02  0.77816358921E+02  0.81390549806E+02  0.00000000000E+00 0. -1.
         22    1    3    3    0    0  0.11857364477E+03  0.11325879343E+03  0.13431423856E+03  0.21196126581E+03  0.00000000000E+00 0. -1.
</event>
<event>
 7    1  0.5950675E-006  0.5491746E+02  0.7818608E-02  0.1534059E+00
          2   -1    0    0  502    0  0.00000000000E+00  0.00000000000E+00  0.36558410287E+03  0.36558410287E+03  0.00000000000E+00 0. -1.
          1   -1    0    0  501    0 -0.00000000000E+00 -0.00000000000E+00 -0.70128984974E+03  0.70128984974E+03  0.00000000000E+00 0. -1.
         25    2    1    2    0    0 -0.59985765818E+02 -0.16428977302E+02  0.81808935547E+02  0.16182042900E+03  0.12499978364E+03 0.  0.
          2    1    1    2  501    0  0.54389032309E+02 -0.74402360197E+01 -0.65952444260E+03  0.66180511809E+03  0.00000000000E+00 0. -1.
          1    1    1    2  502    0  0.55967335090E+01  0.23869213322E+02  0.24200976018E+03  0.24324840553E+03  0.00000000000E+00 0. -1.
         22    1    3    3    0    0 -0.72509232832E+02  0.20079855011E+02  0.44528283695E+01  0.75369868672E+02  0.00000000000E+00 0.  1.
         22    1    3    3    0    0  0.12523467014E+02 -0.36508832313E+02  0.77356107178E+02  0.86450560326E+02  0.00000000000E+00 0.  1.
</event>
<event>
 7    1  0.5950675E-006  0.1631815E+03  0.7818608E-02  0.1296909E+00
          2   -1    0    0  502    0  0.00000000000E+00  0.00000000000E+00  0.38978606609E+03  0.38978606609E+03  0.00000000000E+00 0. -1.
          1   -1    0    0  501    0 -0.00000000000E+00 -0.00000000000E+00 -0.25333420299E+03  0.25333420299E+03  0.00000000000E+00 0. -1.
         25    2    1    2    0    0 -0.17244731605E+03  0.92283227241E+02  0.76804287523E+02  0.24449486833E+03  0.12499828485E+03 0.  0.
          2    1    1    2  501    0  0.25995594804E+02 -0.45535876883E+02 -0.13835037908E+03  0.14795308183E+03  0.00000000000E+00 0. -1.
          1    1    1    2  502    0  0.14645172125E+03 -0.46747350358E+02  0.19799795465E+03  0.25067231891E+03  0.00000000000E+00 0. -1.
         22    1    3    3    0    0 -0.54938007597E+02  0.21839346247E+01 -0.29326270805E+02  0.62313597300E+02  0.00000000000E+00 0. -1.
         22    1    3    3    0    0 -0.11750930846E+03  0.90099292616E+02  0.10613055833E+03  0.18218127103E+03  0.00000000000E+00 0. -1.
</event>
<event>
 7    1  0.5950675E-006  0.1067736E+03  0.7818608E-02  0.1328596E+00
          2   -1    0    0  502    0  0.00000000000E+00  0.00000000000E+00  0.15438895677E+04  0.15438895677E+04  0.00000000000E+00 0. -1.
          1   -1    0    0  501    0 -0.00000000000E+00 -0.00000000000E+00 -0.38602585333E+02  0.38602585333E+02  0.00000000000E+00 0. -1.
         25    2    1    2    0    0 -0.10151458285E+03 -0.10428096706E+02  0.34290533832E+03  0.37896189629E+03  0.12495636063E+03 0.  0.
          2    1    1    2  501    0  0.10253268140E+03 -0.49744270288E+02  0.14525688184E+03  0.18462666357E+03  0.00000000000E+00 0. -1.
          1    1    1    2  502    0 -0.10180985512E+01  0.60172366994E+02  0.10171247623E+04  0.10189035932E+04  0.00000000000E+00 0. -1.
         22    1    3    3    0    0 -0.62085954427E+02  0.20535833621E+02  0.51399082049E+02  0.83176029209E+02  0.00000000000E+00 0.  1.
         22    1    3    3    0    0 -0.39428628419E+02 -0.30963930327E+02  0.29150625627E+03  0.29578586708E+03  0.00000000000E+00 0.  1.
</event>
<event>
 7    1  0.5950675E-006  0.5524514E+02  0.7818608E-02  0.1473995E+00
          2   -1    0    0  502    0  0.00000000000E+00  0.00000000000E+00  0.15307613435E+04  0.15307613435E+04  0.00000000000E+00 0. -1.
          1   -1    0    0  501    0 -0.00000000000E+00 -0.00000000000E+00 -0.17332647651E+02  0.17332647651E+02  0.00000000000E+00 0. -1.
         25    2    1    2    0    0  0.77663194482E+02 -0.60978572369E+00  0.55662369755E+03  0.57575545220E+03  0.12502982224E+03 0.  0.
          2    1    1    2  501    0 -0.28622479108E+02  0.23043067721E+02  0.41434785336E+02  0.55381140437E+02  0.00000000000E+00 0. -1.
          1    1    1    2  502    0 -0.49040715375E+02 -0.22433281997E+02  0.91537021297E+03  0.91695739851E+03  0.00000000000E+00 0. -1.
         22    1    3    3    0    0  0.76149351250E+02 -0.98435915256E+01  0.14542888926E+03  0.16445419369E+03  0.00000000000E+00 0. -1.
         22    1    3    3    0    0  0.15138432321E+01  0.92338058019E+01  0.41119480828E+03  0.41130125851E+03  0.00000000000E+00 0. -1.
</event>
<event>
 7    1  0.5950675E-006  0.1826011E+03  0.7818608E-02  0.1335843E+00
          2   -1    0    0  502    0  0.00000000000E+00  0.00000000000E+00  0.21222437808E+03  0.21222437808E+03  0.00000000000E+00 0. -1.
          1   -1    0    0  501    0 -0.00000000000E+00 -0.00000000000E+00 -0.62896179050E+03  0.62896179050E+03  0.00000000000E+00 0. -1.
         25    2    1    2    0    0  0.11153135834E+03 -0.17960150299E+03  0.62450277093E+02  0.25341810381E+03  0.12499901783E+03 0.  0.
          2    1    1    2  501    0 -0.10228387381E+03  0.14789871267E+03 -0.51112037712E+03  0.54183028704E+03  0.00000000000E+00 0. -1.
          1    1    1    2  502    0 -0.92474845347E+01  0.31702790326E+02  0.31932687609E+02  0.45937777728E+02  0.00000000000E+00 0. -1.
         22    1    3    3    0    0 -0.77231891512E+01 -0.19811810990E+02  0.49193903829E+02  0.53592869669E+02  0.00000000000E+00 0.  1.
         22    1    3    3    0    0  0.11925454749E+03 -0.15978969200E+03  0.13256373264E+02  0.19982523414E+03  0.00000000000E+00 0.  1.
</event>
<event>
 7    1  0.5950675E-006  0.5159416E+02  0.7818608E-02  0.1500613E+00
          2   -1    0    0  502    0  0.00000000000E+00  0.00000000000E+00  0.12796137084E+03  0.12796137084E+03  0.00000000000E+00 0. -1.
          1   -1    0    0  501    0 -0.00000000000E+00 -0.00000000000E+00 -0.17041388517E+04  0.17041388517E+04  0.00000000000E+00 0. -1.
         25    2    1    2    0    0 -0.37735917692E+02  0.64348461601E+02 -0.29050199958E+03  0.32493180553E+03  0.12499816996E+03 0.  0.
          2    1    1    2  501    0  0.40027230911E+02 -0.31765821416E+02 -0.13935350414E+04  0.13944716413E+04  0.00000000000E+00 0. -1.
          1    1    1    2  502    0 -0.22913132192E+01 -0.32582640186E+02  0.10785956012E+03  0.11269677576E+03  0.00000000000E+00 0. -1.
         22    1    3    3    0    0 -0.43762732060E+02 -0.28518757514E+02 -0.11404064915E+03  0.12543430913E+03  0.00000000000E+00 0.  1.
         22    1    3    3    0    0  0.60268143681E+01  0.92867219115E+02 -0.17646135042E+03  0.19949749640E+03  0.00000000000E+00 0.  1.
</event>
<event>
 7    1  0.5950675E-006  0.2376876E+03  0.7818608E-02  0.1294101E+00
          2   -1    0    0  502    0  0.00000000000E+00  0.00000000000E+00  0.34219454126E+04  0.34219454126E+04  0.00000000000E+00 0. -1.
          1   -1    0    0  501    0 -0.00000000000E+00 -0.00000000000E+00 -0.71157776794E+02  0.71157776794E+02  0.00000000000E+00 0. -1.
         25    2    1    2    0    0  0.22891148846E+03  0.58295645570E+02  0.19730531016E+04  0.19910703932E+04  0.12499566759E+03 0.  0.
          2    1    1    2  501    0 -0.73937619869E+01  0.36201037538E+02 -0.45473599839E+02  0.58592073845E+02  0.00000000000E+00 0. -1.
          1    1    1    2  502    0 -0.22151772647E+03 -0.94496683108E+02  0.14232081340E+04  0.14434407223E+04  0.00000000000E+00 0. -1.
         22    1    3    3    0    0  0.14767077778E+03 -0.19484091401E+02  0.91340141352E+03  0.92546660159E+03  0.00000000000E+00 0.  1.
         22    1    3    3    0    0  0.81240710681E+02  0.77779736971E+02  0.10596516881E+04  0.10656037916E+04  0.00000000000E+00 0.  1.
</event>
<event>
 7    1  0.5950675E-006  0.1722521E+03  0.7818608E-02  0.1273154E+00
          2   -1    0    0  502    0  0.00000000000E+00  0.00000000000E+00  0.10474837565E+04  0.10474837565E+04  0.00000000000E+00 0. -1.
          1   -1    0    0  501    0 -0.00000000000E+00 -0.00000000000E+00 -0.98586202625E+03  0.98586202625E+03  0.00000000000E+00 0. -1.
         25    2    1    2    0    0  0.10461578910E+01 -0.22719225495E+03  0.35891428118E+02  0.26178608733E+03  0.12500538288E+03 0.  0.
          2    1    1    2  501    0  0.18716499425E+02  0.16825816696E+03 -0.86361121516E+03  0.88004854926E+03  0.00000000000E+00 0. -1.
          1    1    1    2  502    0 -0.19762657316E+02  0.58934087993E+02  0.88934151726E+03  0.89151114613E+03  0.00000000000E+00 0. -1.
         22    1    3    3    0    0 -0.28695452364E+02  0.53669318104E+00  0.11166120316E+02  0.30796091779E+02  0.00000000000E+00 0. -1.
         22    1    3    3    0    0  0.29741610255E+02 -0.22772894813E+03  0.24725307802E+02  0.23098999555E+03  0.00000000000E+00 0. -1.
</event>
<event>
 7    1  0.5950675E-006  0.2434309E+03  0.7818608E-02  0.1284343E+00
          2   -1    0    0  502    0  0.00000000000E+00  0.00000000000E+00  0.44329009777E+04  0.44329009777E+04  0.00000000000E+00 0. -1.
          1   -1    0    0  501    0 -0.00000000000E+00 -0.00000000000E+00 -0.88826011951E+02  0.88826011951E+02  0.00000000000E+00 0. -1.
         25    2    1    2    0    0  0.19728405982E+03 -0.12237900192E+03  0.30454732068E+04  0.30568657809E+04  0.12499491440E+03 0.  0.
          2    1    1    2  501    0  0.38576284620E+02 -0.86453661554E+01 -0.64315516798E+02  0.75494091107E+02  0.00000000000E+00 0. -1.
          1    1    1    2  502    0 -0.23586034444E+03  0.13102436807E+03  0.13629172758E+04  0.13893671177E+04  0.00000000000E+00 0. -1.
         22    1    3    3    0    0  0.16187954502E+03 -0.43028863309E+02  0.23545407399E+04  0.23604911705E+04  0.00000000000E+00 0.  1.
         22    1    3    3    0    0  0.35404514806E+02 -0.79350138607E+02  0.69093246690E+03  0.69637461038E+03  0.00000000000E+00 0.  1.
</event>
<event>
 7    1  0.5950675E-006  0.6482761E+02  0.7818608E-02  0.1510706E+00
          2   -1    0    0  502    0  0.00000000000E+00  0.00000000000E+00  0.16638200288E+04  0.16638200288E+04  0.00000000000E+00 0. -1.
          1   -1    0    0  501    0 -0.00000000000E+00 -0.00000000000E+00 -0.34921630211E+03  0.34921630211E+03  0.00000000000E+00 0. -1.
         25    2    1    2    0    0 -0.47023434983E+02  0.28484273582E+02  0.26792838719E+03  0.30072574019E+03  0.12501117099E+03 0.  0.
          2    1    1    2  501    0  0.69247108550E+01  0.23257842899E+02 -0.33159741612E+03  0.33248417294E+03  0.00000000000E+00 0. -1.
          1    1    1    2  502    0  0.40098724128E+02 -0.51742116480E+02  0.13782727556E+04  0.13798264178E+04  0.00000000000E+00 0. -1.
         22    1    3    3    0    0 -0.30677246771E+02  0.77805896078E+02  0.18222800771E+03  0.20050410901E+03  0.00000000000E+00 0.  1.
         22    1    3    3    0    0 -0.16346188212E+02 -0.49321622496E+02  0.85700379481E+02  0.10022163119E+03  0.00000000000E+00 0.  1.
</event>
<event>
 7    1  0.5950675E-006  0.8264201E+02  0.7818608E-02  0.1322763E+00
          2   -1    0    0  502    0  0.00000000000E+00  0.00000000000E+00  0.30551103665E+03  0.30551103665E+03  0.00000000000E+00 0. -1.
          1   -1    0    0  501    0 -0.00000000000E+00 -0.00000000000E+00 -0.60253551926E+03  0.60253551926E+03  0.00000000000E+00 0. -1.
         25    2    1    2    0    0 -0.59445455616E+02  0.14331347205E+02  0.83675757260E+02  0.16237239793E+03  0.12499605415E+03 0.  0.
          2    1    1    2  501    0  0.48756254272E+02  0.67616463005E+02 -0.55052929138E+03  0.55680486624E+03  0.00000000000E+00 0. -1.
          1    1    1    2  502    0  0.10689201345E+02 -0.81947810210E+02  0.16982905151E+03  0.18886929173E+03  0.00000000000E+00 0. -1.
         22    1    3    3    0    0  0.88732379420E+01  0.41154209254E+02  0.78150904509E+02  0.88769179147E+02  0.00000000000E+00 0. -1.
         22    1    3    3    0    0 -0.68318693558E+02 -0.26822862049E+02  0.55248527511E+01  0.73603218788E+02  0.00000000000E+00 0. -1.
</event>
<event>
 7    1  0.5950675E-006  0.4555281E+02  0.7818608E-02  0.1475935E+00
          2   -1    0    0  502    0  0.00000000000E+00  0.00000000000E+00  0.17000214034E+04  0.17000214034E+04  0.00000000000E+00 0. -1.
          1   -1    0    0  501    0 -0.00000000000E+00 -0.00000000000E+00 -0.35053174011E+03  0.35053174011E+03  0.00000000000E+00 0. -1.
         25    2    1    2    0    0 -0.14135105583E+02  0.86959133155E+02  0.44673089363E+03  0.47218252791E+03  0.12500462509E+03 0.  0.
          2    1    1    2  501    0  0.51016695783E+01 -0.43655904127E+02 -0.33597974843E+03  0.33884252442E+03  0.00000000000E+00 0. -1.
          1    1    1    2  502    0  0.90334360048E+01 -0.43303229028E+02  0.12387385181E+04  0.12395280912E+04  0.00000000000E+00 0. -1.
         22    1    3    3    0    0  0.55391332108E+01  0.94202460626E+02  0.44023338648E+03  0.45023351736E+03  0.00000000000E+00 0. -1.
         22    1    3    3    0    0 -0.19674238794E+02 -0.72433274716E+01  0.64975071480E+01  0.21949010550E+02  0.00000000000E+00 0. -1.
</event>
<event>
 7    1  0.5950675E-006  0.8182074E+02  0.7818608E-02  0.1499033E+00
          2   -1    0    0  502    0  0.00000000000E+00  0.00000000000E+00  0.70755178020E+03  0.70755178020E+03  0.00000000000E+00 0. -1.
          1   -1    0    0  501    0 -0.00000000000E+00 -0.00000000000E+00 -0.99219467304E+02  0.99219467304E+02  0.00000000000E+00 0. -1.
         25    2    1    2    0    0  0.66842286083E+02 -0.41587036053E+02  0.17277708481E+03  0.22731969451E+03  0.12499979879E+03 0.  0.
          2    1    1    2  501    0 -0.56766598218E+02  0.59808190318E+02 -0.48024078738E+02  0.95424202596E+02  0.00000000000E+00 0. -1.
          1    1    1    2  502    0 -0.10075687864E+02 -0.18221154265E+02  0.48357930682E+03  0.48402735040E+03  0.00000000000E+00 0. -1.
         22    1    3    3    0    0 -0.11278471675E+02 -0.98844476554E+01  0.13344994682E+03  0.13428996439E+03  0.00000000000E+00 0.  1.
         22    1    3    3    0    0  0.78120757758E+02 -0.31702588397E+02  0.39327137991E+02  0.93029730120E+02  0.00000000000E+00 0.  1.
</event>
<event>
 7    1  0.5950675E-006  0.4993081E+02  0.7818608E-02  0.1448086E+00
          2   -1    0    0  502    0  0.00000000000E+00  0.00000000000E+00  0.13589614314E+04  0.13589614314E+04  0.00000000000E+00 0. -1.
          1   -1    0    0  501    0 -0.00000000000E+00 -0.00000000000E+00 -0.57744820918E+02  0.57744820918E+02  0.00000000000E+00 0. -1.
         25    2    1    2    0    0 -0.99014274974E+01 -0.85820590506E+01  0.81232889240E+03  0.82199448710E+03  0.12500006956E+03 0.  0.
          2    1    1    2  501    0 -0.35718192765E+02 -0.34889769347E+02 -0.38825443196E+02  0.63249508606E+02  0.00000000000E+00 0. -1.
          1    1    1    2  502    0  0.45619620262E+02  0.43471828398E+02  0.52771316132E+03  0.53146225666E+03  0.00000000000E+00 0. -1.
         22    1    3    3    0    0 -0.60711024360E+02  0.96281622075E+01  0.26620390706E+03  0.27320880315E+03  0.00000000000E+00 0. -1.
         22    1    3    3    0    0  0.50809596863E+02 -0.18210221258E+02  0.54612498534E+03  0.54878568395E+03  0.00000000000E+00 0. -1.
</event>
<event>
 7    1  0.5950675E-006  0.4938123E+02  0.7818608E-02  0.1465998E+00
          2   -1    0    0  502    0  0.00000000000E+00  0.00000000000E+00  0.27709025073E+04  0.27709025073E+04  0.00000000000E+00 0. -1.
          1   -1    0    0  501    0 -0.00000000000E+00 -0.00000000000E+00 -0.16887677046E+02  0.16887677046E+02  0.00000000000E+00 0. -1.
         25    2    1    2    0    0  0.42560960447E+02 -0.83481329841E+01  0.18510723581E+04  0.18557949594E+04  0.12499971994E+03 0.  0.
          2    1    1    2  501    0 -0.12484474735E+02  0.47777017548E+02  0.30281738560E+02  0.57926584617E+02  0.00000000000E+00 0. -1.
          1    1    1    2  502    0 -0.30076485712E+02 -0.39428884564E+02  0.87266073360E+03  0.87406864027E+03  0.00000000000E+00 0. -1.
         22    1    3    3    0    0  0.36000124555E+02 -0.31588618436E+02  0.17816274655E+04  0.17822711005E+04  0.00000000000E+00 0. -1.
         22    1    3    3    0    0  0.65608358920E+01  0.23240485451E+02  0.69444892531E+02  0.73523858918E+02  0.00000000000E+00 0. -1.
</event>
<event>
 7    1  0.5950675E-006  0.1140216E+03  0.7818608E-02  0.1326235E+00
          2   -1    0    0  502    0  0.00000000000E+00  0.00000000000E+00  0.57001100927E+03  0.57001100927E+03  0.00000000000E+00 0. -1.
          1   -1    0    0  501    0 -0.00000000000E+00 -0.00000000000E+00 -0.45541728900E+03  0.45541728900E+03  0.00000000000E+00 0. -1.
         25    2    1    2    0    0 -0.45313573892E+02  0.70683941826E+02 -0.33761449972E+03  0.36967438698E+03  0.12500424936E+03 0.  0.
          2    1    1    2  501    0  0.37378999553E+02  0.43749504559E+02 -0.87094498574E+02  0.10438707027E+03  0.00000000000E+00 0. -1.
          1    1    1    2  502    0  0.79345743387E+01 -0.11443344639E+03  0.53930271857E+03  0.55136684102E+03  0.00000000000E+00 0. -1.
         22    1    3    3    0    0  0.15834134779E+02 -0.24092769660E+02 -0.28140448266E+02  0.40287295798E+02  0.00000000000E+00 0.  1.
         22    1    3    3    0    0 -0.61147708671E+02  0.94776711487E+02 -0.30947405145E+03  0.32938709118E+03  0.00000000000E+00 0.  1.
</event>
<event>
 7    1  0.5950675E-006  0.6723516E+02  0.7818608E-02  0.1406308E+00
          2   -1    0    0  502    0  0.00000000000E+00  0.00000000000E+00  0.25424108488E+04  0.25424108488E+04  0.00000000000E+00 0. -1.
          1   -1    0    0  501    0 -0.00000000000E+00 -0.00000000000E+00 -0.31640273681E+03  0.31640273681E+03  0.00000000000E+00 0. -1.
         25    2    1    2    0    0  0.50302604903E+02  0.34958607040E+02  0.43239425839E+03  0.45424878128E+03  0.12499881736E+03 0.  0.
          2    1    1    2  501    0  0.17035837843E+02 -0.47091169300E+02 -0.30286121646E+03  0.30697347513E+03  0.00000000000E+00 0. -1.
          1    1    1    2  502    0 -0.67338442746E+02  0.12132562261E+02  0.20964750700E+04  0.20975913292E+04  0.00000000000E+00 0. -1.
         22    1    3    3    0    0  0.88833535210E+02  0.41674831522E+02  0.34100987412E+03  0.35484633690E+03  0.00000000000E+00 0. -1.
         22    1    3    3    0    0 -0.38530930307E+02 -0.67162244827E+01  0.91384384263E+02  0.99402444380E+02  0.00000000000E+00 0. -1.
</event>
<event>
 7    1  0.5950675E-006  0.1190879E+03  0.7818608E-02  0.1449984E+00
          2   -1    0    0  502    0  0.00000000000E+00  0.00000000000E+00  0.10746375679E+04  0.10746375679E+04  0.00000000000E+00 0. -1.
          1   -1    0    0  501    0 -0.00000000000E+00 -0.00000000000E+00 -0.67577708701E+03  0.67577708701E+03  0.00000000000E+00 0. -1.
         25    2    1    2    0    0 -0.12585969721E+03  0.51638890147E+02  0.44144334050E+02  0.18994837746E+03  0.12499770203E+03 0.  0.
          2    1    1    2  501    0  0.13325665208E+02 -0.15293643610E+02 -0.59905168480E+03  0.59939501996E+03  0.00000000000E+00 0. -1.
          1    1    1    2  502    0  0.11253403201E+03 -0.36345246536E+02  0.95376783166E+03  0.96107125751E+03  0.00000000000E+00 0. -1.
         22    1    3    3    0    0 -0.89872556936E+02  0.81345088234E+02 -0.61056861673E+01  0.12137289349E+03  0.00000000000E+00 0.  1.
         22    1    3    3    0    0 -0.35987140277E+02 -0.29706198087E+02  0.50250020218E+02  0.68575483972E+02  0.00000000000E+00 0.  1.
</event>
<event>
 7    1  0.5950675E-006  0.6938798E+02  0.7818608E-02  0.1391791E+00
          2   -1    0    0  502    0  0.00000000000E+00  0.00000000000E+00  0.19316274474E+03  0.19316274474E+03  0.00000000000E+00 0. -1.
          1   -1    0    0  501    0 -0.00000000000E+00 -0.00000000000E+00 -0.10264488148E+04  0.10264488148E+04  0.00000000000E+00 0. -1.
         25    2    1    2    0    0  0.54704813832E+02 -0.43250574869E+02  0.21172541664E+02  0.14472479729E+03  0.12503504127E+03 0.  0.
          2    1    1    2  501    0 -0.46095325175E+02 -0.28971736963E+02 -0.95180967338E+03  0.95336550959E+03  0.00000000000E+00 0. -1.
          1    1    1    2  502    0 -0.86094886570E+01  0.72222311832E+02  0.97351061700E+02  0.12152125261E+03  0.00000000000E+00 0. -1.
         22    1    3    3    0    0  0.15878103386E+02 -0.30047817296E+00 -0.50297745521E+02  0.52745309353E+02  0.00000000000E+00 0.  1.
         22    1    3    3    0    0  0.38826710447E+02 -0.42950096696E+02  0.71470287185E+02  0.91979487934E+02  0.00000000000E+00 0.  1.
</event>
<event>
 7    1  0.5950675E-006  0.1404559E+03  0.7818608E-02  0.1222733E+00
          2   -1    0    0  502    0  0.00000000000E+00  0.00000000000E+00  0.65779636353E+03  0.65779636353E+03  0.00000000000E+00 0. -1.
          1   -1    0    0  501    0 -0.00000000000E+00 -0.00000000000E+00 -0.25444990111E+04  0.25444990111E+04  0.00000000000E+00 0. -1.
         25    2    1    2    0    0  0.61582282429E+02  0.66089737157E+02 -0.34162131335E+03  0.37482229108E+03  0.12500558904E+03 0.  0.
          2    1    1    2  501    0 -0.15316748771E+03  0.21004630407E+02 -0.21772815805E+04  0.21827635132E+04  0.00000000000E+00 0. -1.
          1    1    1    2  502    0  0.91585205284E+02 -0.87094367564E+02  0.63220024629E+03  0.64470957034E+03  0.00000000000E+00 0. -1.
         22    1    3    3    0    0 -0.42837721807E+01 -0.80437207857E+01  0.75546888190E+01  0.11837460510E+02  0.00000000000E+00 0.  1.
         22    1    3    3    0    0  0.65866054610E+02  0.74133457943E+02 -0.34917600217E+03  0.36298483057E+03  0.00000000000E+00 0.  1.
</event>
<event>
 7    1  0.5950675E-006  0.8029728E+02  0.7818608E-02  0.1408142E+00
          2   -1    0    0  502    0  0.00000000000E+00  0.00000000000E+00  0.31778726715E+03  0.31778726715E+03  0.00000000000E+00 0. -1.
          1   -1    0    0  501    0 -0.00000000000E+00 -0.00000000000E+00 -0.14627579316E+04  0.14627579316E+04  0.00000000000E+00 0. -1.
         25    2    1    2    0    0  0.95243075638E+02 -0.56181059479E+02 -0.71871674301E+03  0.73783831976E+03  0.12499629806E+03 0.  0.
          2    1    1    2  501    0 -0.17330572384E+02  0.37524970065E+02 -0.72867888743E+03  0.72985025389E+03  0.00000000000E+00 0. -1.
          1    1    1    2  502    0 -0.77912503255E+02  0.18656089413E+02  0.30242496597E+03  0.31285662512E+03  0.00000000000E+00 0. -1.
         22    1    3    3    0    0  0.66326125684E+02 -0.36313336833E+02 -0.68505970108E+03  0.68922028947E+03  0.00000000000E+00 0.  1.
         22    1    3    3    0    0  0.28916949954E+02 -0.19867722646E+02 -0.33657041931E+02  0.48618030291E+02  0.00000000000E+00 0.  1.
</event>
<event>
 7    1  0.5950675E-006  0.6002121E+02  0.7818608E-02  0.1485592E+00
          2   -1    0    0  502    0  0.00000000000E+00  0.00000000000E+00  0.33478809621E+03  0.33478809621E+03  0.00000000000E+00 0. -1.
          1   -1    0    0  501    0 -0.00000000000E+00 -0.00000000000E+00 -0.66735112027E+03  0.66735112027E+03  0.00000000000E+00 0. -1.
         25    2    1    2    0    0  0.11123532831E+02  0.88235054935E+02 -0.15112403273E+02  0.15415313126E+03  0.12500258095E+03 0.  0.
          2    1    1    2  501    0 -0.15420220902E+02 -0.57371990580E+02 -0.58028142618E+03  0.58331454815E+03  0.00000000000E+00 0. -1.
          1    1    1    2  502    0  0.42966880718E+01 -0.30863064356E+02  0.26283080539E+03  0.26467153707E+03  0.00000000000E+00 0. -1.
         22    1    3    3    0    0  0.89440996821E+01 -0.11731827860E+02  0.38120360599E+02  0.40875354387E+02  0.00000000000E+00 0.  1.
         22    1    3    3    0    0  0.21794331484E+01  0.99966882796E+02 -0.53232763872E+02  0.11327777688E+03  0.00000000000E+00 0.  1.
</event>
<event>
 7    1  0.5950675E-006  0.3043108E+03  0.7818608E-02  0.1239818E+00
          2   -1    0    0  502    0  0.00000000000E+00  0.00000000000E+00  0.91536953484E+03  0.91536953484E+03  0.00000000000E+00 0. -1.
          1   -1    0    0  501    0 -0.00000000000E+00 -0.00000000000E+00 -0.43670926105E+04  0.43670926105E+04  0.00000000000E+00 0. -1.
         25    2    1    2    0    0 -0.89101201940E+02 -0.34100695940E+03 -0.17302456334E+04  0.17701971615E+04  0.12499307280E+03 0.  0.
          2    1    1    2  501    0  0.10074784709E+02  0.47869638370E+02 -0.25908979010E+04  0.25913596696E+04  0.00000000000E+00 0. -1.
          1    1    1    2  502    0  0.79026417231E+02  0.29313732103E+03  0.86942045878E+03  0.92090531421E+03  0.00000000000E+00 0. -1.
         22    1    3    3    0    0  0.11353518063E+02 -0.18304004473E+03 -0.97491170411E+03  0.99201078177E+03  0.00000000000E+00 0.  1.
         22    1    3    3    0    0 -0.10045472000E+03 -0.15796691467E+03 -0.75533392926E+03  0.77818637973E+03  0.00000000000E+00 0.  1.
</event>
<event>
 7    1  0.5950675E-006  0.5819912E+02  0.7818608E-02  0.1444477E+00
          2   -1    0    0  502    0  0.00000000000E+00  0.00000000000E+00  0.58032429948E+03  0.58032429948E+03  0.00000000000E+00 0. -1.
          1   -1    0    0  501    0 -0.00000000000E+00 -0.00000000000E+00 -0.73127678174E+03  0.73127678174E+03  0.00000000000E+00 0. -1.
         25    2    1    2    0    0  0.35503043419E+02  0.10663810485E+02  0.15636340614E+03  0.20359002135E+03  0.12500079626E+03 0.  0.
          2    1    1    2  501    0 -0.56444866293E+01  0.42862481779E+02 -0.70465126117E+03  0.70597624070E+03  0.00000000000E+00 0. -1.
          1    1    1    2  502    0 -0.29858556790E+02 -0.53526292264E+02  0.39733537277E+03  0.40203481917E+03  0.00000000000E+00 0. -1.
         22    1    3    3    0    0  0.36713803162E+02  0.17152015395E+01  0.17715219164E+03  0.18092469224E+03  0.00000000000E+00 0.  1.
         22    1    3    3    0    0 -0.12107597430E+01  0.89486089453E+01 -0.20788785498E+02  0.22665329110E+02  0.00000000000E+00 0.  1.
</event>
<event>
 7    1  0.6364527E-006  0.7725900E+02  0.7818608E-02  0.1348319E+00
          2   -1    0    0  502    0  0.00000000000E+00  0.00000000000E+00  0.15125650691E+04  0.15125650691E+04  0.00000000000E+00 0. -1.
          1   -1    0    0  501    0 -0.00000000000E+00 -0.00000000000E+00 -0.53978137262E+03  0.53978137262E+03  0.00000000000E+00 0. -1.
         25    2    1    2    0    0  0.85566219366E+02  0.31680873351E+02 -0.16606798301E+03  0.22699908611E+03  0.12499901792E+03 0.  0.
          2    1    1    2  501    0 -0.29305471542E+02 -0.73465568096E+02 -0.33784931978E+03  0.34698438471E+03  0.00000000000E+00 0. -1.
          1    1    1    2  502    0 -0.56260747824E+02  0.41784694745E+02  0.14767009993E+04  0.14783629709E+04  0.00000000000E+00 0. -1.
         22    1    3    3    0    0  0.58370888496E+02  0.51742305597E+02 -0.24957127924E+02  0.81898016133E+02  0.00000000000E+00 0.  1.
         22    1    3    3    0    0  0.27195330870E+02 -0.20061432246E+02 -0.14111085509E+03  0.14510106998E+03  0.00000000000E+00 0.  1.
</event>
<event>
 7    1  0.5950675E-006  0.3574996E+02  0.7818608E-02  0.1619626E+00
          2   -1    0    0  502    0  0.00000000000E+00  0.00000000000E+00  0.89571913966E+03  0.89571913966E+03  0.00000000000E+00 0. -1.
          1   -1    0    0  501    0 -0.00000000000E+00 -0.00000000000E+00 -0.35449639346E+03  0.35449639346E+03  0.00000000000E+00 0. -1.
         25    2    1    2    0    0 -0.19975843319E+02  0.30623247669E+01  0.29353421382E+03  0.31968171124E+03  0.12500259865E+03 0.  0.
          2    1    1    2  501    0  0.32382306029E+02  0.15284273455E+02 -0.34027469605E+03  0.34215360809E+03  0.00000000000E+00 0. -1.
          1    1    1    2  502    0 -0.12406462709E+02 -0.18346598221E+02  0.58796322844E+03  0.58838021379E+03  0.00000000000E+00 0. -1.
         22    1    3    3    0    0 -0.26775338430E+02  0.17885728324E+02  0.73431410840E+01  0.33026349279E+02  0.00000000000E+00 0. -1.
         22    1    3    3    0    0  0.67994951103E+01 -0.14823403557E+02  0.28619107273E+03  0.28665536196E+03  0.00000000000E+00 0. -1.
</event>
<event>
 7    1  0.5950675E-006  0.6974433E+02  0.7818608E-02  0.1416574E+00
          2   -1    0    0  502    0  0.00000000000E+00  0.00000000000E+00  0.18406677116E+04  0.18406677116E+04  0.00000000000E+00 0. -1.
          1   -1    0    0  501    0 -0.00000000000E+00 -0.00000000000E+00 -0.18421618031E+03  0.18421618031E+03  0.00000000000E+00 0. -1.
         25    2    1    2    0    0 -0.35276496393E+02 -0.13006152845E+02  0.17053195925E+03  0.21475532057E+03  0.12500042951E+03 0.  0.
          2    1    1    2  501    0 -0.71817846647E+01 -0.43985048061E+02 -0.15825907237E+03  0.16441470881E+03  0.00000000000E+00 0. -1.
          1    1    1    2  502    0  0.42458281057E+02  0.56991200906E+02  0.16441786444E+04  0.16457138625E+04  0.00000000000E+00 0. -1.
         22    1    3    3    0    0 -0.11475568910E+02  0.50280532363E+02  0.32246098563E+02  0.60824596086E+02  0.00000000000E+00 0.  1.
         22    1    3    3    0    0 -0.23800927483E+02 -0.63286685208E+02  0.13828586069E+03  0.15393072448E+03  0.00000000000E+00 0.  1.
</event>
<event>
 7    1  0.6908877E-006  0.6021282E+02  0.7818608E-02  0.1418636E+00
          2   -1    0    0  502    0  0.00000000000E+00  0.00000000000E+00  0.80079080651E+03  0.80079080651E+03  0.00000000000E+00 0. -1.
          1   -1    0    0  501    0 -0.00000000000E+00 -0.00000000000E+00 -0.12751487611E+04  0.12751487611E+04  0.00000000000E+00 0. -1.
         25    2    1    2    0    0  0.34251460476E+02 -0.20289513256E+02 -0.69132122854E+03  0.70365780790E+03  0.12499777076E+03 0.  0.
          2    1    1    2  501    0 -0.31428690207E+02 -0.39920075572E+02 -0.57539519524E+03  0.57763397208E+03  0.00000000000E+00 0. -1.
          1    1    1    2  502    0 -0.28227702685E+01  0.60209588828E+02  0.79235846921E+03  0.79464778761E+03  0.00000000000E+00 0. -1.
         22    1    3    3    0    0 -0.15999507508E+02 -0.60675339129E+02 -0.25541477897E+03  0.26300986737E+03  0.00000000000E+00 0. -1.
         22    1    3    3    0    0  0.50250967984E+02  0.40385825873E+02 -0.43590644957E+03  0.44064794053E+03  0.00000000000E+00 0. -1.
</event>
<event>
 7    1  0.5950675E-006  0.8966813E+02  0.7818608E-02  0.1450201E+00
          2   -1    0    0  502    0  0.00000000000E+00  0.00000000000E+00  0.18415322613E+04  0.18415322613E+04  0.00000000000E+00 0. -1.
          1   -1    0    0  501    0 -0.00000000000E+00 -0.00000000000E+00 -0.12731781482E+03  0.12731781482E+03  0.00000000000E+00 0. -1.
         25    2    1    2    0    0  0.89341554526E+02  0.62564024228E+02  0.18859274472E+03  0.25117440925E+03  0.12500076004E+03 0.  0.
          2    1    1    2  501    0 -0.79640191215E+02 -0.37477557910E+02 -0.75721156089E+02  0.11610693727E+03  0.00000000000E+00 0. -1.
          1    1    1    2  502    0 -0.97013633110E+01 -0.25086466318E+02  0.16013428578E+04  0.16015687296E+04  0.00000000000E+00 0. -1.
         22    1    3    3    0    0  0.27107708796E+02  0.32024646694E+02  0.17572819067E+03  0.18066765861E+03  0.00000000000E+00 0.  1.
         22    1    3    3    0    0  0.62233845730E+02  0.30539377534E+02  0.12864554044E+02  0.70506750636E+02  0.00000000000E+00 0.  1.
</event>
<event>
 7    1  0.5950675E-006  0.5131413E+02  0.7818608E-02  0.1492359E+00
          2   -1    0    0  502    0  0.00000000000E+00  0.00000000000E+00  0.31801380429E+04  0.31801380429E+04  0.00000000000E+00 0. -1.
          1   -1    0    0  501    0 -0.00000000000E+00 -0.00000000000E+00 -0.64486616756E+02  0.64486616756E+02  0.00000000000E+00 0. -1.
         25    2    1    2    0    0  0.44684637289E+02 -0.85672222169E+01  0.43453445645E+03  0.45444384284E+03  0.12501559239E+03 0.  0.
          2    1    1    2  501    0 -0.12932906788E+02 -0.32272316954E+02 -0.48720321564E+02  0.59853423067E+02  0.00000000000E+00 0. -1.
          1    1    1    2  502    0 -0.31751730502E+02  0.40839539171E+02  0.27298372912E+04  0.27303273937E+04  0.00000000000E+00 0. -1.
         22    1    3    3    0    0  0.37128913206E+01 -0.39699363619E+02  0.36887097041E+03  0.37101970008E+03  0.00000000000E+00 0.  1.
         22    1    3    3    0    0  0.40971745969E+02  0.31132141402E+02  0.65663486043E+02  0.83424142761E+02  0.00000000000E+00 0.  1.
</event>
<event>
 7    1  0.5950675E-006  0.8963109E+02  0.7818608E-02  0.1451264E+00
          2   -1    0    0  502    0  0.00000000000E+00  0.00000000000E+00  0.14451309475E+04  0.14451309475E+04  0.00000000000E+00 0. -1.
          1   -1    0    0  501    0 -0.00000000000E+00 -0.00000000000E+00 -0.11357099454E+03  0.11357099454E+03  0.00000000000E+00 0. -1.
         25    2    1    2    0    0  0.46247908003E+02  0.10489293092E+03  0.31027049874E+03  0.35360194002E+03  0.12500061460E+03 0.  0.
          2    1    1    2  501    0 -0.37399713071E+02 -0.79703291227E+02 -0.70619422899E+02  0.11286476891E+03  0.00000000000E+00 0. -1.
          1    1    1    2  502    0 -0.88481949318E+01 -0.25189639691E+02  0.10919088771E+04  0.10922352331E+04  0.00000000000E+00 0. -1.
         22    1    3    3    0    0  0.87968585922E+02  0.87593308208E+02  0.21793350284E+03  0.25081082794E+03  0.00000000000E+00 0. -1.
         22    1    3    3    0    0 -0.41720677920E+02  0.17299622710E+02  0.92336995898E+02  0.10279111208E+03  0.00000000000E+00 0. -1.
</event>
<event>
 7    1  0.5950675E-006  0.3999753E+02  0.7818608E-02  0.1531652E+00
          2   -1    0    0  502    0  0.00000000000E+00  0.00000000000E+00  0.65033703394E+03  0.65033703394E+03  0.00000000000E+00 0. -1.
          1   -1    0    0  501    0 -0.00000000000E+00 -0.00000000000E+00 -0.34824585641E+03  0.34824585641E+03  0.00000000000E+00 0. -1.
         25    2    1    2    0    0  0.16110378309E+02 -0.33015080432E+02 -0.13745194327E+02  0.13100817135E+03  0.12499868307E+03 0.  0.
          2    1    1    2  501    0 -0.39602858851E+02  0.81626763379E+01 -0.27388943175E+03  0.27685815238E+03  0.00000000000E+00 0. -1.
          1    1    1    2  502    0  0.23492480541E+02  0.24852404094E+02  0.58972580361E+03  0.59071656662E+03  0.00000000000E+00 0. -1.
         22    1    3    3    0    0  0.43977883879E+02  0.31691125407E+02 -0.24945702993E+02  0.59671348216E+02  0.00000000000E+00 0. -1.
         22    1    3    3    0    0 -0.27867505570E+02 -0.64706205839E+02  0.11200508665E+02  0.71336823136E+02  0.00000000000E+00 0. -1.
</event>
<event>
 7    1  0.5950675E-006  0.6779181E+02  0.7818608E-02  0.1473223E+00
          2   -1    0    0  502    0  0.00000000000E+00  0.00000000000E+00  0.78061730504E+02  0.78061730504E+02  0.00000000000E+00 0. -1.
          1   -1    0    0  501    0 -0.00000000000E+00 -0.00000000000E+00 -0.35239807732E+03  0.35239807732E+03  0.00000000000E+00 0. -1.
         25    2    1    2    0    0  0.76095211281E+02  0.48220198648E+01 -0.93124362243E+02  0.17352548447E+03  0.12500085544E+03 0.  0.
          2    1    1    2  501    0 -0.16289416277E+02  0.25323192322E+02 -0.18728124747E+03  0.18968625360E+03  0.00000000000E+00 0. -1.
          1    1    1    2  502    0 -0.59805795004E+02 -0.30145212187E+02  0.60692628954E+01  0.67248069756E+02  0.00000000000E+00 0. -1.
         22    1    3    3    0    0 -0.21810626290E+02 -0.12911660698E+02 -0.65545187170E+02  0.70275073549E+02  0.00000000000E+00 0. -1.
         22    1    3    3    0    0  0.97905837571E+02  0.17733680562E+02 -0.27579175073E+02  0.10325041092E+03  0.00000000000E+00 0. -1.
</event>
<event>
 7    1  0.5950675E-006  0.2826675E+02  0.7818608E-02  0.1631703E+00
          2   -1    0    0  502    0  0.00000000000E+00  0.00000000000E+00  0.10868744195E+02  0.10868744195E+02  0.00000000000E+00 0. -1.
          1   -1    0    0  501    0 -0.00000000000E+00 -0.00000000000E+00 -0.18972040911E+04  0.18972040911E+04  0.00000000000E+00 0. -1.
         25    2    1    2    0    0 -0.39877250611E+02  0.18939725494E+02 -0.14179044382E+04  0.14240881856E+04  0.12500102482E+03 0.  0.
          2    1    1    2  501    0  0.25574441518E+02  0.52554396825E+01 -0.44913216114E+03  0.44989039762E+03  0.00000000000E+00 0. -1.
          1    1    1    2  502    0  0.14302809093E+02 -0.24195165177E+02 -0.19298747561E+02  0.34094252057E+02  0.00000000000E+00 0. -1.
         22    1    3    3    0    0 -0.33604331945E+02  0.68305575336E+02 -0.62409632642E+03  0.62872182036E+03  0.00000000000E+00 0. -1.
         22    1    3    3    0    0 -0.62729186656E+01 -0.49365849842E+02 -0.79380811181E+03  0.79536636528E+03  0.00000000000E+00 0. -1.
</event>
<event>
 7    1  0.5950675E-006  0.2050463E+03  0.7818608E-02  0.1187967E+00
          2   -1    0    0  502    0  0.00000000000E+00  0.00000000000E+00  0.37445204225E+04  0.37445204225E+04  0.00000000000E+00 0. -1.
          1   -1    0    0  501    0 -0.00000000000E+00 -0.00000000000E+00 -0.35856511539E+03  0.35856511539E+03  0.00000000000E+00 0. -1.
         25    2    1    2    0    0 -0.60788392210E+02  0.86344153964E+02  0.31636370227E+03  0.35617316056E+03  0.12499114623E+03 0.  0.
          2    1    1    2  501    0 -0.11313837629E+03  0.55146812181E+02 -0.32313676673E+03  0.34678355367E+03  0.00000000000E+00 0. -1.
          1    1    1    2  502    0  0.17392676850E+03 -0.14149096615E+03  0.33927283716E+04  0.34001288237E+04  0.00000000000E+00 0. -1.
         22    1    3    3    0    0 -0.82078412993E+02  0.70273000001E+02  0.13528003798E+03  0.17313534904E+03  0.00000000000E+00 0.  1.
         22    1    3    3    0    0  0.21290020783E+02  0.16071153964E+02  0.18108366429E+03  0.18303781152E+03  0.00000000000E+00 0.  1.
</event>
<event>
 7    1  0.5950675E-006  0.1361129E+03  0.7818608E-02  0.1404227E+00
          2   -1    0    0  502    0  0.00000000000E+00  0.00000000000E+00  0.19050059243E+04  0.19050059243E+04  0.00000000000E+00 0. -1.
          1   -1    0    0  501    0 -0.00000000000E+00 -0.00000000000E+00 -0.17928738769E+03  0.17928738769E+03  0.00000000000E+00 0. -1.
         25    2    1    2    0    0  0.82371782027E+02 -0.78432264902E+02  0.31383337831E+03  0.35644523039E+03  0.12500032910E+03 0.  0.
          2    1    1    2  501    0 -0.95317018858E+02  0.99988511516E+02 -0.12766094231E+03  0.18809665789E+03  0.00000000000E+00 0. -1.
          1    1    1    2  502    0  0.12945236831E+02 -0.21556246614E+02  0.15395461006E+04  0.15397514237E+04  0.00000000000E+00 0. -1.
         22    1    3    3    0    0  0.84395558460E+02 -0.54308521022E+02  0.31655619866E+03  0.33208410479E+03  0.00000000000E+00 0. -1.
         22    1    3    3    0    0 -0.20237764325E+01 -0.24123743880E+02 -0.27228203512E+01  0.24361125600E+02  0.00000000000E+00 0. -1.
</event>
<event>
 7    1  0.5950675E-006  0.1221338E+03  0.7818608E-02  0.1299390E+00
          2   -1    0    0  502    0  0.00000000000E+00  0.00000000000E+00  0.13523453594E+04  0.13523453594E+04  0.00000000000E+00 0. -1.
          1   -1    0    0  501    0 -0.00000000000E+00 -0.00000000000E+00 -0.14668032125E+04  0.14668032125E+04  0.00000000000E+00 0. -1.
         25    2    1    2    0    0  0.78818026645E+02  0.15060173293E+02  0.23650795345E+03  0.27928255624E+03  0.12499457599E+03 0.  0.
          2    1    1    2  501    0 -0.11482719034E+03  0.43172676262E+02 -0.14417377153E+04  0.14469474087E+04  0.00000000000E+00 0. -1.
          1    1    1    2  502    0  0.36009163699E+02 -0.58232849555E+02  0.10907719088E+04  0.10929186070E+04  0.00000000000E+00 0. -1.
         22    1    3    3    0    0  0.75895279607E+02  0.63004286808E+02  0.17876727902E+03  0.20417486053E+03  0.00000000000E+00 0. -1.
         22    1    3    3    0    0  0.29227470389E+01 -0.47944113515E+02  0.57740674430E+02  0.75107695709E+02  0.00000000000E+00 0. -1.
</event>
<event>
 7    1  0.5950675E-006  0.9936881E+02  0.7818608E-02  0.1445954E+00
          2   -1    0    0  502    0  0.00000000000E+00  0.00000000000E+00  0.65232632196E+03  0.65232632196E+03  0.00000000000E+00 0. -1.
          1   -1    0    0  501    0 -0.00000000000E+00 -0.00000000000E+00 -0.97734832568E+02  0.97734832568E+02  0.00000000000E+00 0. -1.
         25    2    1    2    0    0  0.36289060890E+02  0.80064576746E+02  0.22104112492E+03  0.26872287498E+03  0.12500228896E+03 0.  0.
          2    1    1    2  501    0 -0.61328084460E+02 -0.80605851347E+02 -0.38567580026E+02  0.10837848238E+03  0.00000000000E+00 0. -1.
          1    1    1    2  502    0  0.25039023570E+02  0.54127460114E+00  0.37211794449E+03  0.37295979715E+03  0.00000000000E+00 0. -1.
         22    1    3    3    0    0 -0.44733011730E+02  0.10362902545E+02  0.64414922341E+02  0.79105716025E+02  0.00000000000E+00 0.  1.
         22    1    3    3    0    0  0.81022072620E+02  0.69701674201E+02  0.15662620258E+03  0.18961715896E+03  0.00000000000E+00 0.  1.
</event>
<event>
 7    1  0.5950675E-006  0.1029564E+03  0.7818608E-02  0.1286082E+00
          2   -1    0    0  502    0  0.00000000000E+00  0.00000000000E+00  0.54618142800E+03  0.54618142800E+03  0.00000000000E+00 0. -1.
          1   -1    0    0  501    0 -0.00000000000E+00 -0.00000000000E+00 -0.18474195054E+04  0.18474195054E+04  0.00000000000E+00 0. -1.
         25    2    1    2    0    0 -0.14113977009E+03  0.73356595439E+02 -0.68488820346E+03  0.71414157820E+03  0.12499887072E+03 0.  0.
          2    1    1    2  501    0  0.38886347665E+02 -0.83324015461E+02 -0.11410735851E+04  0.11447724517E+04  0.00000000000E+00 0. -1.
          1    1    1    2  502    0  0.10225342242E+03  0.99674200225E+01  0.52472371109E+03  0.53468690356E+03  0.00000000000E+00 0. -1.
         22    1    3    3    0    0 -0.11627242677E+03  0.59724853460E+02 -0.66896966377E+03  0.68162067632E+03  0.00000000000E+00 0. -1.
         22    1    3    3    0    0 -0.24867343315E+02  0.13631741979E+02 -0.15918539687E+02  0.32520901874E+02  0.00000000000E+00 0. -1.
</event>
<event>
 7    1  0.5950675E-006  0.1058545E+03  0.7818608E-02  0.1464022E+00
          2   -1    0    0  502    0  0.00000000000E+00  0.00000000000E+00  0.40419125776E+03  0.40419125776E+03  0.00000000000E+00 0. -1.
          1   -1    0    0  501    0 -0.00000000000E+00 -0.00000000000E+00 -0.61159432374E+03  0.61159432374E+03  0.00000000000E+00 0. -1.
         25    2    1    2    0    0 -0.92818393917E+02 -0.58967339513E+00 -0.86339754183E+02  0.17803147716E+03  0.12500020697E+03 0.  0.
          2    1    1    2  501    0 -0.12528340660E+02 -0.16351590298E+02 -0.47123599292E+03  0.47168601299E+03  0.00000000000E+00 0. -1.
          1    1    1    2  502    0  0.10534673458E+03  0.16941263693E+02  0.35017268112E+03  0.36606809135E+03  0.00000000000E+00 0. -1.
         22    1    3    3    0    0 -0.40647550196E+02 -0.38069405712E+02  0.15335049805E+02  0.57763887861E+02  0.00000000000E+00 0. -1.
         22    1    3    3    0    0 -0.52170843720E+02  0.37479732317E+02 -0.10167480399E+03  0.12026758930E+03  0.00000000000E+00 0. -1.
</event>
<event>
 7    1  0.5950675E-006  0.8738570E+02  0.7818608E-02  0.1354103E+00
          2   -1    0    0  502    0  0.00000000000E+00  0.00000000000E+00  0.18163127521E+03  0.18163127521E+03  0.00000000000E+00 0. -1.
          1   -1    0    0  501    0 -0.00000000000E+00 -0.00000000000E+00 -0.34952745921E+04  0.34952745921E+04  0.00000000000E+00 0. -1.
         25    2    1    2    0    0 -0.79231229992E+02 -0.81935584938E+02 -0.27001649365E+03  0.31863026794E+03  0.12500125166E+03 0.  0.
          2    1    1    2  501    0  0.83980189792E+02  0.23146074772E+02 -0.31948085698E+04  0.31959959654E+04  0.00000000000E+00 0. -1.
          1    1    1    2  502    0 -0.47489597993E+01  0.58789510166E+02  0.15118174654E+03  0.16227963401E+03  0.00000000000E+00 0. -1.
         22    1    3    3    0    0 -0.90052038299E+02 -0.63133181470E+01 -0.11873673098E+03  0.14915642417E+03  0.00000000000E+00 0.  1.
         22    1    3    3    0    0  0.10820808307E+02 -0.75622266791E+02 -0.15127976268E+03  0.16947384377E+03  0.00000000000E+00 0.  1.
</event>
<event>
 7    1  0.5950675E-006  0.5716146E+02  0.7818608E-02  0.1410708E+00
          2   -1    0    0  502    0  0.00000000000E+00  0.00000000000E+00  0.19171283739E+03  0.19171283739E+03  0.00000000000E+00 0. -1.
          1   -1    0    0  501    0 -0.00000000000E+00 -0.00000000000E+00 -0.33016643313E+03  0.33016643313E+03  0.00000000000E+00 0. -1.
         25    2    1    2    0    0 -0.45342895285E+02  0.44159422646E+02 -0.15101942133E+03  0.20600418263E+03  0.12499929952E+03 0.  0.
          2    1    1    2  501    0  0.55470210707E+02  0.12724679378E+02 -0.14086434084E+03  0.15192637776E+03  0.00000000000E+00 0. -1.
          1    1    1    2  502    0 -0.10127315421E+02 -0.56884102024E+02  0.15343016643E+03  0.16394871012E+03  0.00000000000E+00 0. -1.
         22    1    3    3    0    0  0.38350088114E+02  0.29855023115E+02 -0.87045132387E+02  0.99694065700E+02  0.00000000000E+00 0. -1.
         22    1    3    3    0    0 -0.83692983400E+02  0.14304399531E+02 -0.63974288946E+02  0.10631011693E+03  0.00000000000E+00 0. -1.
</event>
<event>
 7    1  0.5950675E-006  0.7277069E+02  0.7818608E-02  0.1417466E+00
          2   -1    0    0  502    0  0.00000000000E+00  0.00000000000E+00  0.20783204180E+03  0.20783204180E+03  0.00000000000E+00 0. -1.
          1   -1    0    0  501    0 -0.00000000000E+00 -0.00000000000E+00 -0.14574388270E+03  0.14574388270E+03  0.00000000000E+00 0. -1.
         25    2    1    2    0    0 -0.49489635732E+02  0.10084759504E+02 -0.22587355593E+02  0.13669842547E+03  0.12500137789E+03 0.  0.
          2    1    1    2  501    0  0.84374416140E+02  0.14051527253E+02 -0.33082962869E+02  0.91711340352E+02  0.00000000000E+00 0. -1.
          1    1    1    2  502    0 -0.34884780408E+02 -0.24136286757E+02  0.11775847755E+03  0.12516615868E+03  0.00000000000E+00 0. -1.
         22    1    3    3    0    0 -0.16167525880E+02 -0.57269747488E+02 -0.66292544697E+01  0.59876204667E+02  0.00000000000E+00 0. -1.
         22    1    3    3    0    0 -0.33322109852E+02  0.67354506992E+02 -0.15958101123E+02  0.76822220800E+02  0.00000000000E+00 0. -1.
</event>
<event>
 7    1  0.5950675E-006  0.1547954E+03  0.7818608E-02  0.1262954E+00
          2   -1    0    0  502    0  0.00000000000E+00  0.00000000000E+00  0.14794125807E+03  0.14794125807E+03  0.00000000000E+00 0. -1.
          1   -1    0    0  501    0 -0.00000000000E+00 -0.00000000000E+00 -0.62330991790E+03  0.62330991790E+03  0.00000000000E+00 0. -1.
         25    2    1    2    0    0 -0.24422643679E+02  0.18142934618E+03 -0.18374955399E+03  0.28792429953E+03  0.12499372181E+03 0.  0.
          2    1    1    2  501    0 -0.42100202666E+02 -0.14393331601E+03 -0.35417316072E+03  0.38461390289E+03  0.00000000000E+00 0. -1.
          1    1    1    2  502    0  0.66522846344E+02 -0.37496030167E+02  0.62554054878E+02  0.98712973543E+02  0.00000000000E+00 0. -1.
         22    1    3    3    0    0  0.38122365788E+02  0.14222267704E+03 -0.11218230037E+03  0.18510935459E+03  0.00000000000E+00 0. -1.
         22    1    3    3    0    0 -0.62545009467E+02  0.39206669131E+02 -0.71567253621E+02  0.10281494495E+03  0.00000000000E+00 0. -1.
</event>
<event>
 7    1  0.5950675E-006  0.8394221E+02  0.7818608E-02  0.1348118E+00
          2   -1    0    0  502    0  0.00000000000E+00  0.00000000000E+00  0.31828798420E+03  0.31828798420E+03  0.00000000000E+00 0. -1.
          1   -1    0    0  501    0 -0.00000000000E+00 -0.00000000000E+00 -0.22164564662E+03  0.22164564662E+03  0.00000000000E+00 0. -1.
         25    2    1    2    0    0  0.80128045189E-02 -0.56064163077E+02  0.15161022142E+02  0.13783440207E+03  0.12500110141E+03 0.  0.
          2    1    1    2  501    0  0.63939397748E+02  0.65305503821E+02 -0.14233037980E+03  0.16914784193E+03  0.00000000000E+00 0. -1.
          1    1    1    2  502    0 -0.63947410552E+02 -0.92413407441E+01  0.22381169524E+03  0.23295138682E+03  0.00000000000E+00 0. -1.
         22    1    3    3    0    0  0.17145550162E+02 -0.89808216795E+01  0.64604311452E+02  0.67441397573E+02  0.00000000000E+00 0. -1.
         22    1    3    3    0    0 -0.17137537357E+02 -0.47083341397E+02 -0.49443289310E+02  0.70393004493E+02  0.00000000000E+00 0. -1.
</event>
<event>
 7    1  0.5950675E-006  0.8349621E+02  0.7818608E-02  0.1494565E+00
          2   -1    0    0  502    0  0.00000000000E+00  0.00000000000E+00  0.47304937940E+03  0.47304937940E+03  0.00000000000E+00 0. -1.
          1   -1    0    0  501    0 -0.00000000000E+00 -0.00000000000E+00 -0.65786220313E+03  0.65786220313E+03  0.00000000000E+00 0. -1.
         25    2    1    2    0    0 -0.61730689574E+02 -0.43918862498E+02 -0.74742415474E+02  0.16417079519E+03  0.12500430714E+03 0.  0.
          2    1    1    2  501    0  0.78317603458E+02  0.30970188638E+02 -0.53485013385E+03  0.54144017701E+03  0.00000000000E+00 0. -1.
          1    1    1    2  502    0 -0.16586913885E+02  0.12948673859E+02  0.42477972560E+03  0.42530061033E+03  0.00000000000E+00 0. -1.
         22    1    3    3    0    0 -0.94562652274E+01 -0.78046582554E+02 -0.62776065559E+02  0.10060578715E+03  0.00000000000E+00 0.  1.
         22    1    3    3    0    0 -0.52274424346E+02  0.34127720057E+02 -0.11966349915E+02  0.63565008041E+02  0.00000000000E+00 0.  1.
</event>
<event>
 7    1  0.5950675E-006  0.5096330E+02  0.7818608E-02  0.1492234E+00
          2   -1    0    0  502    0  0.00000000000E+00  0.00000000000E+00  0.80818141314E+03  0.80818141314E+03  0.00000000000E+00 0. -1.
          1   -1    0    0  501    0 -0.00000000000E+00 -0.00000000000E+00 -0.54065512263E+02  0.54065512263E+02  0.00000000000E+00 0. -1.
         25    2    1    2    0    0  0.32184158572E+01 -0.40960405889E+02  0.16593735738E+03  0.21177497930E+03  0.12500128891E+03 0.  0.
          2    1    1    2  501    0  0.34621487893E+02  0.53809568890E+01 -0.19822861594E+02  0.40256030141E+02  0.00000000000E+00 0. -1.
          1    1    1    2  502    0 -0.37839903750E+02  0.35579449000E+02  0.60800140508E+03  0.61021591596E+03  0.00000000000E+00 0. -1.
         22    1    3    3    0    0 -0.51399820324E+02  0.32282549519E+01  0.11176316510E+03  0.12305839359E+03  0.00000000000E+00 0. -1.
         22    1    3    3    0    0  0.54618236181E+02 -0.44188660841E+02  0.54174192284E+02  0.88716585710E+02  0.00000000000E+00 0. -1.
</event>
<event>
 7    1  0.5950675E-006  0.7610014E+02  0.7818608E-02  0.1386468E+00
          2   -1    0    0  502    0  0.00000000000E+00  0.00000000000E+00  0.75849168717E+03  0.75849168717E+03  0.00000000000E+00 0. -1.
          1   -1    0    0  501    0 -0.00000000000E+00 -0.00000000000E+00 -0.31273092693E+03  0.31273092693E+03  0.00000000000E+00 0. -1.
         25    2    1    2    0    0 -0.57384685863E+02  0.69606240892E+02 -0.99223309722E+02  0.18332475982E+03  0.12499868571E+03 0.  0.
          2    1    1    2  501    0  0.73199197638E+02 -0.20264458404E+02 -0.16205071041E+03  0.17896704600E+03  0.00000000000E+00 0. -1.
          1    1    1    2  502    0 -0.15814511775E+02 -0.49341782488E+02  0.70703478037E+03  0.70893080829E+03  0.00000000000E+00 0. -1.
         22    1    3    3    0    0 -0.15607027034E+02 -0.36100890506E+02 -0.35692832372E+02  0.53111504130E+02  0.00000000000E+00 0.  1.
         22    1    3    3    0    0 -0.41777658828E+02  0.10570713140E+03 -0.63530477349E+02  0.13021325569E+03  0.00000000000E+00 0.  1.
</event>
<event>
 7    1  0.5950675E-006  0.1196202E+03  0.7818608E-02  0.1278101E+00
          2   -1    0    0  502    0  0.00000000000E+00  0.00000000000E+00  0.18772606479E+04  0.18772606479E+04  0.00000000000E+00 0. -1.
          1   -1    0    0  501    0 -0.00000000000E+00 -0.00000000000E+00 -0.26589678341E+03  0.26589678341E+03  0.00000000000E+00 0. -1.
         25    2    1    2    0    0  0.50749891724E+02 -0.56976368297E+02  0.92904867571E+02  0.17343217013E+03  0.12500218063E+03 0.  0.
          2    1    1    2  501    0 -0.54096457570E+02 -0.66035401661E+02 -0.21529945129E+03  0.23160516989E+03  0.00000000000E+00 0. -1.
          1    1    1    2  502    0  0.33465658467E+01  0.12301176996E+03  0.17337584482E+04  0.17381200913E+04  0.00000000000E+00 0. -1.
         22    1    3    3    0    0  0.20076644615E+02 -0.38007686913E+02 -0.25279967277E+02  0.49867150199E+02  0.00000000000E+00 0. -1.
         22    1    3    3    0    0  0.30673247108E+02 -0.18968681384E+02  0.11818483485E+03  0.12356501993E+03  0.00000000000E+00 0. -1.
</event>
<event>
 7    1  0.5950675E-006  0.9467025E+02  0.7818608E-02  0.1479937E+00
          2   -1    0    0  502    0  0.00000000000E+00  0.00000000000E+00  0.31614755683E+03  0.31614755683E+03  0.00000000000E+00 0. -1.
          1   -1    0    0  501    0 -0.00000000000E+00 -0.00000000000E+00 -0.46134456200E+03  0.46134456200E+03  0.00000000000E+00 0. -1.
         25    2    1    2    0    0 -0.49412616988E+02  0.61910474312E+02 -0.13598780149E+03  0.20098032724E+03  0.12500358489E+03 0.  0.
          2    1    1    2  501    0  0.55616499784E+02 -0.81509936006E+02 -0.28415381030E+03  0.30079968853E+03  0.00000000000E+00 0. -1.
          1    1    1    2  502    0 -0.62038827959E+01  0.19599461694E+02  0.27494460662E+03  0.27571210306E+03  0.00000000000E+00 0. -1.
         22    1    3    3    0    0 -0.90499544146E+02  0.53226654315E+02 -0.10730407764E+03  0.15012464587E+03  0.00000000000E+00 0. -1.
         22    1    3    3    0    0  0.41086927158E+02  0.86838199968E+01 -0.28683723851E+02  0.50855681364E+02  0.00000000000E+00 0. -1.
</event>
<event>
 7    1  0.5950675E-006  0.7687980E+02  0.7818608E-02  0.1406426E+00
          2   -1    0    0  502    0  0.00000000000E+00  0.00000000000E+00  0.47796608185E+03  0.47796608185E+03  0.00000000000E+00 0. -1.
          1   -1    0    0  501    0 -0.00000000000E+00 -0.00000000000E+00 -0.54559083904E+03  0.54559083904E+03  0.00000000000E+00 0. -1.
         25    2    1    2    0    0 -0.13992103882E+02  0.35788893290E+02 -0.91852077146E+01  0.13107281676E+03  0.12497636336E+03 0.  0.
          2    1    1    2  501    0 -0.35075185744E+02  0.26158137424E+02 -0.47069419970E+03  0.47272354124E+03  0.00000000000E+00 0. -1.
          1    1    1    2  502    0  0.49067289626E+02 -0.61947030714E+02  0.41225465022E+03  0.41976056289E+03  0.00000000000E+00 0. -1.
         22    1    3    3    0    0  0.22575278987E+01  0.65458343904E+02 -0.46788695744E+02  0.80492690776E+02  0.00000000000E+00 0.  1.
         22    1    3    3    0    0 -0.16249631781E+02 -0.29669450614E+02  0.37603488030E+02  0.50580125986E+02  0.00000000000E+00 0.  1.
</event>
<event>
 7    1  0.5950675E-006  0.8825017E+02  0.7818608E-02  0.1357251E+00
          2   -1    0    0  502    0  0.00000000000E+00  0.00000000000E+00  0.33495157737E+04  0.33495157737E+04  0.00000000000E+00 0. -1.
          1   -1    0    0  501    0 -0.00000000000E+00 -0.00000000000E+00 -0.29989124751E+03  0.29989124751E+03  0.00000000000E+00 0. -1.
         25    2    1    2    0    0 -0.75235906302E+02 -0.85949395318E+02  0.13272783792E+03  0.21515136481E+03  0.12500276265E+03 0.  0.
          2    1    1    2  501    0  0.82595276238E+02  0.29558967717E+02 -0.25097944071E+03  0.26586912549E+03  0.00000000000E+00 0. -1.
          1    1    1    2  502    0 -0.73593699361E+01  0.56390427601E+02  0.31678761290E+04  0.31683865309E+04  0.00000000000E+00 0. -1.
         22    1    3    3    0    0 -0.41627105368E+01 -0.66421950278E+02  0.38233270320E+01  0.66661994175E+02  0.00000000000E+00 0.  1.
         22    1    3    3    0    0 -0.71073195765E+02 -0.19527445040E+02  0.12890451088E+03  0.14848937064E+03  0.00000000000E+00 0.  1.
</event>
<event>
 7    1  0.5950675E-006  0.6165396E+02  0.7818608E-02  0.1428435E+00
          2   -1    0    0  502    0  0.00000000000E+00  0.00000000000E+00  0.20934125923E+03  0.20934125923E+03  0.00000000000E+00 0. -1.
          1   -1    0    0  501    0 -0.00000000000E+00 -0.00000000000E+00 -0.10445670205E+04  0.10445670205E+04  0.00000000000E+00 0. -1.
         25    2    1    2    0    0  0.74393108236E+02 -0.17849171168E+02 -0.55671831532E+02  0.15677077437E+03  0.12499918162E+03 0.  0.
          2    1    1    2  501    0 -0.39233369055E+02  0.47565443278E+02 -0.93397115692E+03  0.93600419369E+03  0.00000000000E+00 0. -1.
          1    1    1    2  502    0 -0.35159739181E+02 -0.29716272111E+02  0.15441722717E+03  0.16113331168E+03  0.00000000000E+00 0. -1.
         22    1    3    3    0    0  0.50165699109E+01 -0.30231086291E+02  0.31986380871E+02  0.44296874757E+02  0.00000000000E+00 0.  1.
         22    1    3    3    0    0  0.69376538325E+02  0.12381915123E+02 -0.87658212403E+02  0.11247389961E+03  0.00000000000E+00 0.  1.
</event>
<event>
 7    1  0.5950675E-006  0.1257508E+03  0.7818608E-02  0.1259895E+00
          2   -1    0    0  502    0  0.00000000000E+00  0.00000000000E+00  0.30367977021E+03  0.30367977021E+03  0.00000000000E+00 0. -1.
          1   -1    0    0  501    0 -0.00000000000E+00 -0.00000000000E+00 -0.26623524531E+03  0.26623524531E+03  0.00000000000E+00 0. -1.
         25    2    1    2    0    0  0.10179717700E+03 -0.17926274382E+03  0.17621045196E+02  0.24172627075E+03  0.12499316850E+03 0.  0.
          2    1    1    2  501    0 -0.40059198136E+02  0.10462554461E+03 -0.11606321495E+03  0.16131309248E+03  0.00000000000E+00 0. -1.
          1    1    1    2  502    0 -0.61737978868E+02  0.74637199204E+02  0.13588669466E+03  0.16687565228E+03  0.00000000000E+00 0. -1.
         22    1    3    3    0    0  0.11884101865E+02 -0.12199330324E+03 -0.28070656248E+02  0.12574402433E+03  0.00000000000E+00 0. -1.
         22    1    3    3    0    0  0.89913075139E+02 -0.57269440581E+02  0.45691701444E+02  0.11598224643E+03  0.00000000000E+00 0. -1.
</event>
<event>
 7    1  0.5950675E-006  0.6485146E+02  0.7818608E-02  0.1517212E+00
          2   -1    0    0  502    0  0.00000000000E+00  0.00000000000E+00  0.27238763727E+04  0.27238763727E+04  0.00000000000E+00 0. -1.
          1   -1    0    0  501    0 -0.00000000000E+00 -0.00000000000E+00 -0.14925611360E+04  0.14925611360E+04  0.00000000000E+00 0. -1.
         25    2    1    2    0    0 -0.73466794815E+02  0.35735064741E+02  0.10484156061E+04  0.10589976609E+04  0.12500559192E+03 0.  0.
          2    1    1    2  501    0  0.50722243611E+02 -0.40393956176E+02 -0.14864826186E+04  0.14878961635E+04  0.00000000000E+00 0. -1.
          1    1    1    2  502    0  0.22744551204E+02  0.46588914343E+01  0.16693822492E+04  0.16695436843E+04  0.00000000000E+00 0. -1.
         22    1    3    3    0    0 -0.87957649473E+02  0.55954137835E+02  0.99043523250E+03  0.99590630253E+03  0.00000000000E+00 0. -1.
         22    1    3    3    0    0  0.14490854657E+02 -0.20219073094E+02  0.57980373579E+02  0.63091358409E+02  0.00000000000E+00 0. -1.
</event>
<event>
 7    1  0.5950675E-006  0.3655114E+02  0.7818608E-02  0.1546183E+00
          2   -1    0    0  502    0  0.00000000000E+00  0.00000000000E+00  0.37418012817E+03  0.37418012817E+03  0.00000000000E+00 0. -1.
          1   -1    0    0  501    0 -0.00000000000E+00 -0.00000000000E+00 -0.21737360781E+03  0.21737360781E+03  0.00000000000E+00 0. -1.
         25    2    1    2    0    0 -0.20974946072E+02 -0.77762405599E+01  0.11574216218E+03  0.17181817818E+03  0.12499927987E+03 0.  0.
          2    1    1    2  501    0  0.16209530619E+02 -0.29934003161E+02 -0.18621441260E+03  0.18930029289E+03  0.00000000000E+00 0. -1.
          1    1    1    2  502    0  0.47654154528E+01  0.37710243721E+02  0.22727877078E+03  0.23043526491E+03  0.00000000000E+00 0. -1.
         22    1    3    3    0    0 -0.25244424575E+02 -0.46917235028E+02  0.12089047003E+03  0.13210985452E+03  0.00000000000E+00 0. -1.
         22    1    3    3    0    0  0.42694785028E+01  0.39140994468E+02 -0.51483078542E+01  0.39708323667E+02  0.00000000000E+00 0. -1.
</event>
<event>
 7    1  0.5950675E-006  0.4616531E+02  0.7818608E-02  0.1544190E+00
          2   -1    0    0  502    0  0.00000000000E+00  0.00000000000E+00  0.18793721963E+04  0.18793721963E+04  0.00000000000E+00 0. -1.
          1   -1    0    0  501    0 -0.00000000000E+00 -0.00000000000E+00 -0.34946549293E+03  0.34946549293E+03  0.00000000000E+00 0. -1.
         25    2    1    2    0    0 -0.16104695186E+02 -0.41842597673E+02  0.49092555382E+02  0.14157881268E+03  0.12499726804E+03 0.  0.
          2    1    1    2  501    0  0.38347011560E+02  0.26011218154E+02 -0.30134698597E+03  0.30488863987E+03  0.00000000000E+00 0. -1.
          1    1    1    2  502    0 -0.22242316374E+02  0.15831379520E+02  0.17821611339E+04  0.17823702367E+04  0.00000000000E+00 0. -1.
         22    1    3    3    0    0  0.13952420547E+01 -0.60594408067E+02  0.80666598658E+02  0.10089959925E+03  0.00000000000E+00 0. -1.
         22    1    3    3    0    0 -0.17499937240E+02  0.18751810393E+02 -0.31574043276E+02  0.40679213430E+02  0.00000000000E+00 0. -1.
</event>
<event>
 7    1  0.5950675E-006  0.5483296E+02  0.7818608E-02  0.1433896E+00
          2   -1    0    0  502    0  0.00000000000E+00  0.00000000000E+00  0.14571231192E+03  0.14571231192E+03  0.00000000000E+00 0. -1.
          1   -1    0    0  501    0 -0.00000000000E+00 -0.00000000000E+00 -0.17918439752E+04  0.17918439752E+04  0.00000000000E+00 0. -1.
         25    2    1    2    0    0 -0.82949887826E+02 -0.45504435113E+02 -0.89799220049E+03  0.91157409956E+03  0.12500403731E+03 0.  0.
          2    1    1    2  501    0  0.50386533929E+02  0.80024696350E+01 -0.88186072630E+03  0.88333526076E+03  0.00000000000E+00 0. -1.
          1    1    1    2  502    0  0.32563353898E+02  0.37501965478E+02  0.13372126347E+03  0.14264692684E+03  0.00000000000E+00 0. -1.
         22    1    3    3    0    0 -0.75185460557E+02  0.81662570116E+01 -0.75272684921E+03  0.75651652378E+03  0.00000000000E+00 0.  1.
         22    1    3    3    0    0 -0.77644272690E+01 -0.53670692124E+02 -0.14526535128E+03  0.15505757578E+03  0.00000000000E+00 0.  1.
</event>
<event>
 7    1  0.5950675E-006  0.1264089E+03  0.7818608E-02  0.1243518E+00
          2   -1    0    0  502    0  0.00000000000E+00  0.00000000000E+00  0.80181819852E+03  0.80181819852E+03  0.00000000000E+00 0. -1.
          1   -1    0    0  501    0 -0.00000000000E+00 -0.00000000000E+00 -0.22179880648E+03  0.22179880648E+03  0.00000000000E+00 0. -1.
         25    2    1    2    0    0 -0.80312513874E+02  0.99398615057E+02  0.93358194488E+02  0.20167067918E+03  0.12500050320E+03 0.  0.
          2    1    1    2  501    0  0.10962841994E+03  0.29132067698E+02 -0.14078696181E+03  0.18079833086E+03  0.00000000000E+00 0. -1.
          1    1    1    2  502    0 -0.29315906061E+02 -0.12853068276E+03  0.62744815936E+03  0.64114799496E+03  0.00000000000E+00 0. -1.
         22    1    3    3    0    0 -0.60735683252E+02  0.98623085845E+02  0.10241982306E+02  0.11627654313E+03  0.00000000000E+00 0. -1.
         22    1    3    3    0    0 -0.19576830622E+02  0.77552921239E+00  0.83116212182E+02  0.85394136042E+02  0.00000000000E+00 0. -1.
</event>
<event>
 7    1  0.5950675E-006  0.7523227E+02  0.7818608E-02  0.1382500E+00
          2   -1    0    0  502    0  0.00000000000E+00  0.00000000000E+00  0.15547114905E+04  0.15547114905E+04  0.00000000000E+00 0. -1.
          1   -1    0    0  501    0 -0.00000000000E+00 -0.00000000000E+00 -0.52929926296E+03  0.52929926296E+03  0.00000000000E+00 0. -1.
         25    2    1    2    0    0 -0.34210208014E+02 -0.25994738044E+02  0.51921761143E+03  0.53577815801E+03  0.12500096739E+03 0.  0.
          2    1    1    2  501    0 -0.49010798293E+02  0.22963788882E+02 -0.51791868741E+03  0.52073905242E+03  0.00000000000E+00 0. -1.
          1    1    1    2  502    0  0.83221006307E+02  0.30309491621E+01  0.10241133035E+04  0.10274935430E+04  0.00000000000E+00 0. -1.
         22    1    3    3    0    0 -0.18483026473E+02  0.47999270693E+02  0.14145899892E+03  0.15051976824E+03  0.00000000000E+00 0.  1.
         22    1    3    3    0    0 -0.15727181541E+02 -0.73994008737E+02  0.37775861250E+03  0.38525838977E+03  0.00000000000E+00 0.  1.
</event>
<event>
 7    1  0.5950675E-006  0.6296009E+02  0.7818608E-02  0.1418161E+00
          2   -1    0    0  502    0  0.00000000000E+00  0.00000000000E+00  0.61968696398E+02  0.61968696398E+02  0.00000000000E+00 0. -1.
          1   -1    0    0  501    0 -0.00000000000E+00 -0.00000000000E+00 -0.70643657630E+03  0.70643657630E+03  0.00000000000E+00 0. -1.
         25    2    1    2    0    0  0.17532234516E+02  0.34952284546E+02 -0.44181676866E+03  0.46082124032E+03  0.12500046807E+03 0.  0.
          2    1    1    2  501    0 -0.62815942984E+02 -0.53056381061E+02 -0.23506180407E+03  0.24902785787E+03  0.00000000000E+00 0. -1.
          1    1    1    2  502    0  0.45283708469E+02  0.18104096514E+02  0.32410692827E+02  0.58556174506E+02  0.00000000000E+00 0. -1.
         22    1    3    3    0    0 -0.24433936943E+02  0.79982023396E+00 -0.37048344654E+03  0.37128916110E+03  0.00000000000E+00 0. -1.
         22    1    3    3    0    0  0.41966171458E+02  0.34152464312E+02 -0.71333322119E+02  0.89532079223E+02  0.00000000000E+00 0. -1.
</event>
<event>
 7    1  0.5950675E-006  0.5075088E+02  0.7818608E-02  0.1479548E+00
          2   -1    0    0  502    0  0.00000000000E+00  0.00000000000E+00  0.85521547356E+03  0.85521547356E+03  0.00000000000E+00 0. -1.
          1   -1    0    0  501    0 -0.00000000000E+00 -0.00000000000E+00 -0.15685911603E+03  0.15685911603E+03  0.00000000000E+00 0. -1.
         25    2    1    2    0    0 -0.75367772918E+02  0.28054322774E+02  0.17424494728E+03  0.22902741765E+03  0.12499964066E+03 0.  0.
          2    1    1    2  501    0  0.25477036704E+02 -0.28803358957E+02 -0.12563473944E+03  0.13138797753E+03  0.00000000000E+00 0. -1.
          1    1    1    2  502    0  0.49890736215E+02  0.74903618388E+00  0.64974614969E+03  0.65165919441E+03  0.00000000000E+00 0. -1.
         22    1    3    3    0    0 -0.22023733373E+02 -0.48244386281E+02  0.43878873713E+02  0.68832559139E+02  0.00000000000E+00 0.  1.
         22    1    3    3    0    0 -0.53344039545E+02  0.76298709054E+02  0.13036607356E+03  0.16019485852E+03  0.00000000000E+00 0.  1.
</event>
<event>
 7    1  0.5950675E-006  0.8946953E+02  0.7818608E-02  0.1328168E+00
          2   -1    0    0  502    0  0.00000000000E+00  0.00000000000E+00  0.18885252956E+03  0.18885252956E+03  0.00000000000E+00 0. -1.
          1   -1    0    0  501    0 -0.00000000000E+00 -0.00000000000E+00 -0.18330691540E+04  0.18330691540E+04  0.00000000000E+00 0. -1.
         25    2    1    2    0    0  0.99697141600E+02 -0.20830276692E+02 -0.51700428129E+02  0.16932381139E+03  0.12499679341E+03 0.  0.
          2    1    1    2  501    0 -0.22018372614E+02  0.68647375569E+02 -0.17057055450E+04  0.17072283612E+04  0.00000000000E+00 0. -1.
          1    1    1    2  502    0 -0.77678768986E+02 -0.47817098878E+02  0.11318934865E+03  0.14536951106E+03  0.00000000000E+00 0. -1.
         22    1    3    3    0    0 -0.28469946404E+02  0.56396567988E+01 -0.18109981624E+02  0.34209867166E+02  0.00000000000E+00 0. -1.
         22    1    3    3    0    0  0.12816708800E+03 -0.26469933490E+02 -0.33590446505E+02  0.13511394422E+03  0.00000000000E+00 0. -1.
</event>
<event>
 7    1  0.5950675E-006  0.2524275E+03  0.7818608E-02  0.1254877E+00
          2   -1    0    0  502    0  0.00000000000E+00  0.00000000000E+00  0.95254132024E+03  0.95254132024E+03  0.00000000000E+00 0. -1.
          1   -1    0    0  501    0 -0.00000000000E+00 -0.00000000000E+00 -0.97997469583E+03  0.97997469583E+03  0.00000000000E+00 0. -1.
         25    2    1    2    0    0 -0.24778741532E+03  0.81394846695E+02  0.54184525451E+02  0.29425310736E+03  0.12500081655E+03 0.  0.
          2    1    1    2  501    0 -0.20478239477E+01 -0.50662042267E+02 -0.83880269226E+03  0.84033373885E+03  0.00000000000E+00 0. -1.
          1    1    1    2  502    0  0.24983523927E+03 -0.30732804428E+02  0.75718479122E+03  0.79792916985E+03  0.00000000000E+00 0. -1.
         22    1    3    3    0    0 -0.66672926497E+02  0.60674737211E+02 -0.27846293174E+02  0.94351040836E+02  0.00000000000E+00 0. -1.
         22    1    3    3    0    0 -0.18111448882E+03  0.20720109483E+02  0.82030818625E+02  0.19990206653E+03  0.00000000000E+00 0. -1.
</event>
<event>
 7    1  0.6245638E-006  0.8004986E+02  0.7818608E-02  0.1368335E+00
          2   -1    0    0  502    0  0.00000000000E+00  0.00000000000E+00  0.24225968796E+04  0.24225968796E+04  0.00000000000E+00 0. -1.
          1   -1    0    0  501    0 -0.00000000000E+00 -0.00000000000E+00 -0.60396644371E+03  0.60396644371E+03  0.00000000000E+00 0. -1.
         25    2    1    2    0    0 -0.25623799464E+02  0.13279651526E+03 -0.59355912444E+02  0.19349667022E+03  0.12500537381E+03 0.  0.
          2    1    1    2  501    0  0.36798151167E+00 -0.57139598745E+02 -0.47515272073E+03  0.47857619788E+03  0.00000000000E+00 0. -1.
          1    1    1    2  502    0  0.25255817952E+02 -0.75656916516E+02  0.23531390691E+04  0.23544904553E+04  0.00000000000E+00 0. -1.
         22    1    3    3    0    0 -0.13556577673E+02  0.58677270844E+01 -0.64225696122E+02  0.65902587671E+02  0.00000000000E+00 0. -1.
         22    1    3    3    0    0 -0.12067221791E+02  0.12692878818E+03  0.48697836782E+01  0.12759408255E+03  0.00000000000E+00 0. -1.
</event>
<event>
 7    1  0.5950675E-006  0.9191158E+02  0.7818608E-02  0.1323980E+00
          2   -1    0    0  502    0  0.00000000000E+00  0.00000000000E+00  0.79175669522E+03  0.79175669522E+03  0.00000000000E+00 0. -1.
          1   -1    0    0  501    0 -0.00000000000E+00 -0.00000000000E+00 -0.63966129919E+03  0.63966129919E+03  0.00000000000E+00 0. -1.
         25    2    1    2    0    0  0.14881133766E+03 -0.51802405287E+02 -0.60517958817E+02  0.21003645299E+03  0.12499833933E+03 0.  0.
          2    1    1    2  501    0 -0.72783454799E+02  0.25085410260E+01 -0.49886694966E+03  0.50415469604E+03  0.00000000000E+00 0. -1.
          1    1    1    2  502    0 -0.76027882857E+02  0.49293864261E+02  0.71148030451E+03  0.71722684538E+03  0.00000000000E+00 0. -1.
         22    1    3    3    0    0  0.11126856874E+03 -0.38405058890E+02 -0.99613441031E+02  0.15420272557E+03  0.00000000000E+00 0. -1.
         22    1    3    3    0    0  0.37542768914E+02 -0.13397346397E+02  0.39095482214E+02  0.55833727422E+02  0.00000000000E+00 0. -1.
</event>
<event>
 7    1  0.5950675E-006  0.6968970E+02  0.7818608E-02  0.1394419E+00
          2   -1    0    0  502    0  0.00000000000E+00  0.00000000000E+00  0.29148988826E+03  0.29148988826E+03  0.00000000000E+00 0. -1.
          1   -1    0    0  501    0 -0.00000000000E+00 -0.00000000000E+00 -0.36506804569E+03  0.36506804569E+03  0.00000000000E+00 0. -1.
         25    2    1    2    0    0 -0.40521441744E+01 -0.23716511617E+02  0.37207373398E+02  0.13262363785E+03  0.12500299151E+03 0.  0.
          2    1    1    2  501    0 -0.26779257861E+02  0.66924983801E+02 -0.30974177169E+03  0.31801894164E+03  0.00000000000E+00 0. -1.
          1    1    1    2  502    0  0.30831402035E+02 -0.43208472184E+02  0.19895624087E+03  0.20591535446E+03  0.00000000000E+00 0. -1.
         22    1    3    3    0    0 -0.44795179358E+02  0.25675267385E+02 -0.10610481206E+02  0.52710622842E+02  0.00000000000E+00 0.  1.
         22    1    3    3    0    0  0.40743035184E+02 -0.49391779002E+02  0.47817854604E+02  0.79913015009E+02  0.00000000000E+00 0.  1.
</event>
<event>
 7    1  0.5950675E-006  0.6077561E+02  0.7818608E-02  0.1462331E+00
          2   -1    0    0  502    0  0.00000000000E+00  0.00000000000E+00  0.53077435388E+03  0.53077435388E+03  0.00000000000E+00 0. -1.
          1   -1    0    0  501    0 -0.00000000000E+00 -0.00000000000E+00 -0.19306908403E+03  0.19306908403E+03  0.00000000000E+00 0. -1.
         25    2    1    2    0    0 -0.37772115527E+02  0.25208381485E+01 -0.41195614818E+02  0.13694948132E+03  0.12499997767E+03 0.  0.
          2    1    1    2  501    0  0.58152146214E+02 -0.32583888772E+02 -0.92544266476E+02  0.11405184424E+03  0.00000000000E+00 0. -1.
          1    1    1    2  502    0 -0.20380030686E+02  0.30063050624E+02  0.47144515114E+03  0.47284211234E+03  0.00000000000E+00 0. -1.
         22    1    3    3    0    0 -0.81314702153E+02  0.19572118795E+02 -0.22703678358E+02  0.86663750388E+02  0.00000000000E+00 0.  1.
         22    1    3    3    0    0  0.43542586626E+02 -0.17051280646E+02 -0.18491936460E+02  0.50285730936E+02  0.00000000000E+00 0.  1.
</event>
<event>
 7    1  0.5950675E-006  0.1056938E+03  0.7818608E-02  0.1273475E+00
          2   -1    0    0  502    0  0.00000000000E+00  0.00000000000E+00  0.49553094348E+03  0.49553094348E+03  0.00000000000E+00 0. -1.
          1   -1    0    0  501    0 -0.00000000000E+00 -0.00000000000E+00 -0.13237909317E+04  0.13237909317E+04  0.00000000000E+00 0. -1.
         25    2    1    2    0    0  0.53613642754E+02  0.52029681407E+02 -0.97229406851E+01  0.14594992836E+03  0.12500134230E+03 0.  0.
          2    1    1    2  501    0 -0.94669566505E+02  0.46998480821E+02 -0.12369432887E+04  0.12414507173E+04  0.00000000000E+00 0. -1.
          1    1    1    2  502    0  0.41055923751E+02 -0.99028162228E+02  0.41840624121E+03  0.43192122947E+03  0.00000000000E+00 0. -1.
         22    1    3    3    0    0 -0.19288127840E+02  0.40660217870E+02 -0.45459876924E+02  0.63967848196E+02  0.00000000000E+00 0. -1.
         22    1    3    3    0    0  0.72901770595E+02  0.11369463537E+02  0.35736936239E+02  0.81982080168E+02  0.00000000000E+00 0. -1.
</event>
<event>
 7    1  0.5950675E-006  0.1423890E+03  0.7818608E-02  0.1262023E+00
          2   -1    0    0  502    0  0.00000000000E+00  0.00000000000E+00  0.16536924150E+04  0.16536924150E+04  0.00000000000E+00 0. -1.
          1   -1    0    0  501    0 -0.00000000000E+00 -0.00000000000E+00 -0.55014603790E+03  0.55014603790E+03  0.00000000000E+00 0. -1.
         25    2    1    2    0    0  0.16827507266E+03  0.10502495076E+03  0.84851007082E+02  0.24935437555E+03  0.12502468094E+03 0.  0.
          2    1    1    2  501    0 -0.84712024339E+02 -0.11099272697E+03 -0.45626256811E+03  0.47714886939E+03  0.00000000000E+00 0. -1.
          1    1    1    2  502    0 -0.83563048318E+02  0.59677762135E+01  0.14749579382E+04  0.14773352080E+04  0.00000000000E+00 0. -1.
         22    1    3    3    0    0  0.88005607283E+02  0.34226869801E+02  0.10416562763E+03  0.14059496260E+03  0.00000000000E+00 0. -1.
         22    1    3    3    0    0  0.80269465374E+02  0.70798080957E+02 -0.19314620545E+02  0.10875941295E+03  0.00000000000E+00 0. -1.
</event>
<event>
 7    1  0.5950675E-006  0.8541359E+02  0.7818608E-02  0.1318283E+00
          2   -1    0    0  502    0  0.00000000000E+00  0.00000000000E+00  0.15356166091E+04  0.15356166091E+04  0.00000000000E+00 0. -1.
          1   -1    0    0  501    0 -0.00000000000E+00 -0.00000000000E+00 -0.10196623092E+03  0.10196623092E+03  0.00000000000E+00 0. -1.
         25    2    1    2    0    0 -0.70703701759E+02  0.38681296287E+01  0.18937509504E+03  0.23769374267E+03  0.12498565042E+03 0.  0.
          2    1    1    2  501    0  0.31048194452E+02 -0.79570662701E+02 -0.52527962452E+02  0.10027296535E+03  0.00000000000E+00 0. -1.
          1    1    1    2  502    0  0.39655507307E+02  0.75702533073E+02  0.12968032456E+04  0.12996161320E+04  0.00000000000E+00 0. -1.
         22    1    3    3    0    0 -0.71800889217E+02  0.11847788290E+02  0.20640347866E+03  0.21885642276E+03  0.00000000000E+00 0.  1.
         22    1    3    3    0    0  0.10971874582E+01 -0.79796586613E+01 -0.17028383618E+02  0.18837319908E+02  0.00000000000E+00 0.  1.
</event>
<event>
 7    1  0.7761867E-006  0.1358832E+03  0.7818608E-02  0.1348620E+00
          2   -1    0    0  502    0  0.00000000000E+00  0.00000000000E+00  0.67772885841E+03  0.67772885841E+03  0.00000000000E+00 0. -1.
          1   -1    0    0  501    0 -0.00000000000E+00 -0.00000000000E+00 -0.16059340688E+04  0.16059340688E+04  0.00000000000E+00 0. -1.
         25    2    1    2    0    0  0.89736372993E+02 -0.12700157798E+03 -0.28745665017E+03  0.34991191225E+03  0.12500001262E+03 0.  0.
          2    1    1    2  501    0  0.12305071773E+02  0.37789884339E+02 -0.12798338578E+04  0.12804507775E+04  0.00000000000E+00 0. -1.
          1    1    1    2  502    0 -0.10204144477E+03  0.89211693646E+02  0.63908529754E+03  0.65330023746E+03  0.00000000000E+00 0. -1.
         22    1    3    3    0    0  0.55511755262E+02 -0.24103249075E+02 -0.24168306487E+02  0.65166161669E+02  0.00000000000E+00 0. -1.
         22    1    3    3    0    0  0.34224617731E+02 -0.10289832891E+03 -0.26328834368E+03  0.28474575058E+03  0.00000000000E+00 0. -1.
</event>
<event>
 7    1  0.5950675E-006  0.3082584E+02  0.7818608E-02  0.1594849E+00
          2   -1    0    0  502    0  0.00000000000E+00  0.00000000000E+00  0.73099811780E+03  0.73099811780E+03  0.00000000000E+00 0. -1.
          1   -1    0    0  501    0 -0.00000000000E+00 -0.00000000000E+00 -0.66712409516E+02  0.66712409516E+02  0.00000000000E+00 0. -1.
         25    2    1    2    0    0  0.54693769203E+02 -0.11205234165E+02  0.60887687627E+03  0.62407645407E+03  0.12499361748E+03 0.  0.
          2    1    1    2  501    0 -0.30159084997E+02 -0.56622845939E+01 -0.52982857945E+02  0.61227568224E+02  0.00000000000E+00 0. -1.
          1    1    1    2  502    0 -0.24534684206E+02  0.16867518759E+02  0.10839168996E+03  0.11240650502E+03  0.00000000000E+00 0. -1.
         22    1    3    3    0    0 -0.38193932967E+02 -0.18411276884E+02  0.15235683775E+03  0.15814663336E+03  0.00000000000E+00 0.  1.
         22    1    3    3    0    0  0.92887702170E+02  0.72060427187E+01  0.45652003852E+03  0.46592982072E+03  0.00000000000E+00 0.  1.
</event>
<event>
 7    1  0.5950675E-006  0.1014891E+03  0.7818608E-02  0.1336057E+00
          2   -1    0    0  502    0  0.00000000000E+00  0.00000000000E+00  0.56191216767E+02  0.56191216767E+02  0.00000000000E+00 0. -1.
          1   -1    0    0  501    0 -0.00000000000E+00 -0.00000000000E+00 -0.30196369312E+04  0.30196369312E+04  0.00000000000E+00 0. -1.
         25    2    1    2    0    0 -0.66232676612E+02 -0.31571815800E+02 -0.98972794870E+02  0.17551177972E+03  0.12500089477E+03 0.  0.
          2    1    1    2  501    0  0.51001229386E+02  0.88889266350E+02 -0.28297245012E+04  0.28315796262E+04  0.00000000000E+00 0. -1.
          1    1    1    2  502    0  0.15231447226E+02 -0.57317450550E+02 -0.34748418361E+02  0.68736742000E+02  0.00000000000E+00 0. -1.
         22    1    3    3    0    0 -0.81619048818E+02  0.20123230547E+02 -0.85531302664E+02  0.11992588242E+03  0.00000000000E+00 0.  1.
         22    1    3    3    0    0  0.15386372206E+02 -0.51695046348E+02 -0.13441492206E+02  0.55585897306E+02  0.00000000000E+00 0.  1.
</event>
<event>
 7    1  0.5950675E-006  0.1892463E+03  0.7818608E-02  0.1195864E+00
          2   -1    0    0  502    0  0.00000000000E+00  0.00000000000E+00  0.70631414329E+03  0.70631414329E+03  0.00000000000E+00 0. -1.
          1   -1    0    0  501    0 -0.00000000000E+00 -0.00000000000E+00 -0.16496913878E+04  0.16496913878E+04  0.00000000000E+00 0. -1.
         25    2    1    2    0    0 -0.91757001164E+02 -0.95952598388E+02  0.30865364435E+02  0.18494593881E+03  0.12500432457E+03 0.  0.
          2    1    1    2  501    0  0.19275745181E+03  0.22281433414E+02 -0.15600450208E+04  0.15720662723E+04  0.00000000000E+00 0. -1.
          1    1    1    2  502    0 -0.10100045065E+03  0.73671164974E+02  0.58580241190E+03  0.59899331997E+03  0.00000000000E+00 0. -1.
         22    1    3    3    0    0 -0.24587530715E+02 -0.11085536827E+03  0.19195137012E+02  0.11516037785E+03  0.00000000000E+00 0.  1.
         22    1    3    3    0    0 -0.67169470449E+02  0.14902769883E+02  0.11670227423E+02  0.69785560961E+02  0.00000000000E+00 0.  1.
</event>
<event>
 7    1  0.5950675E-006  0.8841283E+02  0.7818608E-02  0.1374702E+00
          2   -1    0    0  502    0  0.00000000000E+00  0.00000000000E+00  0.13664795838E+03  0.13664795838E+03  0.00000000000E+00 0. -1.
          1   -1    0    0  501    0 -0.00000000000E+00 -0.00000000000E+00 -0.72382649462E+03  0.72382649462E+03  0.00000000000E+00 0. -1.
         25    2    1    2    0    0 -0.37782815148E+02 -0.49908006286E+02 -0.28451999655E+02  0.14264999580E+03  0.12498461828E+03 0.  0.
          2    1    1    2  501    0  0.83992905416E+02  0.33354280882E+02 -0.62714299969E+03  0.63362106836E+03  0.00000000000E+00 0. -1.
          1    1    1    2  502    0 -0.46210090269E+02  0.16553725403E+02  0.68416463110E+02  0.84203388838E+02  0.00000000000E+00 0. -1.
         22    1    3    3    0    0  0.38913167618E+02 -0.74808526603E+01 -0.37472710055E+02  0.54538076328E+02  0.00000000000E+00 0.  1.
         22    1    3    3    0    0 -0.76695982766E+02 -0.42427153625E+02  0.90207104007E+01  0.88111919473E+02  0.00000000000E+00 0.  1.
</event>
<event>
 7    1  0.5950675E-006  0.5539019E+02  0.7818608E-02  0.1481846E+00
          2   -1    0    0  502    0  0.00000000000E+00  0.00000000000E+00  0.65885055671E+03  0.65885055671E+03  0.00000000000E+00 0. -1.
          1   -1    0    0  501    0 -0.00000000000E+00 -0.00000000000E+00 -0.62296048172E+03  0.62296048172E+03  0.00000000000E+00 0. -1.
         25    2    1    2    0    0  0.35074056822E+02  0.62214202481E+02 -0.22927345377E+03  0.27072631829E+03  0.12500250541E+03 0.  0.
          2    1    1    2  501    0  0.11710101220E+02 -0.32628847063E+02 -0.37095049602E+03  0.37256682438E+03  0.00000000000E+00 0. -1.
          1    1    1    2  502    0 -0.46784158041E+02 -0.29585355418E+02  0.63611402477E+03  0.63851789577E+03  0.00000000000E+00 0. -1.
         22    1    3    3    0    0  0.19591019487E+02  0.11383695739E+02  0.10616349977E+02  0.25022059469E+02  0.00000000000E+00 0. -1.
         22    1    3    3    0    0  0.15483037335E+02  0.50830506742E+02 -0.23988980374E+03  0.24570425882E+03  0.00000000000E+00 0. -1.
</event>
<event>
 7    1  0.5950675E-006  0.6957445E+02  0.7818608E-02  0.1469787E+00
          2   -1    0    0  502    0  0.00000000000E+00  0.00000000000E+00  0.37824410340E+03  0.37824410340E+03  0.00000000000E+00 0. -1.
          1   -1    0    0  501    0 -0.00000000000E+00 -0.00000000000E+00 -0.89959626896E+03  0.89959626896E+03  0.00000000000E+00 0. -1.
         25    2    1    2    0    0 -0.93259424353E+02 -0.51271359887E+01 -0.16553487303E+03  0.22748630696E+03  0.12499847164E+03 0.  0.
          2    1    1    2  501    0  0.66022094951E+02  0.17863165891E+02 -0.70076675944E+03  0.70409662750E+03  0.00000000000E+00 0. -1.
          1    1    1    2  502    0  0.27237329402E+02 -0.12736029902E+02  0.34494946691E+03  0.34625743789E+03  0.00000000000E+00 0. -1.
         22    1    3    3    0    0 -0.88394806989E+02  0.28847496636E+02 -0.47204078408E+02  0.10427868902E+03  0.00000000000E+00 0. -1.
         22    1    3    3    0    0 -0.48646173635E+01 -0.33974632625E+02 -0.11833079462E+03  0.12320761795E+03  0.00000000000E+00 0. -1.
</event>
<event>
 7    1  0.5950675E-006  0.2723810E+02  0.7818608E-02  0.1643779E+00
          2   -1    0    0  502    0  0.00000000000E+00  0.00000000000E+00  0.12905372173E+03  0.12905372173E+03  0.00000000000E+00 0. -1.
          1   -1    0    0  501    0 -0.00000000000E+00 -0.00000000000E+00 -0.88881451924E+03  0.88881451924E+03  0.00000000000E+00 0. -1.
         25    2    1    2    0    0  0.10272574524E+02 -0.50575087466E+02 -0.26477910708E+03  0.29731547216E+03  0.12500059671E+03 0.  0.
          2    1    1    2  501    0 -0.55628831957E+00  0.25276042047E+02 -0.60587180849E+03  0.60639907328E+03  0.00000000000E+00 0. -1.
          1    1    1    2  502    0 -0.97162862047E+01  0.25299045419E+02  0.11089011806E+03  0.11415369552E+03  0.00000000000E+00 0. -1.
         22    1    3    3    0    0 -0.42568007465E+02 -0.45826791487E+02 -0.63380163325E+02  0.89045916136E+02  0.00000000000E+00 0. -1.
         22    1    3    3    0    0  0.52840581989E+02 -0.47482959791E+01 -0.20139894376E+03  0.20826955602E+03  0.00000000000E+00 0. -1.
</event>
<event>
 7    1  0.5950675E-006  0.1324889E+03  0.7818608E-02  0.1353621E+00
          2   -1    0    0  502    0  0.00000000000E+00  0.00000000000E+00  0.10371956689E+04  0.10371956689E+04  0.00000000000E+00 0. -1.
          1   -1    0    0  501    0 -0.00000000000E+00 -0.00000000000E+00 -0.54862527883E+03  0.54862527883E+03  0.00000000000E+00 0. -1.
         25    2    1    2    0    0  0.58146929075E+02 -0.89906887739E+02  0.22800758120E+03  0.28120659288E+03  0.12500150787E+03 0.  0.
          2    1    1    2  501    0  0.37632194823E+02 -0.10469162990E+02 -0.51513139363E+03  0.51661023816E+03  0.00000000000E+00 0. -1.
          1    1    1    2  502    0 -0.95779123898E+02  0.10037605073E+03  0.77569420252E+03  0.78800411671E+03  0.00000000000E+00 0. -1.
         22    1    3    3    0    0  0.55142992219E+02 -0.56599369559E+02  0.23422093389E+03  0.24719159390E+03  0.00000000000E+00 0. -1.
         22    1    3    3    0    0  0.30039368560E+01 -0.33307518180E+02 -0.62133526859E+01  0.34014998979E+02  0.00000000000E+00 0. -1.
</event>
<event>
 7    1  0.5950675E-006  0.9026437E+02  0.7818608E-02  0.1337441E+00
          2   -1    0    0  502    0  0.00000000000E+00  0.00000000000E+00  0.21678577347E+03  0.21678577347E+03  0.00000000000E+00 0. -1.
          1   -1    0    0  501    0 -0.00000000000E+00 -0.00000000000E+00 -0.66514282239E+03  0.66514282239E+03  0.00000000000E+00 0. -1.
         25    2    1    2    0    0  0.11731920236E+03  0.51527820926E+02 -0.10061801900E+03  0.20534796291E+03  0.12499955420E+03 0.  0.
          2    1    1    2  501    0 -0.54096276092E+02 -0.70058600013E+02 -0.50152534784E+03  0.50927624042E+03  0.00000000000E+00 0. -1.
          1    1    1    2  502    0 -0.63222926269E+02  0.18530779087E+02  0.15378631792E+03  0.16730439253E+03  0.00000000000E+00 0. -1.
         22    1    3    3    0    0  0.62910353895E+02 -0.23392204997E+02  0.19781058599E+01  0.67147753385E+02  0.00000000000E+00 0.  1.
         22    1    3    3    0    0  0.54408848466E+02  0.74920025923E+02 -0.10259612486E+03  0.13820020952E+03  0.00000000000E+00 0.  1.
</event>
<event>
 7    1  0.5950675E-006  0.8848663E+02  0.7818608E-02  0.1359822E+00
          2   -1    0    0  502    0  0.00000000000E+00  0.00000000000E+00  0.25021261378E+04  0.25021261378E+04  0.00000000000E+00 0. -1.
          1   -1    0    0  501    0 -0.00000000000E+00 -0.00000000000E+00 -0.28982593596E+02  0.28982593596E+02  0.00000000000E+00 0. -1.
         25    2    1    2    0    0 -0.29051619701E+02  0.29650304071E+02  0.11160568892E+04  0.11238030917E+04  0.12500908726E+03 0.  0.
          2    1    1    2  501    0  0.37062434623E+02 -0.84571178617E+02  0.62431192733E+02  0.11146103417E+03  0.00000000000E+00 0. -1.
          1    1    1    2  502    0 -0.80108149216E+01  0.54920874546E+02  0.12946554622E+04  0.12958446055E+04  0.00000000000E+00 0. -1.
         22    1    3    3    0    0  0.24571070571E+02  0.37466304999E+02  0.15841381229E+03  0.16462805789E+03  0.00000000000E+00 0.  1.
         22    1    3    3    0    0 -0.53622690272E+02 -0.78160009289E+01  0.95764307690E+03  0.95917503383E+03  0.00000000000E+00 0.  1.
</event>
<event>
 7    1  0.5950675E-006  0.6538440E+02  0.7818608E-02  0.1511509E+00
          2   -1    0    0  502    0  0.00000000000E+00  0.00000000000E+00  0.89686747643E+03  0.89686747643E+03  0.00000000000E+00 0. -1.
          1   -1    0    0  501    0 -0.00000000000E+00 -0.00000000000E+00 -0.41616392930E+02  0.41616392930E+02  0.00000000000E+00 0. -1.
         25    2    1    2    0    0 -0.51809466132E+02 -0.40254315387E+02  0.35787391727E+03  0.38471310557E+03  0.12500320895E+03 0.  0.
          2    1    1    2  501    0  0.17658498082E+02 -0.16149545669E+02 -0.20623420096E+02  0.31590439001E+02  0.00000000000E+00 0. -1.
          1    1    1    2  502    0  0.34150968050E+02  0.56403861055E+02  0.51800058632E+03  0.52218032478E+03  0.00000000000E+00 0. -1.
         22    1    3    3    0    0 -0.59446454545E+02 -0.45110932929E+02  0.36539992528E+03  0.37294233149E+03  0.00000000000E+00 0.  1.
         22    1    3    3    0    0  0.76369884133E+01  0.48566175428E+01 -0.75260080036E+01  0.11770774080E+02  0.00000000000E+00 0.  1.
</event>
<event>
 7    1  0.5950675E-006  0.1117325E+03  0.7818608E-02  0.1361361E+00
          2   -1    0    0  502    0  0.00000000000E+00  0.00000000000E+00  0.10807299837E+04  0.10807299837E+04  0.00000000000E+00 0. -1.
          1   -1    0    0  501    0 -0.00000000000E+00 -0.00000000000E+00 -0.22290633973E+03  0.22290633973E+03  0.00000000000E+00 0. -1.
         25    2    1    2    0    0 -0.10993307690E+03  0.93469753098E+02  0.54375120748E+02  0.19850408909E+03  0.12500137394E+03 0.  0.
          2    1    1    2  501    0  0.12471073956E+02 -0.41559745996E+02 -0.14444863190E+03  0.15082488996E+03  0.00000000000E+00 0. -1.
          1    1    1    2  502    0  0.97462002948E+02 -0.51910007103E+02  0.94789715509E+03  0.95430734436E+03  0.00000000000E+00 0. -1.
         22    1    3    3    0    0 -0.13749213284E+03  0.82880621343E+02  0.52557611320E+02  0.16892479538E+03  0.00000000000E+00 0. -1.
         22    1    3    3    0    0  0.27559055940E+02  0.10589131756E+02  0.18175094284E+01  0.29579293707E+02  0.00000000000E+00 0. -1.
</event>
<event>
 7    1  0.5950675E-006  0.5116927E+02  0.7818608E-02  0.1492579E+00
          2   -1    0    0  502    0  0.00000000000E+00  0.00000000000E+00  0.86390927571E+03  0.86390927571E+03  0.00000000000E+00 0. -1.
          1   -1    0    0  501    0 -0.00000000000E+00 -0.00000000000E+00 -0.54760753272E+02  0.54760753272E+02  0.00000000000E+00 0. -1.
         25    2    1    2    0    0  0.51047561742E+02 -0.55653126285E+01  0.48564893759E+03  0.50409850178E+03  0.12499433046E+03 0.  0.
          2    1    1    2  501    0 -0.13515604495E+02 -0.32081896121E+02 -0.36633289499E+02  0.50536299064E+02  0.00000000000E+00 0. -1.
          1    1    1    2  502    0 -0.37531957247E+02  0.37647208750E+02  0.36013287435E+03  0.36403522814E+03  0.00000000000E+00 0. -1.
         22    1    3    3    0    0 -0.30861106382E+02 -0.26063310832E+02  0.78463062253E+02  0.88250530858E+02  0.00000000000E+00 0. -1.
         22    1    3    3    0    0  0.81908668124E+02  0.20497998203E+02  0.40718587533E+03  0.41584797092E+03  0.00000000000E+00 0. -1.
</event>
<event>
 7    1  0.5950675E-006  0.5503442E+02  0.7818608E-02  0.1469341E+00
          2   -1    0    0  502    0  0.00000000000E+00  0.00000000000E+00  0.28174905306E+03  0.28174905306E+03  0.00000000000E+00 0. -1.
          1   -1    0    0  501    0 -0.00000000000E+00 -0.00000000000E+00 -0.15153054110E+04  0.15153054110E+04  0.00000000000E+00 0. -1.
         25    2    1    2    0    0 -0.55153710479E+02 -0.36118556717E+02 -0.50918718082E+03  0.52843474451E+03  0.12500084871E+03 0.  0.
          2    1    1    2  501    0  0.20145441878E+02  0.51237785906E+02 -0.99439328462E+03  0.99591623846E+03  0.00000000000E+00 0. -1.
          1    1    1    2  502    0  0.35008268602E+02 -0.15119229189E+02  0.27002410750E+03  0.27270348108E+03  0.00000000000E+00 0. -1.
         22    1    3    3    0    0 -0.61152783726E+02 -0.12552820770E+02 -0.95877778555E+02  0.11441059692E+03  0.00000000000E+00 0. -1.
         22    1    3    3    0    0  0.59990732463E+01 -0.23565735947E+02 -0.41330940226E+03  0.41402414759E+03  0.00000000000E+00 0. -1.
</event>
<event>
 7    1  0.5950675E-006  0.3760955E+02  0.7818608E-02  0.1556150E+00
          2   -1    0    0  502    0  0.00000000000E+00  0.00000000000E+00  0.97919682653E+02  0.97919682653E+02  0.00000000000E+00 0. -1.
          1   -1    0    0  501    0 -0.00000000000E+00 -0.00000000000E+00 -0.21825653188E+04  0.21825653188E+04  0.00000000000E+00 0. -1.
         25    2    1    2    0    0 -0.22609155837E+02 -0.63722158013E+02 -0.15299897353E+03  0.20883200917E+03  0.12502173732E+03 0.  0.
          2    1    1    2  501    0  0.12961255539E+02  0.28198435624E+02 -0.19966817642E+04  0.19969229363E+04  0.00000000000E+00 0. -1.
          1    1    1    2  502    0  0.96479002976E+01  0.35523722390E+02  0.65035101587E+02  0.74730056009E+02  0.00000000000E+00 0. -1.
         22    1    3    3    0    0 -0.42111056678E+01 -0.97853645616E+02 -0.81175500765E+02  0.12721057855E+03  0.00000000000E+00 0. -1.
         22    1    3    3    0    0 -0.18398050169E+02  0.34131487602E+02 -0.71823472767E+02  0.81621430619E+02  0.00000000000E+00 0. -1.
</event>
<event>
 7    1  0.5950675E-006  0.5455308E+02  0.7818608E-02  0.1452041E+00
          2   -1    0    0  502    0  0.00000000000E+00  0.00000000000E+00  0.40085631325E+03  0.40085631325E+03  0.00000000000E+00 0. -1.
          1   -1    0    0  501    0 -0.00000000000E+00 -0.00000000000E+00 -0.20262079659E+04  0.20262079659E+04  0.00000000000E+00 0. -1.
         25    2    1    2    0    0 -0.23190767731E+02 -0.49877676783E+02 -0.87860058592E+02  0.16238674667E+03  0.12499788498E+03 0.  0.
          2    1    1    2  501    0 -0.20416038004E+02  0.50780045470E+02 -0.18993809278E+04  0.19001692915E+04  0.00000000000E+00 0. -1.
          1    1    1    2  502    0  0.43606805735E+02 -0.90236868682E+00  0.36188933379E+03  0.36450824090E+03  0.00000000000E+00 0. -1.
         22    1    3    3    0    0 -0.70180137406E+02 -0.27727687789E+02 -0.79781234520E+02  0.10981403252E+03  0.00000000000E+00 0.  1.
         22    1    3    3    0    0  0.46989369675E+02 -0.22149988994E+02 -0.80788240715E+01  0.52572714152E+02  0.00000000000E+00 0.  1.
</event>
<event>
 7    1  0.5950675E-006  0.1030446E+03  0.7818608E-02  0.1344270E+00
          2   -1    0    0  502    0  0.00000000000E+00  0.00000000000E+00  0.61026783327E+03  0.61026783327E+03  0.00000000000E+00 0. -1.
          1   -1    0    0  501    0 -0.00000000000E+00 -0.00000000000E+00 -0.11297060469E+04  0.11297060469E+04  0.00000000000E+00 0. -1.
         25    2    1    2    0    0  0.50324594583E+02 -0.41438548604E+02 -0.14445426672E+03  0.20184485782E+03  0.12499837329E+03 0.  0.
          2    1    1    2  501    0 -0.10342324639E+03  0.29606141677E+02 -0.95224896692E+03  0.95830631143E+03  0.00000000000E+00 0. -1.
          1    1    1    2  502    0  0.53098651812E+02  0.11832406927E+02  0.57726502005E+03  0.57982271088E+03  0.00000000000E+00 0. -1.
         22    1    3    3    0    0 -0.67140059488E+01 -0.27093183984E+02  0.15142623467E+02  0.31755590685E+02  0.00000000000E+00 0.  1.
         22    1    3    3    0    0  0.57038600531E+02 -0.14345364620E+02 -0.15959689019E+03  0.17008926713E+03  0.00000000000E+00 0.  1.
</event>
<event>
 7    1  0.5950675E-006  0.8083321E+02  0.7818608E-02  0.1346882E+00
          2   -1    0    0  502    0  0.00000000000E+00  0.00000000000E+00  0.54774809157E+03  0.54774809157E+03  0.00000000000E+00 0. -1.
          1   -1    0    0  501    0 -0.00000000000E+00 -0.00000000000E+00 -0.13114755389E+04  0.13114755389E+04  0.00000000000E+00 0. -1.
         25    2    1    2    0    0 -0.81713887756E+02  0.47895345866E+02 -0.13921741415E+03  0.20970718558E+03  0.12499796668E+03 0.  0.
          2    1    1    2  501    0  0.78876992166E+02  0.19855684643E+02 -0.11333062728E+04  0.11362213411E+04  0.00000000000E+00 0. -1.
          1    1    1    2  502    0  0.28368955893E+01 -0.67751030509E+02  0.50879623960E+03  0.51329510376E+03  0.00000000000E+00 0. -1.
         22    1    3    3    0    0 -0.45903689406E+02  0.83422289020E+02 -0.12530997166E+03  0.15738175245E+03  0.00000000000E+00 0. -1.
         22    1    3    3    0    0 -0.35810198350E+02 -0.35526943154E+02 -0.13907442489E+02  0.52325433131E+02  0.00000000000E+00 0. -1.
</event>
<event>
 7    1  0.5950675E-006  0.5637488E+02  0.7818608E-02  0.1540535E+00
          2   -1    0    0  502    0  0.00000000000E+00  0.00000000000E+00  0.24540984488E+02  0.24540984488E+02  0.00000000000E+00 0. -1.
          1   -1    0    0  501    0 -0.00000000000E+00 -0.00000000000E+00 -0.20418820027E+04  0.20418820027E+04  0.00000000000E+00 0. -1.
         25    2    1    2    0    0 -0.68288292358E+01  0.56265266625E+02 -0.10792942390E+04  0.10879857944E+04  0.12499848579E+03 0.  0.
          2    1    1    2  501    0  0.22802423541E+02 -0.20407735911E+01 -0.91826082266E+03  0.91854616308E+03  0.00000000000E+00 0. -1.
          1    1    1    2  502    0 -0.15973594305E+02 -0.54224493034E+02 -0.19785956588E+02  0.59891029695E+02  0.00000000000E+00 0. -1.
         22    1    3    3    0    0  0.22613074374E+02  0.84929708484E+02 -0.88738382561E+03  0.89172555221E+03  0.00000000000E+00 0. -1.
         22    1    3    3    0    0 -0.29441903610E+02 -0.28664441860E+02 -0.19191041337E+03  0.19626024222E+03  0.00000000000E+00 0. -1.
</event>
<event>
 7    1  0.5950675E-006  0.8939197E+02  0.7818608E-02  0.1307185E+00
          2   -1    0    0  502    0  0.00000000000E+00  0.00000000000E+00  0.18200947491E+04  0.18200947491E+04  0.00000000000E+00 0. -1.
          1   -1    0    0  501    0 -0.00000000000E+00 -0.00000000000E+00 -0.27354760197E+03  0.27354760197E+03  0.00000000000E+00 0. -1.
         25    2    1    2    0    0 -0.24483445323E+02 -0.12292064386E+02  0.21610179269E+03  0.25114566501E+03  0.12499450512E+03 0.  0.
          2    1    1    2  501    0 -0.52106935199E+02  0.69784101782E+02 -0.24712490858E+03  0.26202227768E+03  0.00000000000E+00 0. -1.
          1    1    1    2  502    0  0.76590380521E+02 -0.57492037396E+02  0.15775702630E+04  0.15804744084E+04  0.00000000000E+00 0. -1.
         22    1    3    3    0    0  0.43347947225E+02 -0.63166268660E+01  0.14991934127E+03  0.15618819799E+03  0.00000000000E+00 0.  1.
         22    1    3    3    0    0 -0.67831392548E+02 -0.59754375195E+01  0.66182451418E+02  0.94957467027E+02  0.00000000000E+00 0.  1.
</event>
<event>
 7    1  0.5950675E-006  0.9684965E+02  0.7818608E-02  0.1401061E+00
          2   -1    0    0  502    0  0.00000000000E+00  0.00000000000E+00  0.33216969552E+03  0.33216969552E+03  0.00000000000E+00 0. -1.
          1   -1    0    0  501    0 -0.00000000000E+00 -0.00000000000E+00 -0.43977712696E+03  0.43977712696E+03  0.00000000000E+00 0. -1.
         25    2    1    2    0    0 -0.20699095219E+02  0.99598912389E+02 -0.49236892626E+02  0.16851685877E+03  0.12500105680E+03 0.  0.
          2    1    1    2  501    0 -0.31501249817E+02 -0.17900346335E+02 -0.32122698436E+03  0.32326386532E+03  0.00000000000E+00 0. -1.
          1    1    1    2  502    0  0.52200345036E+02 -0.81698566055E+02  0.26285644555E+03  0.28016609839E+03  0.00000000000E+00 0. -1.
         22    1    3    3    0    0 -0.29939006254E+02  0.48724642999E+02 -0.87263450159E+02  0.10433285515E+03  0.00000000000E+00 0. -1.
         22    1    3    3    0    0  0.92399110354E+01  0.50874269391E+02  0.38026557533E+02  0.64184003613E+02  0.00000000000E+00 0. -1.
</event>
<event>
 7    1  0.5950675E-006  0.9595022E+02  0.7818608E-02  0.1351760E+00
          2   -1    0    0  502    0  0.00000000000E+00  0.00000000000E+00  0.13699615437E+04  0.13699615437E+04  0.00000000000E+00 0. -1.
          1   -1    0    0  501    0 -0.00000000000E+00 -0.00000000000E+00 -0.22779938758E+03  0.22779938758E+03  0.00000000000E+00 0. -1.
         25    2    1    2    0    0 -0.70603527732E+02 -0.63065117110E+02  0.15784656771E+03  0.22249343555E+03  0.12500289117E+03 0.  0.
          2    1    1    2  501    0  0.45484157989E+02 -0.30558238794E+02 -0.18959850536E+03  0.19735807006E+03  0.00000000000E+00 0. -1.
          1    1    1    2  502    0  0.25119369742E+02  0.93623355903E+02  0.11739140938E+04  0.11779094257E+04  0.00000000000E+00 0. -1.
         22    1    3    3    0    0 -0.71456374214E+02 -0.64787217753E+02  0.17789072146E+03  0.20235737145E+03  0.00000000000E+00 0.  1.
         22    1    3    3    0    0  0.85284648248E+00  0.17221006430E+01 -0.20044153751E+02  0.20136064097E+02  0.00000000000E+00 0.  1.
</event>
<event>
 7    1  0.5950675E-006  0.4363762E+02  0.7818608E-02  0.1565004E+00
          2   -1    0    0  502    0  0.00000000000E+00  0.00000000000E+00  0.89514502446E+03  0.89514502446E+03  0.00000000000E+00 0. -1.
          1   -1    0    0  501    0 -0.00000000000E+00 -0.00000000000E+00 -0.28799099760E+02  0.28799099760E+02  0.00000000000E+00 0. -1.
         25    2    1    2    0    0 -0.57784050581E+02  0.21575277590E+02  0.27366272636E+03  0.30711821110E+03  0.12500327471E+03 0.  0.
          2    1    1    2  501    0  0.24633166380E+02  0.57212051422E+01  0.28696170835E+01  0.25451125248E+02  0.00000000000E+00 0. -1.
          1    1    1    2  502    0  0.33150884201E+02 -0.27296482732E+02  0.58981358125E+03  0.59137478787E+03  0.00000000000E+00 0. -1.
         22    1    3    3    0    0 -0.35091282638E+02  0.57981220918E+02  0.64357257523E+02  0.93461632193E+02  0.00000000000E+00 0. -1.
         22    1    3    3    0    0 -0.22692767943E+02 -0.36405943328E+02  0.20930546883E+03  0.21365657891E+03  0.00000000000E+00 0. -1.
</event>
<event>
 7    1  0.5950675E-006  0.1426770E+03  0.7818608E-02  0.1256291E+00
          2   -1    0    0  502    0  0.00000000000E+00  0.00000000000E+00  0.16830202878E+04  0.16830202878E+04  0.00000000000E+00 0. -1.
          1   -1    0    0  501    0 -0.00000000000E+00 -0.00000000000E+00 -0.73348972691E+03  0.73348972691E+03  0.00000000000E+00 0. -1.
         25    2    1    2    0    0  0.20792213376E+02 -0.15002249557E+03 -0.31488250831E+03  0.37109974410E+03  0.12499984288E+03 0.  0.
          2    1    1    2  501    0  0.76110412777E+02  0.45078486695E+02 -0.38235741083E+03  0.39245643646E+03  0.00000000000E+00 0. -1.
          1    1    1    2  502    0 -0.96902626152E+02  0.10494400888E+03  0.16467704800E+04  0.16529538342E+04  0.00000000000E+00 0. -1.
         22    1    3    3    0    0  0.69507333868E+02 -0.11827721986E+03 -0.20299532868E+03  0.24500586456E+03  0.00000000000E+00 0. -1.
         22    1    3    3    0    0 -0.48715120493E+02 -0.31745275710E+02 -0.11188717962E+03  0.12609387954E+03  0.00000000000E+00 0. -1.
</event>
<event>
 7    1  0.5950675E-006  0.1888697E+03  0.7818608E-02  0.1206646E+00
          2   -1    0    0  502    0  0.00000000000E+00  0.00000000000E+00  0.72891617227E+03  0.72891617227E+03  0.00000000000E+00 0. -1.
          1   -1    0    0  501    0 -0.00000000000E+00 -0.00000000000E+00 -0.94481890800E+03  0.94481890800E+03  0.00000000000E+00 0. -1.
         25    2    1    2    0    0  0.15619800717E+02 -0.10595334041E+03  0.15957852968E+03  0.22925789648E+03  0.12499514969E+03 0.  0.
          2    1    1    2  501    0 -0.11523061593E+03  0.15594353023E+03 -0.89365752796E+03  0.91445079515E+03  0.00000000000E+00 0. -1.
          1    1    1    2  502    0  0.99610815215E+02 -0.49990189824E+02  0.51817626255E+03  0.53002638864E+03  0.00000000000E+00 0. -1.
         22    1    3    3    0    0 -0.75326148953E+01 -0.57294967440E+01  0.11788774583E+03  0.11826702008E+03  0.00000000000E+00 0. -1.
         22    1    3    3    0    0  0.23152415612E+02 -0.10022384366E+03  0.41690783851E+02  0.11099087641E+03  0.00000000000E+00 0. -1.
</event>
<event>
 7    1  0.5950675E-006  0.1496308E+03  0.7818608E-02  0.1285137E+00
          2   -1    0    0  502    0  0.00000000000E+00  0.00000000000E+00  0.14110778182E+03  0.14110778182E+03  0.00000000000E+00 0. -1.
          1   -1    0    0  501    0 -0.00000000000E+00 -0.00000000000E+00 -0.12405394322E+04  0.12405394322E+04  0.00000000000E+00 0. -1.
         25    2    1    2    0    0 -0.11383593239E+03  0.10412618049E+03 -0.46921091730E+03  0.50949467722E+03  0.12500024094E+03 0.  0.
          2    1    1    2  501    0  0.54105344775E+02  0.33875117174E+02 -0.70244106550E+03  0.70533563812E+03  0.00000000000E+00 0. -1.
          1    1    1    2  502    0  0.59730587617E+02 -0.13800129767E+03  0.72220332449E+02  0.16681689865E+03  0.00000000000E+00 0. -1.
         22    1    3    3    0    0 -0.30960208000E+02 -0.22592509474E+02 -0.45211740918E+02  0.59271050949E+02  0.00000000000E+00 0.  1.
         22    1    3    3    0    0 -0.82875724391E+02  0.12671868997E+03 -0.42399917638E+03  0.45022362627E+03  0.00000000000E+00 0.  1.
</event>
<event>
 7    1  0.5950675E-006  0.7388177E+02  0.7818608E-02  0.1377942E+00
          2   -1    0    0  502    0  0.00000000000E+00  0.00000000000E+00  0.90818062168E+03  0.90818062168E+03  0.00000000000E+00 0. -1.
          1   -1    0    0  501    0 -0.00000000000E+00 -0.00000000000E+00 -0.18647247899E+03  0.18647247899E+03  0.00000000000E+00 0. -1.
         25    2    1    2    0    0  0.18294790788E+02  0.70239052149E+02  0.16296348348E+03  0.21783236607E+03  0.12500247575E+03 0.  0.
          2    1    1    2  501    0 -0.65013676995E+02 -0.37236374525E+02 -0.14899582798E+03  0.16677254732E+03  0.00000000000E+00 0. -1.
          1    1    1    2  502    0  0.46718886208E+02 -0.33002677624E+02  0.70774048719E+03  0.71004818728E+03  0.00000000000E+00 0. -1.
         22    1    3    3    0    0 -0.49324918532E+02  0.15002124530E+02  0.91405154048E+02  0.10494242953E+03  0.00000000000E+00 0.  1.
         22    1    3    3    0    0  0.67619709319E+02  0.55236927619E+02  0.71558329434E+02  0.11288993654E+03  0.00000000000E+00 0.  1.
</event>
<event>
 7    1  0.5950675E-006  0.1177830E+03  0.7818608E-02  0.1301202E+00
          2   -1    0    0  502    0  0.00000000000E+00  0.00000000000E+00  0.15513844388E+04  0.15513844388E+04  0.00000000000E+00 0. -1.
          1   -1    0    0  501    0 -0.00000000000E+00 -0.00000000000E+00 -0.16841283695E+03  0.16841283695E+03  0.00000000000E+00 0. -1.
         25    2    1    2    0    0  0.50082005264E+02  0.14328463497E+03 -0.54527360822E+02  0.20404962804E+03  0.12499729500E+03 0.  0.
          2    1    1    2  501    0 -0.64500215306E+02 -0.26734053209E+02 -0.35594774358E+01  0.69911781947E+02  0.00000000000E+00 0. -1.
          1    1    1    2  502    0  0.14418210041E+02 -0.11655058176E+03  0.14410584401E+04  0.14458358658E+04  0.00000000000E+00 0. -1.
         22    1    3    3    0    0  0.68876448987E+02  0.22721399314E+02 -0.61419698983E+01  0.72787024985E+02  0.00000000000E+00 0.  1.
         22    1    3    3    0    0 -0.18794443723E+02  0.12056323565E+03 -0.48385390924E+02  0.13126260306E+03  0.00000000000E+00 0.  1.
</event>
<event>
 7    1  0.6620324E-006  0.9566782E+02  0.7818608E-02  0.1322411E+00
          2   -1    0    0  502    0  0.00000000000E+00  0.00000000000E+00  0.26985850808E+04  0.26985850808E+04  0.00000000000E+00 0. -1.
          1   -1    0    0  501    0 -0.00000000000E+00 -0.00000000000E+00 -0.46972538576E+03  0.46972538576E+03  0.00000000000E+00 0. -1.
         25    2    1    2    0    0 -0.12845418380E+03  0.99301084171E+02 -0.13362762667E+03  0.24462549725E+03  0.12499643453E+03 0.  0.
          2    1    1    2  501    0  0.65242471080E+02 -0.27879646219E+02 -0.27523818880E+03  0.28423566856E+03  0.00000000000E+00 0. -1.
          1    1    1    2  502    0  0.63211712721E+02 -0.71421437952E+02  0.26377255105E+04  0.26394493007E+04  0.00000000000E+00 0. -1.
         22    1    3    3    0    0 -0.98734648942E+02  0.11301011803E+03 -0.14625224475E+03  0.20954602543E+03  0.00000000000E+00 0. -1.
         22    1    3    3    0    0 -0.29719534859E+02 -0.13709033862E+02  0.12624618083E+02  0.35079471823E+02  0.00000000000E+00 0. -1.
</event>
<event>
 7    1  0.5950675E-006  0.1507760E+03  0.7818608E-02  0.1257644E+00
          2   -1    0    0  502    0  0.00000000000E+00  0.00000000000E+00  0.39403234714E+03  0.39403234714E+03  0.00000000000E+00 0. -1.
          1   -1    0    0  501    0 -0.00000000000E+00 -0.00000000000E+00 -0.12794445133E+04  0.12794445133E+04  0.00000000000E+00 0. -1.
         25    2    1    2    0    0  0.10870710986E+03 -0.16822343167E+03 -0.37205302963E+03  0.44064025304E+03  0.12499606810E+03 0.  0.
          2    1    1    2  501    0 -0.79702119356E+02  0.21672793886E+02 -0.85551255283E+03  0.85949046876E+03  0.00000000000E+00 0. -1.
          1    1    1    2  502    0 -0.29004990509E+02  0.14655063778E+03  0.34215341633E+03  0.37334613861E+03  0.00000000000E+00 0. -1.
         22    1    3    3    0    0  0.71398335771E+02 -0.84734229080E+01 -0.10633571142E+03  0.12836200673E+03  0.00000000000E+00 0.  1.
         22    1    3    3    0    0  0.37308774093E+02 -0.15975000876E+03 -0.26571731821E+03  0.31227824631E+03  0.00000000000E+00 0.  1.
</event>
<event>
 7    1  0.5950675E-006  0.8497406E+02  0.7818608E-02  0.1320400E+00
          2   -1    0    0  502    0  0.00000000000E+00  0.00000000000E+00  0.10451437150E+04  0.10451437150E+04  0.00000000000E+00 0. -1.
          1   -1    0    0  501    0 -0.00000000000E+00 -0.00000000000E+00 -0.13094873978E+03  0.13094873978E+03  0.00000000000E+00 0. -1.
         25    2    1    2    0    0 -0.35544414898E+02 -0.42505095552E+02 -0.46615604691E+01  0.13680418368E+03  0.12499426366E+03 0.  0.
          2    1    1    2  501    0 -0.12308099179E+02  0.11272424238E+03 -0.30878260152E+01  0.11343623229E+03  0.00000000000E+00 0. -1.
          1    1    1    2  502    0  0.47852514077E+02 -0.70219146833E+02  0.92194436173E+03  0.92585203883E+03  0.00000000000E+00 0. -1.
         22    1    3    3    0    0  0.15422456347E+02  0.29692174359E+02  0.26932840719E+02  0.42951778626E+02  0.00000000000E+00 0.  1.
         22    1    3    3    0    0 -0.50966871245E+02 -0.72197269912E+02 -0.31594401188E+02  0.93852405050E+02  0.00000000000E+00 0.  1.
</event>
<event>
 7    1  0.5950675E-006  0.7205530E+02  0.7818608E-02  0.1383724E+00
          2   -1    0    0  502    0  0.00000000000E+00  0.00000000000E+00  0.87837683484E+03  0.87837683484E+03  0.00000000000E+00 0. -1.
          1   -1    0    0  501    0 -0.00000000000E+00 -0.00000000000E+00 -0.29038321009E+03  0.29038321009E+03  0.00000000000E+00 0. -1.
         25    2    1    2    0    0 -0.91911395748E+01  0.56724401485E+02  0.22161513385E+03  0.26084554905E+03  0.12499999255E+03 0.  0.
          2    1    1    2  501    0  0.61961306715E+02 -0.38126927420E+02 -0.26462076811E+03  0.27443945970E+03  0.00000000000E+00 0. -1.
          1    1    1    2  502    0 -0.52770167140E+02 -0.18597474064E+02  0.63099925902E+03  0.63347503618E+03  0.00000000000E+00 0. -1.
         22    1    3    3    0    0  0.46244581333E+02  0.58578233697E+02  0.16740245624E+03  0.18328544165E+03  0.00000000000E+00 0. -1.
         22    1    3    3    0    0 -0.55435720908E+02 -0.18538322123E+01  0.54212677609E+02  0.77560107401E+02  0.00000000000E+00 0. -1.
</event>
<event>
 7    1  0.5950675E-006  0.9068492E+02  0.7818608E-02  0.1444655E+00
          2   -1    0    0  502    0  0.00000000000E+00  0.00000000000E+00  0.38295463735E+03  0.38295463735E+03  0.00000000000E+00 0. -1.
          1   -1    0    0  501    0 -0.00000000000E+00 -0.00000000000E+00 -0.68707463382E+03  0.68707463382E+03  0.00000000000E+00 0. -1.
         25    2    1    2    0    0 -0.88049517365E+02 -0.26470610420E+02  0.50840961397E+02  0.16329686806E+03  0.12501061171E+03 0.  0.
          2    1    1    2  501    0  0.75108908306E+02  0.50971961460E+02 -0.62687370252E+03  0.63341149964E+03  0.00000000000E+00 0. -1.
          1    1    1    2  502    0  0.12940609059E+02 -0.24501351040E+02  0.27191274465E+03  0.27332090346E+03  0.00000000000E+00 0. -1.
         22    1    3    3    0    0 -0.75743191816E+01  0.42925399286E+02  0.34910355966E+02  0.55845260932E+02  0.00000000000E+00 0.  1.
         22    1    3    3    0    0 -0.80475198183E+02 -0.69396009706E+02  0.15930605432E+02  0.10745160713E+03  0.00000000000E+00 0.  1.
</event>
<event>
 7    1  0.5950675E-006  0.1401580E+03  0.7818608E-02  0.1373787E+00
          2   -1    0    0  502    0  0.00000000000E+00  0.00000000000E+00  0.40296119548E+03  0.40296119548E+03  0.00000000000E+00 0. -1.
          1   -1    0    0  501    0 -0.00000000000E+00 -0.00000000000E+00 -0.35216611415E+03  0.35216611415E+03  0.00000000000E+00 0. -1.
         25    2    1    2    0    0  0.46610589503E+02 -0.10052119134E+03 -0.23714329956E+03  0.29006356714E+03  0.12499148568E+03 0.  0.
          2    1    1    2  501    0  0.82213571946E+01 -0.30094905179E+02 -0.71883288100E+02  0.78361349783E+02  0.00000000000E+00 0. -1.
          1    1    1    2  502    0 -0.54831946698E+02  0.13061609652E+03  0.35982166899E+03  0.38670239270E+03  0.00000000000E+00 0. -1.
         22    1    3    3    0    0  0.75408027729E+02 -0.93324553801E+02 -0.23018100851E+03  0.25957492111E+03  0.00000000000E+00 0.  1.
         22    1    3    3    0    0 -0.28797438226E+02 -0.71966375372E+01 -0.69622910482E+01  0.30488646032E+02  0.00000000000E+00 0.  1.
</event>
<event>
 7    1  0.5950675E-006  0.1588971E+03  0.7818608E-02  0.1350014E+00
          2   -1    0    0  502    0  0.00000000000E+00  0.00000000000E+00  0.24370412506E+04  0.24370412506E+04  0.00000000000E+00 0. -1.
          1   -1    0    0  501    0 -0.00000000000E+00 -0.00000000000E+00 -0.64161547327E+03  0.64161547327E+03  0.00000000000E+00 0. -1.
         25    2    1    2    0    0 -0.13020586381E+03  0.35797813028E+02  0.13312355381E+04  0.13438926665E+04  0.12499756376E+03 0.  0.
          2    1    1    2  501    0  0.15815729513E+03 -0.17179450068E+02 -0.62506441624E+03  0.64499177356E+03  0.00000000000E+00 0. -1.
          1    1    1    2  502    0 -0.27951431315E+02 -0.18618362960E+02  0.10892546555E+04  0.10897722838E+04  0.00000000000E+00 0. -1.
         22    1    3    3    0    0 -0.36001559326E+01  0.21277994312E+02  0.33077971649E+02  0.39495143664E+02  0.00000000000E+00 0. -1.
         22    1    3    3    0    0 -0.12660570788E+03  0.14519818716E+02  0.12981575664E+04  0.13043975229E+04  0.00000000000E+00 0. -1.
</event>
<event>
 7    1  0.5950675E-006  0.7637034E+02  0.7818608E-02  0.1466336E+00
          2   -1    0    0  502    0  0.00000000000E+00  0.00000000000E+00  0.60786536031E+03  0.60786536031E+03  0.00000000000E+00 0. -1.
          1   -1    0    0  501    0 -0.00000000000E+00 -0.00000000000E+00 -0.50745659357E+03  0.50745659357E+03  0.00000000000E+00 0. -1.
         25    2    1    2    0    0  0.66156650545E+02 -0.21800747393E+02  0.54413404132E+02  0.15309374228E+03  0.12499960151E+03 0.  0.
          2    1    1    2  501    0  0.10774104501E+02  0.25930442220E+02 -0.45473733935E+03  0.45560346461E+03  0.00000000000E+00 0. -1.
          1    1    1    2  502    0 -0.76930755046E+02 -0.41296948271E+01  0.50073270196E+03  0.50662474699E+03  0.00000000000E+00 0. -1.
         22    1    3    3    0    0 -0.31569539669E+01 -0.56259154623E+02  0.50374386790E+02  0.75581993104E+02  0.00000000000E+00 0.  1.
         22    1    3    3    0    0  0.69313604512E+02  0.34458407230E+02  0.40390173425E+01  0.77511749176E+02  0.00000000000E+00 0.  1.
</event>
<event>
 7    1  0.5950675E-006  0.1212504E+03  0.7818608E-02  0.1250653E+00
          2   -1    0    0  502    0  0.00000000000E+00  0.00000000000E+00  0.10406910022E+04  0.10406910022E+04  0.00000000000E+00 0. -1.
          1   -1    0    0  501    0 -0.00000000000E+00 -0.00000000000E+00 -0.11372309899E+03  0.11372309899E+03  0.00000000000E+00 0. -1.
         25    2    1    2    0    0 -0.92995057391E+02  0.18277331115E+03  0.27412894966E+03  0.36445371043E+03  0.12500264812E+03 0.  0.
          2    1    1    2  501    0  0.10445097713E+02 -0.10994273519E+03 -0.16469550282E+02  0.11165908460E+03  0.00000000000E+00 0. -1.
          1    1    1    2  502    0  0.82549959678E+02 -0.72830575962E+02  0.66930850388E+03  0.67830130621E+03  0.00000000000E+00 0. -1.
         22    1    3    3    0    0 -0.12202905899E+03  0.16488395707E+03  0.22301434882E+03  0.30300694763E+03  0.00000000000E+00 0.  1.
         22    1    3    3    0    0  0.29034001603E+02  0.17889354086E+02  0.51114600840E+02  0.61446762793E+02  0.00000000000E+00 0.  1.
</event>
<event>
 7    1  0.5950675E-006  0.1372173E+03  0.7818608E-02  0.1330440E+00
          2   -1    0    0  502    0  0.00000000000E+00  0.00000000000E+00  0.81978251852E+03  0.81978251852E+03  0.00000000000E+00 0. -1.
          1   -1    0    0  501    0 -0.00000000000E+00 -0.00000000000E+00 -0.36842929780E+03  0.36842929780E+03  0.00000000000E+00 0. -1.
         25    2    1    2    0    0  0.30175057003E+02  0.10527481337E+03  0.18694465061E+02  0.16723243736E+03  0.12499553866E+03 0.  0.
          2    1    1    2  501    0 -0.36346195276E+01 -0.14293773148E+03 -0.27599265555E+03  0.31083170922E+03  0.00000000000E+00 0. -1.
          1    1    1    2  502    0 -0.26540437476E+02  0.37662918109E+02  0.70865141121E+03  0.71014766974E+03  0.00000000000E+00 0. -1.
         22    1    3    3    0    0  0.66709319152E+02  0.18667560240E+02  0.23398677053E+02  0.73117092084E+02  0.00000000000E+00 0. -1.
         22    1    3    3    0    0 -0.36534262149E+02  0.86607253135E+02 -0.47042119918E+01  0.94115345279E+02  0.00000000000E+00 0. -1.
</event>
<event>
 7    1  0.5950675E-006  0.5783790E+02  0.7818608E-02  0.1470404E+00
          2   -1    0    0  502    0  0.00000000000E+00  0.00000000000E+00  0.12900337383E+04  0.12900337383E+04  0.00000000000E+00 0. -1.
          1   -1    0    0  501    0 -0.00000000000E+00 -0.00000000000E+00 -0.19538288543E+03  0.19538288543E+03  0.00000000000E+00 0. -1.
         25    2    1    2    0    0  0.15696267576E+02  0.19126261113E+02  0.32875481748E+03  0.35258562744E+03  0.12499883193E+03 0.  0.
          2    1    1    2  501    0 -0.19566840650E+02 -0.54927480997E+02 -0.17848283075E+03  0.18776583900E+03  0.00000000000E+00 0. -1.
          1    1    1    2  502    0  0.38705730735E+01  0.35801219884E+02  0.94437886616E+03  0.94506515729E+03  0.00000000000E+00 0. -1.
         22    1    3    3    0    0  0.57515161549E+01  0.60331715207E+02  0.28610731079E+03  0.29245578997E+03  0.00000000000E+00 0. -1.
         22    1    3    3    0    0  0.99447514213E+01 -0.41205454094E+02  0.42647506688E+02  0.60129837474E+02  0.00000000000E+00 0. -1.
</event>
<event>
 7    1  0.5950675E-006  0.4126223E+02  0.7818608E-02  0.1555229E+00
          2   -1    0    0  502    0  0.00000000000E+00  0.00000000000E+00  0.94262901013E+03  0.94262901013E+03  0.00000000000E+00 0. -1.
          1   -1    0    0  501    0 -0.00000000000E+00 -0.00000000000E+00 -0.24682416811E+03  0.24682416811E+03  0.00000000000E+00 0. -1.
         25    2    1    2    0    0 -0.61203029404E+02  0.32874101499E+02  0.27909735165E+02  0.14570440541E+03  0.12499721230E+03 0.  0.
          2    1    1    2  501    0  0.24831474781E+02 -0.13893046338E+02 -0.18635466047E+03  0.18851439827E+03  0.00000000000E+00 0. -1.
          1    1    1    2  502    0  0.36371554624E+02 -0.18981055161E+02  0.85424976733E+03  0.85523437455E+03  0.00000000000E+00 0. -1.
         22    1    3    3    0    0 -0.32663242420E+02  0.46267566622E+02  0.71935509253E+02  0.91554861247E+02  0.00000000000E+00 0.  1.
         22    1    3    3    0    0 -0.28539786984E+02 -0.13393465123E+02 -0.44025774088E+02  0.54149544164E+02  0.00000000000E+00 0.  1.
</event>
<event>
 7    1  0.5950675E-006  0.8546279E+02  0.7818608E-02  0.1323333E+00
          2   -1    0    0  502    0  0.00000000000E+00  0.00000000000E+00  0.54123849253E+03  0.54123849253E+03  0.00000000000E+00 0. -1.
          1   -1    0    0  501    0 -0.00000000000E+00 -0.00000000000E+00 -0.20357250523E+03  0.20357250523E+03  0.00000000000E+00 0. -1.
         25    2    1    2    0    0 -0.86812342331E+02 -0.81210812009E+02  0.39094197165E+02  0.17687471541E+03  0.12499891971E+03 0.  0.
          2    1    1    2  501    0  0.17459317765E+01  0.78753433482E+02 -0.11848748113E+03  0.14228293906E+03  0.00000000000E+00 0. -1.
          1    1    1    2  502    0  0.85066410554E+02  0.24573785266E+01  0.41705927126E+03  0.42565334329E+03  0.00000000000E+00 0. -1.
         22    1    3    3    0    0 -0.27784159665E+02 -0.10034286630E+03  0.47160771566E+02  0.11430130673E+03  0.00000000000E+00 0. -1.
         22    1    3    3    0    0 -0.59028182665E+02  0.19132054294E+02 -0.80665744009E+01  0.62573408672E+02  0.00000000000E+00 0. -1.
</event>
<event>
 7    1  0.5950675E-006  0.1536310E+03  0.7818608E-02  0.1272119E+00
          2   -1    0    0  502    0  0.00000000000E+00  0.00000000000E+00  0.57803690104E+03  0.57803690104E+03  0.00000000000E+00 0. -1.
          1   -1    0    0  501    0 -0.00000000000E+00 -0.00000000000E+00 -0.39255113584E+03  0.39255113584E+03  0.00000000000E+00 0. -1.
         25    2    1    2    0    0 -0.80908099878E+02  0.71890432218E+02  0.44690983398E+03  0.47651614439E+03  0.12499952515E+03 0.  0.
          2    1    1    2  501    0  0.14756102522E+03 -0.49256550118E+02 -0.34877069837E+03  0.38189195322E+03  0.00000000000E+00 0. -1.
          1    1    1    2  502    0 -0.66652925338E+02 -0.22633882100E+02  0.87346629584E+02  0.11217993927E+03  0.00000000000E+00 0. -1.
         22    1    3    3    0    0 -0.38957547688E+01  0.40161553382E+02  0.33282043321E+03  0.33525746530E+03  0.00000000000E+00 0. -1.
         22    1    3    3    0    0 -0.77012345109E+02  0.31728878836E+02  0.11408940076E+03  0.14125867909E+03  0.00000000000E+00 0. -1.
</event>
<event>
 7    1  0.5950675E-006  0.4251953E+02  0.7818608E-02  0.1501994E+00
          2   -1    0    0  502    0  0.00000000000E+00  0.00000000000E+00  0.23579902964E+04  0.23579902964E+04  0.00000000000E+00 0. -1.
          1   -1    0    0  501    0 -0.00000000000E+00 -0.00000000000E+00 -0.40037847210E+03  0.40037847210E+03  0.00000000000E+00 0. -1.
         25    2    1    2    0    0  0.29006535293E+02  0.33858674363E+01  0.55168529900E+03  0.56642264563E+03  0.12500040461E+03 0.  0.
          2    1    1    2  501    0 -0.23526349047E+02  0.35490395134E+02 -0.39164150699E+03  0.39394939681E+03  0.00000000000E+00 0. -1.
          1    1    1    2  502    0 -0.54801862461E+01 -0.38876262570E+02  0.17975680323E+04  0.17979967261E+04  0.00000000000E+00 0. -1.
         22    1    3    3    0    0 -0.49500812225E+01  0.86239630477E+01  0.51869468331E+03  0.51878998693E+03  0.00000000000E+00 0.  1.
         22    1    3    3    0    0  0.33956616515E+02 -0.52380956114E+01  0.32990615694E+02  0.47632658698E+02  0.00000000000E+00 0.  1.
</event>
<event>
 7    1  0.5950675E-006  0.1514792E+03  0.7818608E-02  0.1210644E+00
          2   -1    0    0  502    0  0.00000000000E+00  0.00000000000E+00  0.56321427456E+03  0.56321427456E+03  0.00000000000E+00 0. -1.
          1   -1    0    0  501    0 -0.00000000000E+00 -0.00000000000E+00 -0.72083626749E+03  0.72083626749E+03  0.00000000000E+00 0. -1.
         25    2    1    2    0    0  0.55988902002E+02 -0.20220962520E+03  0.11837763474E+03  0.27140639511E+03  0.12499870892E+03 0.  0.
          2    1    1    2  501    0 -0.11496143108E+03  0.67159520502E+02 -0.62225233888E+03  0.63633678589E+03  0.00000000000E+00 0. -1.
          1    1    1    2  502    0  0.58972529082E+02  0.13505010470E+03  0.34625271121E+03  0.37630736106E+03  0.00000000000E+00 0. -1.
         22    1    3    3    0    0  0.76150756460E+01  0.16988043073E+02  0.24825217005E+01  0.18781530783E+02  0.00000000000E+00 0.  1.
         22    1    3    3    0    0  0.48373826356E+02 -0.21919766827E+03  0.11589511304E+03  0.25262486433E+03  0.00000000000E+00 0.  1.
</event>
<event>
 7    1  0.6792668E-006  0.4913634E+02  0.7818608E-02  0.1458680E+00
          2   -1    0    0  502    0  0.00000000000E+00  0.00000000000E+00  0.23026060543E+04  0.23026060543E+04  0.00000000000E+00 0. -1.
          1   -1    0    0  501    0 -0.00000000000E+00 -0.00000000000E+00 -0.15569277542E+04  0.15569277542E+04  0.00000000000E+00 0. -1.
         25    2    1    2    0    0  0.36597564230E+02 -0.82894654789E+02 -0.50126858943E+02  0.16232102949E+03  0.12499803649E+03 0.  0.
          2    1    1    2  501    0 -0.31906959957E+02  0.37004094383E+02 -0.14500554801E+04  0.14508784416E+04  0.00000000000E+00 0. -1.
          1    1    1    2  502    0 -0.46906042729E+01  0.45890560406E+02  0.22458606391E+04  0.22463343374E+04  0.00000000000E+00 0. -1.
         22    1    3    3    0    0  0.75080078009E+02 -0.47269246396E+02 -0.62394431613E+02  0.10846411787E+03  0.00000000000E+00 0. -1.
         22    1    3    3    0    0 -0.38482513779E+02 -0.35625408393E+02  0.12267572670E+02  0.53856911619E+02  0.00000000000E+00 0. -1.
</event>
<event>
 7    1  0.5950675E-006  0.1382031E+03  0.7818608E-02  0.1342728E+00
          2   -1    0    0  502    0  0.00000000000E+00  0.00000000000E+00  0.50764991574E+02  0.50764991574E+02  0.00000000000E+00 0. -1.
          1   -1    0    0  501    0 -0.00000000000E+00 -0.00000000000E+00 -0.85161709363E+03  0.85161709363E+03  0.00000000000E+00 0. -1.
         25    2    1    2    0    0  0.23520277367E+02 -0.11506433060E+03 -0.27702024447E+03  0.32582177086E+03  0.12500642743E+03 0.  0.
          2    1    1    2  501    0  0.11944174738E+01  0.14790808412E+03 -0.51321882002E+03  0.53410840211E+03  0.00000000000E+00 0. -1.
          1    1    1    2  502    0 -0.24714694841E+02 -0.32843753515E+02 -0.10613037572E+02  0.42451912236E+02  0.00000000000E+00 0. -1.
         22    1    3    3    0    0  0.23808834308E+02 -0.14229992228E+03 -0.23199422836E+03  0.27319855502E+03  0.00000000000E+00 0. -1.
         22    1    3    3    0    0 -0.28855694067E+00  0.27235591677E+02 -0.45026016107E+02  0.52623215843E+02  0.00000000000E+00 0. -1.
</event>
<event>
 7    1  0.5950675E-006  0.5694812E+02  0.7818608E-02  0.1437496E+00
          2   -1    0    0  502    0  0.00000000000E+00  0.00000000000E+00  0.99437042264E+03  0.99437042264E+03  0.00000000000E+00 0. -1.
          1   -1    0    0  501    0 -0.00000000000E+00 -0.00000000000E+00 -0.27441886890E+03  0.27441886890E+03  0.00000000000E+00 0. -1.
         25    2    1    2    0    0 -0.48693054327E+01  0.10751436335E+02  0.81640570592E+02  0.14976686371E+03  0.12500250870E+03 0.  0.
          2    1    1    2  501    0  0.21687279091E+02 -0.54151640484E+02 -0.23618841831E+03  0.24328523832E+03  0.00000000000E+00 0. -1.
          1    1    1    2  502    0 -0.16817973659E+02  0.43400204149E+02  0.87449940145E+03  0.87573718951E+03  0.00000000000E+00 0. -1.
         22    1    3    3    0    0  0.82810720960E+01  0.62012268342E+02  0.14399670722E+02  0.64198505410E+02  0.00000000000E+00 0. -1.
         22    1    3    3    0    0 -0.13150377529E+02 -0.51260832007E+02  0.67240899870E+02  0.85568358303E+02  0.00000000000E+00 0. -1.
</event>
<event>
 7    1  0.5950675E-006  0.9338178E+02  0.7818608E-02  0.1384170E+00
          2   -1    0    0  502    0  0.00000000000E+00  0.00000000000E+00  0.11304077105E+04  0.11304077105E+04  0.00000000000E+00 0. -1.
          1   -1    0    0  501    0 -0.00000000000E+00 -0.00000000000E+00 -0.17085231999E+04  0.17085231999E+04  0.00000000000E+00 0. -1.
         25    2    1    2    0    0 -0.17107594801E+02  0.11265013025E+03  0.42797423785E+03  0.46018441441E+03  0.12500010142E+03 0.  0.
          2    1    1    2  501    0  0.46298933059E+02 -0.81052798259E+02 -0.16904551782E+04  0.16930303768E+04  0.00000000000E+00 0. -1.
          1    1    1    2  502    0 -0.29191338257E+02 -0.31597331987E+02  0.68436545099E+03  0.68571611920E+03  0.00000000000E+00 0. -1.
         22    1    3    3    0    0  0.11744820644E+02  0.45736908356E+02  0.35110413557E+03  0.35426532375E+03  0.00000000000E+00 0. -1.
         22    1    3    3    0    0 -0.28852415445E+02  0.66913221891E+02  0.76870102282E+02  0.10591909066E+03  0.00000000000E+00 0. -1.
</event>
<event>
 7    1  0.5950675E-006  0.3358610E+02  0.7818608E-02  0.1562318E+00
          2   -1    0    0  502    0  0.00000000000E+00  0.00000000000E+00  0.15534652834E+04  0.15534652834E+04  0.00000000000E+00 0. -1.
          1   -1    0    0  501    0 -0.00000000000E+00 -0.00000000000E+00 -0.33772863950E+02  0.33772863950E+02  0.00000000000E+00 0. -1.
         25    2    1    2    0    0 -0.22803443284E+02  0.10854247202E+01  0.60963380227E+03  0.62273624002E+03  0.12500350635E+03 0.  0.
          2    1    1    2  501    0  0.11369250918E+02  0.31603261476E+02 -0.16413902747E+02  0.37382378278E+02  0.00000000000E+00 0. -1.
          1    1    1    2  502    0  0.11434192366E+02 -0.32688686196E+02  0.92647251991E+03  0.92711952903E+03  0.00000000000E+00 0. -1.
         22    1    3    3    0    0 -0.13866286211E+02 -0.53084385089E+02  0.14787835990E+03  0.15772835877E+03  0.00000000000E+00 0.  1.
         22    1    3    3    0    0 -0.89371570732E+01  0.54169809809E+02  0.46175544237E+03  0.46500788126E+03  0.00000000000E+00 0.  1.
</event>
<event>
 7    1  0.5950675E-006  0.8534775E+02  0.7818608E-02  0.1454320E+00
          2   -1    0    0  502    0  0.00000000000E+00  0.00000000000E+00  0.69652159184E+03  0.69652159184E+03  0.00000000000E+00 0. -1.
          1   -1    0    0  501    0 -0.00000000000E+00 -0.00000000000E+00 -0.27464598924E+02  0.27464598924E+02  0.00000000000E+00 0. -1.
         25    2    1    2    0    0  0.56256523836E+02 -0.62876115746E+02  0.28391687705E+03  0.32148654003E+03  0.12500639962E+03 0.  0.
          2    1    1    2  501    0 -0.21798195018E+02 -0.16628434793E+02  0.59237415126E+02  0.65274324972E+02  0.00000000000E+00 0. -1.
          1    1    1    2  502    0 -0.34458328818E+02  0.79504550539E+02  0.32590270074E+03  0.33722532575E+03  0.00000000000E+00 0. -1.
         22    1    3    3    0    0  0.87699111355E+01  0.38057964436E+02  0.81286269075E+02  0.90181913588E+02  0.00000000000E+00 0. -1.
         22    1    3    3    0    0  0.47486612700E+02 -0.10093408018E+03  0.20263060797E+03  0.23130462645E+03  0.00000000000E+00 0. -1.
</event>
<event>
 7    1  0.5950675E-006  0.1778170E+03  0.7818608E-02  0.1328344E+00
          2   -1    0    0  502    0  0.00000000000E+00  0.00000000000E+00  0.13102482940E+04  0.13102482940E+04  0.00000000000E+00 0. -1.
          1   -1    0    0  501    0 -0.00000000000E+00 -0.00000000000E+00 -0.71216664874E+02  0.71216664874E+02  0.00000000000E+00 0. -1.
         25    2    1    2    0    0 -0.27942439080E+02  0.14802012782E+03  0.29477438464E+03  0.35384931564E+03  0.12500664862E+03 0.  0.
          2    1    1    2  501    0  0.19344178320E+01  0.36165440668E+02 -0.22823035698E+02  0.42808550893E+02  0.00000000000E+00 0. -1.
          1    1    1    2  502    0  0.26008021248E+02 -0.18418556849E+03  0.96708028021E+03  0.98480709237E+03  0.00000000000E+00 0. -1.
         22    1    3    3    0    0 -0.24000053078E+02 -0.31484091016E+00  0.19014964833E+00  0.24002871275E+02  0.00000000000E+00 0. -1.
         22    1    3    3    0    0 -0.39423860024E+01  0.14833496873E+03  0.29458423500E+03  0.32984644437E+03  0.00000000000E+00 0. -1.
</event>
<event>
 7    1  0.5950675E-006  0.1094371E+03  0.7818608E-02  0.1360630E+00
          2   -1    0    0  502    0  0.00000000000E+00  0.00000000000E+00  0.19712429095E+04  0.19712429095E+04  0.00000000000E+00 0. -1.
          1   -1    0    0  501    0 -0.00000000000E+00 -0.00000000000E+00 -0.17759590840E+03  0.17759590840E+03  0.00000000000E+00 0. -1.
         25    2    1    2    0    0  0.22447950083E+02 -0.63093648543E+02  0.45966945343E+03  0.48104581721E+03  0.12499741153E+03 0.  0.
          2    1    1    2  501    0 -0.44595102074E+02  0.10177528871E+03 -0.14804180601E+03  0.18510350847E+03  0.00000000000E+00 0. -1.
          1    1    1    2  502    0  0.22147151991E+02 -0.38681640165E+02  0.14820193537E+04  0.14826894923E+04  0.00000000000E+00 0. -1.
         22    1    3    3    0    0 -0.36738510175E+02 -0.36957413657E+02  0.34885761037E+03  0.35272822522E+03  0.00000000000E+00 0. -1.
         22    1    3    3    0    0  0.59186460258E+02 -0.26136234886E+02  0.11081184306E+03  0.12831759199E+03  0.00000000000E+00 0. -1.
</event>
<event>
 7    1  0.5950675E-006  0.3149006E+02  0.7818608E-02  0.1608133E+00
          2   -1    0    0  502    0  0.00000000000E+00  0.00000000000E+00  0.43962100353E+03  0.43962100353E+03  0.00000000000E+00 0. -1.
          1   -1    0    0  501    0 -0.00000000000E+00 -0.00000000000E+00 -0.72217333532E+02  0.72217333532E+02  0.00000000000E+00 0. -1.
         25    2    1    2    0    0  0.16034554755E+02 -0.53670995493E+02  0.28312883214E+02  0.13987482838E+03  0.12500266219E+03 0.  0.
          2    1    1    2  501    0  0.82854967363E-02  0.26910884477E+02 -0.42183549258E+01  0.27239498716E+02  0.00000000000E+00 0. -1.
          1    1    1    2  502    0 -0.16042840252E+02  0.26760111015E+02  0.34330914171E+03  0.34472400997E+03  0.00000000000E+00 0. -1.
         22    1    3    3    0    0 -0.52552363790E+02 -0.14019596449E+02 -0.34991013174E+01  0.54502694745E+02  0.00000000000E+00 0. -1.
         22    1    3    3    0    0  0.68586918545E+02 -0.39651399044E+02  0.31811984532E+02  0.85372133636E+02  0.00000000000E+00 0. -1.
</event>
<event>
 7    1  0.5950675E-006  0.9703807E+02  0.7818608E-02  0.1343898E+00
          2   -1    0    0  502    0  0.00000000000E+00  0.00000000000E+00  0.19867187904E+04  0.19867187904E+04  0.00000000000E+00 0. -1.
          1   -1    0    0  501    0 -0.00000000000E+00 -0.00000000000E+00 -0.24306732477E+04  0.24306732477E+04  0.00000000000E+00 0. -1.
         25    2    1    2    0    0 -0.74942876320E+02 -0.13429416102E+03  0.44061270300E+02  0.20302121466E+03  0.12499944666E+03 0.  0.
          2    1    1    2  501    0  0.23954949148E+02  0.52771077858E+02 -0.23495951365E+04  0.23503097523E+04  0.00000000000E+00 0. -1.
          1    1    1    2  502    0  0.50987927172E+02  0.81523083160E+02  0.18615794088E+04  0.18640610712E+04  0.00000000000E+00 0. -1.
         22    1    3    3    0    0  0.31527905429E+02 -0.59732177885E+02  0.22952976055E+02  0.71335692367E+02  0.00000000000E+00 0.  1.
         22    1    3    3    0    0 -0.10647078175E+03 -0.74561983132E+02  0.21108294244E+02  0.13168552229E+03  0.00000000000E+00 0.  1.
</event>
<event>
 7    1  0.5950675E-006  0.6521406E+02  0.7818608E-02  0.1383701E+00
          2   -1    0    0  502    0  0.00000000000E+00  0.00000000000E+00  0.21353673741E+03  0.21353673741E+03  0.00000000000E+00 0. -1.
          1   -1    0    0  501    0 -0.00000000000E+00 -0.00000000000E+00 -0.33267196101E+03  0.33267196101E+03  0.00000000000E+00 0. -1.
         25    2    1    2    0    0 -0.94250429659E+01  0.26569417235E+02  0.45885869059E+02  0.13610550353E+03  0.12499771896E+03 0.  0.
          2    1    1    2  501    0  0.58635543408E+02  0.28543768078E+02 -0.27221202915E+03  0.27991474142E+03  0.00000000000E+00 0. -1.
          1    1    1    2  502    0 -0.49210500442E+02 -0.55113185313E+02  0.10719093650E+03  0.13018845347E+03  0.00000000000E+00 0. -1.
         22    1    3    3    0    0 -0.27379808440E+02 -0.76790988466E+01  0.79772437927E+02  0.84689221996E+02  0.00000000000E+00 0. -1.
         22    1    3    3    0    0  0.17954765474E+02  0.34248516081E+02 -0.33886568869E+02  0.51416281533E+02  0.00000000000E+00 0. -1.
</event>
<event>
 7    1  0.5950675E-006  0.3802728E+03  0.7818608E-02  0.1218919E+00
          2   -1    0    0  502    0  0.00000000000E+00  0.00000000000E+00  0.15837623054E+04  0.15837623054E+04  0.00000000000E+00 0. -1.
          1   -1    0    0  501    0 -0.00000000000E+00 -0.00000000000E+00 -0.17243510034E+04  0.17243510034E+04  0.00000000000E+00 0. -1.
         25    2    1    2    0    0  0.15606892881E+03 -0.37933455067E+03  0.61637701629E+03  0.75086479364E+03  0.12500040098E+03 0.  0.
          2    1    1    2  501    0 -0.30819868772E+02  0.37559194737E+02 -0.16199288603E+04  0.16206572956E+04  0.00000000000E+00 0. -1.
          1    1    1    2  502    0 -0.12524906004E+03  0.34177535593E+03  0.86296314609E+03  0.93659121951E+03  0.00000000000E+00 0. -1.
         22    1    3    3    0    0  0.47068776785E+02 -0.20193711031E+03  0.21498301972E+03  0.29868338594E+03  0.00000000000E+00 0.  1.
         22    1    3    3    0    0  0.10900015202E+03 -0.17739744036E+03  0.40139399656E+03  0.45218140770E+03  0.00000000000E+00 0.  1.
</event>
<event>
 7    1  0.5950675E-006  0.5860685E+02  0.7818608E-02  0.1478811E+00
          2   -1    0    0  502    0  0.00000000000E+00  0.00000000000E+00  0.16954054172E+04  0.16954054172E+04  0.00000000000E+00 0. -1.
          1   -1    0    0  501    0 -0.00000000000E+00 -0.00000000000E+00 -0.45922874821E+03  0.45922874821E+03  0.00000000000E+00 0. -1.
         25    2    1    2    0    0 -0.78223014193E+02 -0.42579033234E+02  0.29225522415E+03  0.33010679615E+03  0.12500226719E+03 0.  0.
          2    1    1    2  501    0  0.45217736522E+02  0.37000468535E+02 -0.43816116644E+03  0.44203946220E+03  0.00000000000E+00 0. -1.
          1    1    1    2  502    0  0.33005277672E+02  0.55785646996E+01  0.13820826113E+04  0.13824879071E+04  0.00000000000E+00 0. -1.
         22    1    3    3    0    0 -0.58380537071E+02 -0.32799240933E+02  0.29944896748E+03  0.30684484914E+03  0.00000000000E+00 0.  1.
         22    1    3    3    0    0 -0.19842477122E+02 -0.97797923018E+01 -0.71937433332E+01  0.23261947015E+02  0.00000000000E+00 0.  1.
</event>
<event>
 7    1  0.5950675E-006  0.2366648E+03  0.7818608E-02  0.1164331E+00
          2   -1    0    0  502    0  0.00000000000E+00  0.00000000000E+00  0.29261554411E+04  0.29261554411E+04  0.00000000000E+00 0. -1.
          1   -1    0    0  501    0 -0.00000000000E+00 -0.00000000000E+00 -0.20973255175E+03  0.20973255175E+03  0.00000000000E+00 0. -1.
         25    2    1    2    0    0 -0.57214049169E+01 -0.21990416285E+03  0.72794487953E+02  0.26327687279E+03  0.12500039582E+03 0.  0.
          2    1    1    2  501    0  0.14081307685E+03  0.21774914177E+02 -0.62705264571E+02  0.15567408167E+03  0.00000000000E+00 0. -1.
          1    1    1    2  502    0 -0.13509167193E+03  0.19812924867E+03  0.27063336660E+04  0.27169370384E+04  0.00000000000E+00 0. -1.
         22    1    3    3    0    0  0.18087757219E+02 -0.15284060276E+03  0.10381271441E+03  0.18564615936E+03  0.00000000000E+00 0.  1.
         22    1    3    3    0    0 -0.23809162136E+02 -0.67063560093E+02 -0.31018226460E+02  0.77630713423E+02  0.00000000000E+00 0.  1.
</event>
<event>
 7    1  0.5950675E-006  0.2317196E+03  0.7818608E-02  0.1225382E+00
          2   -1    0    0  502    0  0.00000000000E+00  0.00000000000E+00  0.83616220259E+03  0.83616220259E+03  0.00000000000E+00 0. -1.
          1   -1    0    0  501    0 -0.00000000000E+00 -0.00000000000E+00 -0.68786933347E+03  0.68786933347E+03  0.00000000000E+00 0. -1.
         25    2    1    2    0    0  0.16081323715E+03  0.24257552575E+02  0.26503311661E+03  0.33513774221E+03  0.12500170900E+03 0.  0.
          2    1    1    2  501    0 -0.23233825218E+03 -0.45174648393E+02 -0.62857586186E+03  0.67166169044E+03  0.00000000000E+00 0. -1.
          1    1    1    2  502    0  0.71525015033E+02  0.20917095819E+02  0.51183561436E+03  0.51723210341E+03  0.00000000000E+00 0. -1.
         22    1    3    3    0    0  0.15639137007E+03 -0.18002973519E+02  0.17381239296E+03  0.23450611002E+03  0.00000000000E+00 0.  1.
         22    1    3    3    0    0  0.44218670728E+01  0.42260526094E+02  0.91220723651E+02  0.10063163219E+03  0.00000000000E+00 0.  1.
</event>
<event>
 7    1  0.5950675E-006  0.4389726E+02  0.7818608E-02  0.1485655E+00
          2   -1    0    0  502    0  0.00000000000E+00  0.00000000000E+00  0.87874350380E+03  0.87874350380E+03  0.00000000000E+00 0. -1.
          1   -1    0    0  501    0 -0.00000000000E+00 -0.00000000000E+00 -0.10671505835E+03  0.10671505835E+03  0.00000000000E+00 0. -1.
         25    2    1    2    0    0  0.10223810326E+02  0.88813383378E+01  0.59304152430E+02  0.13901607112E+03  0.12500032427E+03 0.  0.
          2    1    1    2  501    0 -0.28297861773E+02  0.31826378115E+02 -0.59369808153E+02  0.73064775679E+02  0.00000000000E+00 0. -1.
          1    1    1    2  502    0  0.18074051448E+02 -0.40707716453E+02  0.77209410118E+03  0.77337771534E+03  0.00000000000E+00 0. -1.
         22    1    3    3    0    0 -0.53499935508E+02  0.26131280285E+02  0.31776677429E+02  0.67489585398E+02  0.00000000000E+00 0. -1.
         22    1    3    3    0    0  0.63723745834E+02 -0.17249941947E+02  0.27527475001E+02  0.71526485726E+02  0.00000000000E+00 0. -1.
</event>
<event>
 7    1  0.5950675E-006  0.6523057E+02  0.7818608E-02  0.1460201E+00
          2   -1    0    0  502    0  0.00000000000E+00  0.00000000000E+00  0.99635693780E+03  0.99635693780E+03  0.00000000000E+00 0. -1.
          1   -1    0    0  501    0 -0.00000000000E+00 -0.00000000000E+00 -0.60083338555E+03  0.60083338555E+03  0.00000000000E+00 0. -1.
         25    2    1    2    0    0 -0.60871849409E+01 -0.35745416555E+02  0.31106688642E+03  0.33719538055E+03  0.12499331268E+03 0.  0.
          2    1    1    2  501    0 -0.18273116791E+02 -0.29105409957E+02 -0.58547916938E+03  0.58648690477E+03  0.00000000000E+00 0. -1.
          1    1    1    2  502    0  0.24360301732E+02  0.64850826512E+02  0.66993583521E+03  0.67350803803E+03  0.00000000000E+00 0. -1.
         22    1    3    3    0    0  0.42798549258E+02  0.80557383283E+00  0.23877135155E+03  0.24257807628E+03  0.00000000000E+00 0. -1.
         22    1    3    3    0    0 -0.48885734199E+02 -0.36550990388E+02  0.72295534863E+02  0.94617304272E+02  0.00000000000E+00 0. -1.
</event>
<event>
 7    1  0.5950675E-006  0.5253350E+02  0.7818608E-02  0.1441124E+00
          2   -1    0    0  502    0  0.00000000000E+00  0.00000000000E+00  0.54539031586E+03  0.54539031586E+03  0.00000000000E+00 0. -1.
          1   -1    0    0  501    0 -0.00000000000E+00 -0.00000000000E+00 -0.79304669702E+03  0.79304669702E+03  0.00000000000E+00 0. -1.
         25    2    1    2    0    0 -0.17499056255E+02  0.75772873798E+02  0.11996430389E+03  0.18989967789E+03  0.12499083198E+03 0.  0.
          2    1    1    2  501    0 -0.22568249625E+02 -0.47383642885E+02 -0.75562123622E+03  0.75744173910E+03  0.00000000000E+00 0. -1.
          1    1    1    2  502    0  0.40067305879E+02 -0.28389230912E+02  0.38800055116E+03  0.39109559590E+03  0.00000000000E+00 0. -1.
         22    1    3    3    0    0  0.23702117315E+02 -0.13455710513E+02  0.78737689473E+02  0.83321487350E+02  0.00000000000E+00 0.  1.
         22    1    3    3    0    0 -0.41201173570E+02  0.89228584311E+02  0.41226614416E+02  0.10657819054E+03  0.00000000000E+00 0.  1.
</event>
<event>
 7    1  0.5950675E-006  0.5578857E+02  0.7818608E-02  0.1421055E+00
          2   -1    0    0  502    0  0.00000000000E+00  0.00000000000E+00  0.40838361802E+03  0.40838361802E+03  0.00000000000E+00 0. -1.
          1   -1    0    0  501    0 -0.00000000000E+00 -0.00000000000E+00 -0.12384567577E+04  0.12384567577E+04  0.00000000000E+00 0. -1.
         25    2    1    2    0    0 -0.91998216850E+02 -0.92552315509E+01 -0.17672422832E+03  0.23538403756E+03  0.12499944421E+03 0.  0.
          2    1    1    2  501    0  0.49693225524E+02 -0.24023998209E+02 -0.10297489596E+04  0.10312271762E+04  0.00000000000E+00 0. -1.
          1    1    1    2  502    0  0.42304991326E+02  0.33279229760E+02  0.37640004815E+03  0.38022916204E+03  0.00000000000E+00 0. -1.
         22    1    3    3    0    0 -0.10638104289E+03  0.31696386468E+02 -0.11407857252E+03  0.15917131623E+03  0.00000000000E+00 0. -1.
         22    1    3    3    0    0  0.14382826042E+02 -0.40951618019E+02 -0.62645655796E+02  0.76212721336E+02  0.00000000000E+00 0. -1.
</event>
<event>
 7    1  0.5950675E-006  0.4731465E+02  0.7818608E-02  0.1518161E+00
          2   -1    0    0  502    0  0.00000000000E+00  0.00000000000E+00  0.21738118988E+04  0.21738118988E+04  0.00000000000E+00 0. -1.
          1   -1    0    0  501    0 -0.00000000000E+00 -0.00000000000E+00 -0.12824355040E+03  0.12824355040E+03  0.00000000000E+00 0. -1.
         25    2    1    2    0    0 -0.45111869295E+02 -0.58595649008E+02  0.14818996945E+03  0.20749306301E+03  0.12499829326E+03 0.  0.
          2    1    1    2  501    0  0.37231710598E+02  0.27973234769E+02 -0.92960229301E+02  0.10397262317E+03  0.00000000000E+00 0. -1.
          1    1    1    2  502    0  0.78801586968E+01  0.30622414239E+02  0.19903386083E+04  0.19905897631E+04  0.00000000000E+00 0. -1.
         22    1    3    3    0    0 -0.76516545617E+02 -0.60998147914E+02  0.14621004159E+03  0.17593445388E+03  0.00000000000E+00 0. -1.
         22    1    3    3    0    0  0.31404676322E+02  0.24024989057E+01  0.19799278677E+01  0.31558609130E+02  0.00000000000E+00 0. -1.
</event>
<event>
 7    1  0.5950675E-006  0.6023470E+02  0.7818608E-02  0.1440504E+00
          2   -1    0    0  502    0  0.00000000000E+00  0.00000000000E+00  0.24629086637E+03  0.24629086637E+03  0.00000000000E+00 0. -1.
          1   -1    0    0  501    0 -0.00000000000E+00 -0.00000000000E+00 -0.82544149388E+03  0.82544149388E+03  0.00000000000E+00 0. -1.
         25    2    1    2    0    0 -0.64059603299E+02 -0.47287204885E+02 -0.99030345736E+02  0.17824362121E+03  0.12499626636E+03 0.  0.
          2    1    1    2  501    0  0.42319390296E+01  0.42816931541E+02 -0.68175835893E+03  0.68311467478E+03  0.00000000000E+00 0. -1.
          1    1    1    2  502    0  0.59827664270E+02  0.44702733439E+01  0.20163807715E+03  0.21037406426E+03  0.00000000000E+00 0. -1.
         22    1    3    3    0    0  0.22672907186E+02  0.20827286381E+02 -0.47287389511E+02  0.56426357184E+02  0.00000000000E+00 0. -1.
         22    1    3    3    0    0 -0.86732510486E+02 -0.68114491267E+02 -0.51742956225E+02  0.12181726403E+03  0.00000000000E+00 0. -1.
</event>
<event>
 7    1  0.5950675E-006  0.1631727E+03  0.7818608E-02  0.1235252E+00
          2   -1    0    0  502    0  0.00000000000E+00  0.00000000000E+00  0.21005312343E+04  0.21005312343E+04  0.00000000000E+00 0. -1.
          1   -1    0    0  501    0 -0.00000000000E+00 -0.00000000000E+00 -0.18879135651E+04  0.18879135651E+04  0.00000000000E+00 0. -1.
         25    2    1    2    0    0  0.21827982147E+03 -0.10868918297E+03  0.36910248844E+02  0.27650005640E+03  0.12502198111E+03 0.  0.
          2    1    1    2  501    0 -0.15764217708E+03  0.34808636333E+02 -0.17632539774E+04  0.17706290651E+04  0.00000000000E+00 0. -1.
          1    1    1    2  502    0 -0.60637644393E+02  0.73880546637E+02  0.19389613978E+04  0.19413156779E+04  0.00000000000E+00 0. -1.
         22    1    3    3    0    0  0.17409965495E+03 -0.13346656977E+03  0.11107225660E+02  0.21965287515E+03  0.00000000000E+00 0. -1.
         22    1    3    3    0    0  0.44180166523E+02  0.24777386798E+02  0.25803023184E+02  0.56847181249E+02  0.00000000000E+00 0. -1.
</event>
<event>
 7    1  0.5950675E-006  0.1108403E+03  0.7818608E-02  0.1438970E+00
          2   -1    0    0  502    0  0.00000000000E+00  0.00000000000E+00  0.96056566233E+02  0.96056566233E+02  0.00000000000E+00 0. -1.
          1   -1    0    0  501    0 -0.00000000000E+00 -0.00000000000E+00 -0.67399507452E+03  0.67399507452E+03  0.00000000000E+00 0. -1.
         25    2    1    2    0    0  0.44169238991E+02  0.12185297296E+03 -0.26292506036E+03  0.31867334874E+03  0.12499618850E+03 0.  0.
          2    1    1    2  501    0  0.10063756483E+01 -0.23630041426E+02 -0.33966684551E+03  0.34048929144E+03  0.00000000000E+00 0. -1.
          1    1    1    2  502    0 -0.45175614639E+02 -0.98222931533E+02  0.24653397574E+02  0.11088900058E+03  0.00000000000E+00 0. -1.
         22    1    3    3    0    0 -0.18250829313E+02  0.80788364995E+02 -0.21372625559E+03  0.22921336134E+03  0.00000000000E+00 0. -1.
         22    1    3    3    0    0  0.62420068304E+02  0.41064607963E+02 -0.49198804765E+02  0.89459987394E+02  0.00000000000E+00 0. -1.
</event>
<event>
 7    1  0.5950675E-006  0.1530315E+03  0.7818608E-02  0.1386513E+00
          2   -1    0    0  502    0  0.00000000000E+00  0.00000000000E+00  0.58500008390E+03  0.58500008390E+03  0.00000000000E+00 0. -1.
          1   -1    0    0  501    0 -0.00000000000E+00 -0.00000000000E+00 -0.14993972926E+04  0.14993972926E+04  0.00000000000E+00 0. -1.
         25    2    1    2    0    0  0.39934314401E+02 -0.12304452166E+03 -0.38804072027E+03  0.42770937425E+03  0.12500001783E+03 0.  0.
          2    1    1    2  501    0  0.16311401656E+02 -0.19933742622E+02 -0.10809237639E+04  0.10812305949E+04  0.00000000000E+00 0. -1.
          1    1    1    2  502    0 -0.56245716057E+02  0.14297826428E+03  0.55456727550E+03  0.57545740736E+03  0.00000000000E+00 0. -1.
         22    1    3    3    0    0  0.60044844690E+01  0.14402725942E+01  0.86131688346E+01  0.10597872251E+02  0.00000000000E+00 0.  1.
         22    1    3    3    0    0  0.33929829932E+02 -0.12448479425E+03 -0.39665388910E+03  0.41711150200E+03  0.00000000000E+00 0.  1.
</event>
<event>
 7    1  0.5950675E-006  0.3918541E+02  0.7818608E-02  0.1533649E+00
          2   -1    0    0  502    0  0.00000000000E+00  0.00000000000E+00  0.91069084251E+02  0.91069084251E+02  0.00000000000E+00 0. -1.
          1   -1    0    0  501    0 -0.00000000000E+00 -0.00000000000E+00 -0.13105239892E+04  0.13105239892E+04  0.00000000000E+00 0. -1.
         25    2    1    2    0    0 -0.28872685381E+02  0.22059991437E+02 -0.16240820476E+03  0.20813944824E+03  0.12500131902E+03 0.  0.
          2    1    1    2  501    0  0.29580583895E+02  0.17661775907E+02 -0.11191771775E+04  0.11197073295E+04  0.00000000000E+00 0. -1.
          1    1    1    2  502    0 -0.70789851369E+00 -0.39721767344E+02  0.62130477268E+02  0.73746295682E+02  0.00000000000E+00 0. -1.
         22    1    3    3    0    0  0.34040478154E+02  0.50547084978E+02 -0.70799312049E+02  0.93414691239E+02  0.00000000000E+00 0. -1.
         22    1    3    3    0    0 -0.62913163535E+02 -0.28487093542E+02 -0.91608892715E+02  0.11472475700E+03  0.00000000000E+00 0. -1.
</event>
<event>
 7    1  0.5950675E-006  0.7853403E+02  0.7818608E-02  0.1440080E+00
          2   -1    0    0  502    0  0.00000000000E+00  0.00000000000E+00  0.16526406620E+04  0.16526406620E+04  0.00000000000E+00 0. -1.
          1   -1    0    0  501    0 -0.00000000000E+00 -0.00000000000E+00 -0.20255205761E+03  0.20255205761E+03  0.00000000000E+00 0. -1.
         25    2    1    2    0    0 -0.64391555774E+02 -0.46465394635E+02 -0.73338208116E+02  0.16525250169E+03  0.12499836476E+03 0.  0.
          2    1    1    2  501    0 -0.12577626475E+02  0.30622355425E+02 -0.78964531728E+02  0.85623142962E+02  0.00000000000E+00 0. -1.
          1    1    1    2  502    0  0.76969182249E+02  0.15843039210E+02  0.16023913442E+04  0.16043170749E+04  0.00000000000E+00 0. -1.
         22    1    3    3    0    0 -0.16855745558E+02  0.42718008313E+02 -0.32460616703E+02  0.56237318831E+02  0.00000000000E+00 0. -1.
         22    1    3    3    0    0 -0.47535810216E+02 -0.89183402948E+02 -0.40877591413E+02  0.10901518286E+03  0.00000000000E+00 0. -1.
</event>
<event>
 7    1  0.5950675E-006  0.2778145E+02  0.7818608E-02  0.1658466E+00
          2   -1    0    0  502    0  0.00000000000E+00  0.00000000000E+00  0.23448793101E+03  0.23448793101E+03  0.00000000000E+00 0. -1.
          1   -1    0    0  501    0 -0.00000000000E+00 -0.00000000000E+00 -0.19240922409E+04  0.19240922409E+04  0.00000000000E+00 0. -1.
         25    2    1    2    0    0 -0.18444314495E+02 -0.54003892165E+01 -0.14694689417E+03  0.19387814865E+03  0.12500395944E+03 0.  0.
          2    1    1    2  501    0  0.92442942120E+01  0.26281068454E+02 -0.17529519002E+04  0.17531732703E+04  0.00000000000E+00 0. -1.
          1    1    1    2  502    0  0.92000202830E+01 -0.20880679238E+02  0.21029448443E+03  0.21152875294E+03  0.00000000000E+00 0. -1.
         22    1    3    3    0    0  0.22389826728E+02 -0.48569886409E+02 -0.26758833529E+02  0.59802787381E+02  0.00000000000E+00 0. -1.
         22    1    3    3    0    0 -0.40834141223E+02  0.43169497192E+02 -0.12018806064E+03  0.13407536127E+03  0.00000000000E+00 0. -1.
</event>
<event>
 7    1  0.6487620E-006  0.5478889E+02  0.7818608E-02  0.1481124E+00
          2   -1    0    0  502    0  0.00000000000E+00  0.00000000000E+00  0.13892753083E+04  0.13892753083E+04  0.00000000000E+00 0. -1.
          1   -1    0    0  501    0 -0.00000000000E+00 -0.00000000000E+00 -0.12101064075E+04  0.12101064075E+04  0.00000000000E+00 0. -1.
         25    2    1    2    0    0  0.25130034592E+02  0.91755819533E+00 -0.11875000964E+03  0.17423791445E+03  0.12499970196E+03 0.  0.
          2    1    1    2  501    0 -0.48490373828E+02 -0.27283363816E+02 -0.10626566869E+04  0.10641122744E+04  0.00000000000E+00 0. -1.
          1    1    1    2  502    0  0.23360339236E+02  0.26365805621E+02  0.13605755974E+04  0.13610315270E+04  0.00000000000E+00 0. -1.
         22    1    3    3    0    0 -0.50541742283E+02 -0.82300105670E+01 -0.44823626020E+02  0.68054083173E+02  0.00000000000E+00 0. -1.
         22    1    3    3    0    0  0.75671776875E+02  0.91475687624E+01 -0.73926383619E+02  0.10618383128E+03  0.00000000000E+00 0. -1.
</event>
<event>
 7    1  0.5950675E-006  0.9243970E+02  0.7818608E-02  0.1402628E+00
          2   -1    0    0  502    0  0.00000000000E+00  0.00000000000E+00  0.17323707330E+04  0.17323707330E+04  0.00000000000E+00 0. -1.
          1   -1    0    0  501    0 -0.00000000000E+00 -0.00000000000E+00 -0.36823058319E+03  0.36823058319E+03  0.00000000000E+00 0. -1.
         25    2    1    2    0    0 -0.11109528557E+03 -0.54311400185E+02  0.51367188289E+03  0.54293242014E+03  0.12499967561E+03 0.  0.
          2    1    1    2  501    0  0.26507386724E+02  0.26516432370E+02 -0.35095438610E+03  0.35295147522E+03  0.00000000000E+00 0. -1.
          1    1    1    2  502    0  0.84587898848E+02  0.27794967815E+02  0.12014226531E+04  0.12047174209E+04  0.00000000000E+00 0. -1.
         22    1    3    3    0    0 -0.94647851236E+02 -0.82545518620E+02  0.47941351033E+03  0.49558984279E+03  0.00000000000E+00 0. -1.
         22    1    3    3    0    0 -0.16447434336E+02  0.28234118435E+02  0.34258372555E+02  0.47342577350E+02  0.00000000000E+00 0. -1.
</event>
<event>
 7    1  0.5950675E-006  0.8255134E+02  0.7818608E-02  0.1428943E+00
          2   -1    0    0  502    0  0.00000000000E+00  0.00000000000E+00  0.13322643250E+04  0.13322643250E+04  0.00000000000E+00 0. -1.
          1   -1    0    0  501    0 -0.00000000000E+00 -0.00000000000E+00 -0.12591068818E+04  0.12591068818E+04  0.00000000000E+00 0. -1.
         25    2    1    2    0    0 -0.71206330507E+02  0.47469282537E+01  0.14005684909E+02  0.14462002626E+03  0.12500367176E+03 0.  0.
          2    1    1    2  501    0  0.73146455663E+02 -0.38941474453E+02 -0.11921270840E+04  0.11950036932E+04  0.00000000000E+00 0. -1.
          1    1    1    2  502    0 -0.19401251552E+01  0.34194546200E+02  0.12512788422E+04  0.12517474874E+04  0.00000000000E+00 0. -1.
         22    1    3    3    0    0 -0.82281759020E+02  0.45022458025E+02  0.32049879094E+02  0.99118637723E+02  0.00000000000E+00 0.  1.
         22    1    3    3    0    0  0.11075428512E+02 -0.40275529772E+02 -0.18044194185E+02  0.45501388538E+02  0.00000000000E+00 0.  1.
</event>
<event>
 7    1  0.5950675E-006  0.1517908E+03  0.7818608E-02  0.1229572E+00
          2   -1    0    0  502    0  0.00000000000E+00  0.00000000000E+00  0.83744853137E+02  0.83744853137E+02  0.00000000000E+00 0. -1.
          1   -1    0    0  501    0 -0.00000000000E+00 -0.00000000000E+00 -0.13648202233E+04  0.13648202233E+04  0.00000000000E+00 0. -1.
         25    2    1    2    0    0  0.63324815410E+02 -0.16308662447E+03 -0.43522994083E+03  0.48544552207E+03  0.12499989670E+03 0.  0.
          2    1    1    2  501    0  0.68488920561E+02  0.84699850310E+02 -0.79369560235E+03  0.80113513597E+03  0.00000000000E+00 0. -1.
          1    1    1    2  502    0 -0.13181373597E+03  0.78386774158E+02 -0.52149826987E+02  0.16198441841E+03  0.00000000000E+00 0. -1.
         22    1    3    3    0    0  0.27833385914E+02 -0.17143994909E+03 -0.31380048022E+03  0.35866013843E+03  0.00000000000E+00 0. -1.
         22    1    3    3    0    0  0.35491429495E+02  0.83533246172E+01 -0.12142946061E+03  0.12678538364E+03  0.00000000000E+00 0. -1.
</event>
<event>
 7    1  0.5950675E-006  0.8250883E+02  0.7818608E-02  0.1366124E+00
          2   -1    0    0  502    0  0.00000000000E+00  0.00000000000E+00  0.10180868599E+04  0.10180868599E+04  0.00000000000E+00 0. -1.
          1   -1    0    0  501    0 -0.00000000000E+00 -0.00000000000E+00 -0.72833752479E+02  0.72833752479E+02  0.00000000000E+00 0. -1.
         25    2    1    2    0    0 -0.82648641271E+02 -0.82379783012E+02  0.48671154287E+03  0.51587864241E+03  0.12500168469E+03 0.  0.
          2    1    1    2  501    0  0.10258423345E+02  0.55526369502E+02 -0.40865109534E+02  0.69702009561E+02  0.00000000000E+00 0. -1.
          1    1    1    2  502    0  0.72390217926E+02  0.26853413510E+02  0.49940667411E+03  0.50533996044E+03  0.00000000000E+00 0. -1.
         22    1    3    3    0    0 -0.41057326716E+01  0.10001551676E+02 -0.31272526222E+01  0.11254678390E+02  0.00000000000E+00 0. -1.
         22    1    3    3    0    0 -0.78542908600E+02 -0.92381334688E+02  0.48983879549E+03  0.50462396402E+03  0.00000000000E+00 0. -1.
</event>
<event>
 7    1  0.5950675E-006  0.5844055E+02  0.7818608E-02  0.1415732E+00
          2   -1    0    0  502    0  0.00000000000E+00  0.00000000000E+00  0.26304978625E+02  0.26304978625E+02  0.00000000000E+00 0. -1.
          1   -1    0    0  501    0 -0.00000000000E+00 -0.00000000000E+00 -0.11615485483E+04  0.11615485483E+04  0.00000000000E+00 0. -1.
         25    2    1    2    0    0  0.36822842284E+02 -0.71716043597E+02 -0.85193973908E+03  0.86482697095E+03  0.12500103213E+03 0.  0.
          2    1    1    2  501    0  0.17471135224E+02  0.50604325966E+02 -0.25052971765E+03  0.25618582669E+03  0.00000000000E+00 0. -1.
          1    1    1    2  502    0 -0.54293977507E+02  0.21111717631E+02 -0.32774112990E+02  0.66840729329E+02  0.00000000000E+00 0. -1.
         22    1    3    3    0    0  0.52634668404E+02  0.19307693130E+02 -0.29591117473E+03  0.30117539518E+03  0.00000000000E+00 0. -1.
         22    1    3    3    0    0 -0.15811826120E+02 -0.91023736727E+02 -0.55602856435E+03  0.56365157577E+03  0.00000000000E+00 0. -1.
</event>
<event>
 7    1  0.5950675E-006  0.6505078E+02  0.7818608E-02  0.1471043E+00
          2   -1    0    0  502    0  0.00000000000E+00  0.00000000000E+00  0.16242881722E+04  0.16242881722E+04  0.00000000000E+00 0. -1.
          1   -1    0    0  501    0 -0.00000000000E+00 -0.00000000000E+00 -0.28628655873E+03  0.28628655873E+03  0.00000000000E+00 0. -1.
         25    2    1    2    0    0  0.43490641369E+02  0.63614364019E+02  0.43714866862E+03  0.46115372608E+03  0.12500230960E+03 0.  0.
          2    1    1    2  501    0  0.11519956172E+02 -0.29716233081E+02 -0.27246623751E+03  0.27432392255E+03  0.00000000000E+00 0. -1.
          1    1    1    2  502    0 -0.55010597542E+02 -0.33898130939E+02  0.11733191824E+04  0.11750970823E+04  0.00000000000E+00 0. -1.
         22    1    3    3    0    0  0.80425239385E+02  0.18292323768E+02  0.18904395554E+03  0.20625335237E+03  0.00000000000E+00 0.  1.
         22    1    3    3    0    0 -0.36934598016E+02  0.45322040251E+02  0.24810471308E+03  0.25490037370E+03  0.00000000000E+00 0.  1.
</event>
<event>
 7    1  0.5950675E-006  0.1392710E+03  0.7818608E-02  0.1345747E+00
          2   -1    0    0  502    0  0.00000000000E+00  0.00000000000E+00  0.50862028634E+03  0.50862028634E+03  0.00000000000E+00 0. -1.
          1   -1    0    0  501    0 -0.00000000000E+00 -0.00000000000E+00 -0.41701284360E+03  0.41701284360E+03  0.00000000000E+00 0. -1.
         25    2    1    2    0    0  0.10683773201E+03  0.81161911166E+02  0.22216504656E+03  0.28806996276E+03  0.12500175488E+03 0.  0.
          2    1    1    2  501    0 -0.82679863476E+02 -0.11271919181E+03 -0.36964514342E+03  0.39519502537E+03  0.00000000000E+00 0. -1.
          1    1    1    2  502    0 -0.24157868535E+02  0.31557280645E+02  0.23908753960E+03  0.24236814181E+03  0.00000000000E+00 0. -1.
         22    1    3    3    0    0 -0.14127647887E+02 -0.60994325324E+01  0.81865048312E+02  0.83298737369E+02  0.00000000000E+00 0. -1.
         22    1    3    3    0    0  0.12096537990E+03  0.87261343698E+02  0.14029999825E+03  0.20477122539E+03  0.00000000000E+00 0. -1.
</event>
<event>
 7    1  0.5950675E-006  0.2139654E+03  0.7818608E-02  0.1271262E+00
          2   -1    0    0  502    0  0.00000000000E+00  0.00000000000E+00  0.20837540419E+03  0.20837540419E+03  0.00000000000E+00 0. -1.
          1   -1    0    0  501    0 -0.00000000000E+00 -0.00000000000E+00 -0.13088326810E+04  0.13088326810E+04  0.00000000000E+00 0. -1.
         25    2    1    2    0    0 -0.61627710792E+02 -0.17370920257E+03 -0.28827005376E+03  0.36427565393E+03  0.12499706539E+03 0.  0.
          2    1    1    2  501    0 -0.47476869139E+02 -0.18520661627E+02 -0.90985537698E+03  0.91128144666E+03  0.00000000000E+00 0. -1.
          1    1    1    2  502    0  0.10910457993E+03  0.19222986419E+03  0.97668153957E+02  0.24165098458E+03  0.00000000000E+00 0. -1.
         22    1    3    3    0    0 -0.99815109194E+02 -0.11795559004E+03 -0.21261326475E+03  0.26283260375E+03  0.00000000000E+00 0.  1.
         22    1    3    3    0    0  0.38187398402E+02 -0.55753612528E+02 -0.75656789011E+02  0.10144305018E+03  0.00000000000E+00 0.  1.
</event>
<event>
 7    1  0.5950675E-006  0.1408344E+03  0.7818608E-02  0.1274060E+00
          2   -1    0    0  502    0  0.00000000000E+00  0.00000000000E+00  0.88454635500E+03  0.88454635500E+03  0.00000000000E+00 0. -1.
          1   -1    0    0  501    0 -0.00000000000E+00 -0.00000000000E+00 -0.12779744538E+04  0.12779744538E+04  0.00000000000E+00 0. -1.
         25    2    1    2    0    0 -0.41981924603E+02 -0.11876659469E+03 -0.10680382671E+03  0.20712281636E+03  0.12499927060E+03 0.  0.
          2    1    1    2  501    0  0.72662846812E+02 -0.20004255380E+02 -0.11136763180E+04  0.11162235443E+04  0.00000000000E+00 0. -1.
          1    1    1    2  502    0 -0.30680922209E+02  0.13877085007E+03  0.82705204590E+03  0.83917444816E+03  0.00000000000E+00 0. -1.
         22    1    3    3    0    0 -0.40634390928E+02 -0.11564873407E+03 -0.24818234291E+02  0.12506689479E+03  0.00000000000E+00 0.  1.
         22    1    3    3    0    0 -0.13475336748E+01 -0.31178606198E+01 -0.81985592414E+02  0.82055921574E+02  0.00000000000E+00 0.  1.
</event>
<event>
 7    1  0.1312603E-005  0.7743215E+02  0.7818608E-02  0.1448572E+00
          2   -1    0    0  502    0  0.00000000000E+00  0.00000000000E+00  0.24640517304E+04  0.24640517304E+04  0.00000000000E+00 0. -1.
          1   -1    0    0  501    0 -0.00000000000E+00 -0.00000000000E+00 -0.19355751175E+04  0.19355751175E+04  0.00000000000E+00 0. -1.
         25    2    1    2    0    0  0.37256636842E+02 -0.48733618341E+02 -0.23044032421E+03  0.26924389161E+03  0.12500603026E+03 0.  0.
          2    1    1    2  501    0  0.29879046495E+02  0.10049498758E+02 -0.16849715831E+04  0.16852664436E+04  0.00000000000E+00 0. -1.
          1    1    1    2  502    0 -0.67135683337E+02  0.38684119583E+02  0.24438885203E+04  0.24451165127E+04  0.00000000000E+00 0. -1.
         22    1    3    3    0    0 -0.25687644289E+02  0.28260786895E+02 -0.83427688918E+02  0.91753509051E+02  0.00000000000E+00 0. -1.
         22    1    3    3    0    0  0.62944281131E+02 -0.76994405235E+02 -0.14701263529E+03  0.17749038255E+03  0.00000000000E+00 0. -1.
</event>
<event>
 7    1  0.5950675E-006  0.1439844E+03  0.7818608E-02  0.1303237E+00
          2   -1    0    0  502    0  0.00000000000E+00  0.00000000000E+00  0.43344680039E+03  0.43344680039E+03  0.00000000000E+00 0. -1.
          1   -1    0    0  501    0 -0.00000000000E+00 -0.00000000000E+00 -0.73161917827E+03  0.73161917827E+03  0.00000000000E+00 0. -1.
         25    2    1    2    0    0 -0.18175149547E+03 -0.52263316512E+02 -0.84506413594E+02  0.24193150044E+03  0.12499782640E+03 0.  0.
          2    1    1    2  501    0  0.42263714630E+02  0.36826838166E+02 -0.55304748148E+03  0.55588124123E+03  0.00000000000E+00 0. -1.
          1    1    1    2  502    0  0.13948778084E+03  0.15436478345E+02  0.33938151719E+03  0.36725323699E+03  0.00000000000E+00 0. -1.
         22    1    3    3    0    0 -0.77291721426E+02 -0.51889309575E+02 -0.99660993891E+02  0.13637750677E+03  0.00000000000E+00 0. -1.
         22    1    3    3    0    0 -0.10445977405E+03 -0.37400693618E+00  0.15154580297E+02  0.10555399367E+03  0.00000000000E+00 0. -1.
</event>
<event>
 7    1  0.5950675E-006  0.7805974E+02  0.7818608E-02  0.1441460E+00
          2   -1    0    0  502    0  0.00000000000E+00  0.00000000000E+00  0.24142455791E+04  0.24142455791E+04  0.00000000000E+00 0. -1.
          1   -1    0    0  501    0 -0.00000000000E+00 -0.00000000000E+00 -0.28184601217E+03  0.28184601217E+03  0.00000000000E+00 0. -1.
         25    2    1    2    0    0 -0.80942961861E+02 -0.29921012292E+02 -0.66895100068E+02  0.16593309814E+03  0.12494722323E+03 0.  0.
          2    1    1    2  501    0  0.23594044516E+02 -0.23021527837E+02 -0.16313884161E+03  0.16643602772E+03  0.00000000000E+00 0. -1.
          1    1    1    2  502    0  0.57348917346E+02  0.52942540129E+02  0.23624335086E+04  0.23637224654E+04  0.00000000000E+00 0. -1.
         22    1    3    3    0    0 -0.44715406755E+02 -0.60270266697E+02  0.99655055358E+01  0.75705243871E+02  0.00000000000E+00 0. -1.
         22    1    3    3    0    0 -0.36227555106E+02  0.30349254405E+02 -0.76860605604E+02  0.90227854268E+02  0.00000000000E+00 0. -1.
</event>
<event>
 7    1  0.5950675E-006  0.5972018E+02  0.7818608E-02  0.1455847E+00
          2   -1    0    0  502    0  0.00000000000E+00  0.00000000000E+00  0.18743983065E+02  0.18743983065E+02  0.00000000000E+00 0. -1.
          1   -1    0    0  501    0 -0.00000000000E+00 -0.00000000000E+00 -0.13209925294E+04  0.13209925294E+04  0.00000000000E+00 0. -1.
         25    2    1    2    0    0  0.41498663174E+01  0.38663097413E+02 -0.42651644237E+03  0.44615405839E+03  0.12500044685E+03 0.  0.
          2    1    1    2  501    0 -0.41973051400E+02 -0.47072177979E+02 -0.83495067053E+03  0.83732917613E+03  0.00000000000E+00 0. -1.
          1    1    1    2  502    0  0.37823185082E+02  0.84090805660E+01 -0.40781433404E+02  0.56253277916E+02  0.00000000000E+00 0. -1.
         22    1    3    3    0    0  0.41199667568E+02 -0.12316475687E+02 -0.57531757378E+02  0.71826257650E+02  0.00000000000E+00 0.  1.
         22    1    3    3    0    0 -0.37049801251E+02  0.50979573100E+02 -0.36898468499E+03  0.37432780074E+03  0.00000000000E+00 0.  1.
</event>
<event>
 7    1  0.5950675E-006  0.2809317E+02  0.7818608E-02  0.1638415E+00
          2   -1    0    0  502    0  0.00000000000E+00  0.00000000000E+00  0.36535133801E+03  0.36535133801E+03  0.00000000000E+00 0. -1.
          1   -1    0    0  501    0 -0.00000000000E+00 -0.00000000000E+00 -0.14761679111E+03  0.14761679111E+03  0.00000000000E+00 0. -1.
         25    2    1    2    0    0  0.38034536911E+02  0.27947752523E+02  0.55041543034E+02  0.14448544831E+03  0.12497507930E+03 0.  0.
          2    1    1    2  501    0 -0.25058829064E+02 -0.32992077062E+01 -0.10059682953E+03  0.10372343900E+03  0.00000000000E+00 0. -1.
          1    1    1    2  502    0 -0.12975707847E+02 -0.24648544816E+02  0.26328983340E+03  0.26475924182E+03  0.00000000000E+00 0. -1.
         22    1    3    3    0    0  0.57595935891E+02  0.97177425644E+00 -0.21119695255E+02  0.61353709782E+02  0.00000000000E+00 0.  1.
         22    1    3    3    0    0 -0.19561398980E+02  0.26975978266E+02  0.76161238289E+02  0.83131738531E+02  0.00000000000E+00 0.  1.
</event>
<event>
 7    1  0.5950675E-006  0.7138683E+02  0.7818608E-02  0.1474928E+00
          2   -1    0    0  502    0  0.00000000000E+00  0.00000000000E+00  0.45170968250E+03  0.45170968250E+03  0.00000000000E+00 0. -1.
          1   -1    0    0  501    0 -0.00000000000E+00 -0.00000000000E+00 -0.12225900259E+03  0.12225900259E+03  0.00000000000E+00 0. -1.
         25    2    1    2    0    0 -0.16115959665E+02  0.65386083458E+02  0.51283743701E+02  0.15096706830E+03  0.12500387705E+03 0.  0.
          2    1    1    2  501    0  0.27656762989E+02  0.57514492301E+01 -0.65778198688E+02  0.71587339173E+02  0.00000000000E+00 0. -1.
          1    1    1    2  502    0 -0.11540803323E+02 -0.71137532688E+02  0.34394513489E+03  0.35141427762E+03  0.00000000000E+00 0. -1.
         22    1    3    3    0    0  0.48057748484E+02  0.63173489984E+00  0.32122646904E+02  0.57808396643E+02  0.00000000000E+00 0.  1.
         22    1    3    3    0    0 -0.64173708149E+02  0.64754348558E+02  0.19161096796E+02  0.93158671659E+02  0.00000000000E+00 0.  1.
</event>
<event>
 7    1  0.5950675E-006  0.5417367E+02  0.7818608E-02  0.1563179E+00
          2   -1    0    0  502    0  0.00000000000E+00  0.00000000000E+00  0.27855549000E+04  0.27855549000E+04  0.00000000000E+00 0. -1.
          1   -1    0    0  501    0 -0.00000000000E+00 -0.00000000000E+00 -0.20510428935E+03  0.20510428935E+03  0.00000000000E+00 0. -1.
         25    2    1    2    0    0  0.48073289302E+02  0.38506680359E+02 -0.22178107670E+02  0.14111536855E+03  0.12501149229E+03 0.  0.
          2    1    1    2  501    0 -0.19251483424E+02  0.73480254319E+01 -0.12232674425E+03  0.12405017312E+03  0.00000000000E+00 0. -1.
          1    1    1    2  502    0 -0.28821805879E+02 -0.45854705791E+02  0.27249554625E+04  0.27254936476E+04  0.00000000000E+00 0. -1.
         22    1    3    3    0    0  0.66225915294E+02  0.21211570210E+02  0.35606491126E+02  0.78125698574E+02  0.00000000000E+00 0.  1.
         22    1    3    3    0    0 -0.18152625992E+02  0.17295110148E+02 -0.57784598795E+02  0.62989669974E+02  0.00000000000E+00 0.  1.
</event>
<event>
 7    1  0.5950675E-006  0.4206484E+02  0.7818608E-02  0.1583460E+00
          2   -1    0    0  502    0  0.00000000000E+00  0.00000000000E+00  0.20214467950E+04  0.20214467950E+04  0.00000000000E+00 0. -1.
          1   -1    0    0  501    0 -0.00000000000E+00 -0.00000000000E+00 -0.26647540375E+02  0.26647540375E+02  0.00000000000E+00 0. -1.
         25    2    1    2    0    0 -0.13275117805E+02 -0.54348522497E+02  0.18397205200E+04  0.18448104300E+04  0.12499576194E+03 0.  0.
          2    1    1    2  501    0 -0.62646662169E+01  0.41494402778E+02 -0.43126429376E+01  0.42185665738E+02  0.00000000000E+00 0. -1.
          1    1    1    2  502    0  0.19539784022E+02  0.12854119720E+02  0.15939137763E+03  0.16109823965E+03  0.00000000000E+00 0. -1.
         22    1    3    3    0    0 -0.39815543231E+02  0.18298779403E+02  0.30381555605E+03  0.30695930497E+03  0.00000000000E+00 0.  1.
         22    1    3    3    0    0  0.26540425426E+02 -0.72647301901E+02  0.15359049639E+04  0.15378511251E+04  0.00000000000E+00 0.  1.
</event>
<event>
 7    1  0.5950675E-006  0.1795836E+03  0.7818608E-02  0.1249512E+00
          2   -1    0    0  502    0  0.00000000000E+00  0.00000000000E+00  0.13690374828E+03  0.13690374828E+03  0.00000000000E+00 0. -1.
          1   -1    0    0  501    0 -0.00000000000E+00 -0.00000000000E+00 -0.76620158389E+03  0.76620158389E+03  0.00000000000E+00 0. -1.
         25    2    1    2    0    0  0.22758706228E+03 -0.76244820620E+02 -0.36978057674E+03  0.45822661930E+03  0.12499926445E+03 0.  0.
          2    1    1    2  501    0 -0.63454915119E+02  0.40316007296E+02 -0.26631474222E+03  0.27672269264E+03  0.00000000000E+00 0. -1.
          1    1    1    2  502    0 -0.16413214716E+03  0.35928813323E+02  0.67974833557E+01  0.16815602022E+03  0.00000000000E+00 0. -1.
         22    1    3    3    0    0  0.15927152439E+03 -0.92232823853E+02 -0.32924915468E+03  0.37719930823E+03  0.00000000000E+00 0. -1.
         22    1    3    3    0    0  0.68315537886E+02  0.15988003233E+02 -0.40531422067E+02  0.81027311067E+02  0.00000000000E+00 0. -1.
</event>
<event>
 7    1  0.5950675E-006  0.1283925E+03  0.7818608E-02  0.1277752E+00
          2   -1    0    0  502    0  0.00000000000E+00  0.00000000000E+00  0.16219394596E+04  0.16219394596E+04  0.00000000000E+00 0. -1.
          1   -1    0    0  501    0 -0.00000000000E+00 -0.00000000000E+00 -0.86221944948E+03  0.86221944948E+03  0.00000000000E+00 0. -1.
         25    2    1    2    0    0  0.48579874229E+02  0.63820339784E+02 -0.74763309487E+02  0.16626334704E+03  0.12498363162E+03 0.  0.
          2    1    1    2  501    0  0.75515754836E+02 -0.25789154367E+02 -0.73687642355E+03  0.74118457438E+03  0.00000000000E+00 0. -1.
          1    1    1    2  502    0 -0.12409562906E+03 -0.38031185417E+02  0.15713597432E+04  0.15767109877E+04  0.00000000000E+00 0. -1.
         22    1    3    3    0    0  0.47494171366E+02 -0.16332921323E+02  0.82127091056E+01  0.50891150739E+02  0.00000000000E+00 0. -1.
         22    1    3    3    0    0  0.10857028630E+01  0.80153261107E+02 -0.82976018593E+02  0.11537219630E+03  0.00000000000E+00 0. -1.
</event>
<event>
 7    1  0.5950675E-006  0.1544726E+03  0.7818608E-02  0.1261244E+00
          2   -1    0    0  502    0  0.00000000000E+00  0.00000000000E+00  0.21339529732E+04  0.21339529732E+04  0.00000000000E+00 0. -1.
          1   -1    0    0  501    0 -0.00000000000E+00 -0.00000000000E+00 -0.35694782881E+03  0.35694782881E+03  0.00000000000E+00 0. -1.
         25    2    1    2    0    0  0.11327407473E+03  0.79708237570E+01  0.25989187347E+03  0.30994308115E+03  0.12500551037E+03 0.  0.
          2    1    1    2  501    0 -0.14482296711E+03  0.63161239896E+02 -0.31224627017E+03  0.34994394874E+03  0.00000000000E+00 0. -1.
          1    1    1    2  502    0  0.31548892379E+02 -0.71132063653E+02  0.18293595411E+04  0.18310137721E+04  0.00000000000E+00 0. -1.
         22    1    3    3    0    0 -0.18860297777E+02 -0.20205564812E+02  0.18329034873E+02  0.33165180551E+02  0.00000000000E+00 0.  1.
         22    1    3    3    0    0  0.13213437251E+03  0.28176388569E+02  0.24156283860E+03  0.27677790060E+03  0.00000000000E+00 0.  1.
</event>
<event>
 7    1  0.5950675E-006  0.1187916E+03  0.7818608E-02  0.1271949E+00
          2   -1    0    0  502    0  0.00000000000E+00  0.00000000000E+00  0.99134052074E+03  0.99134052074E+03  0.00000000000E+00 0. -1.
          1   -1    0    0  501    0 -0.00000000000E+00 -0.00000000000E+00 -0.20762785797E+04  0.20762785797E+04  0.00000000000E+00 0. -1.
         25    2    1    2    0    0  0.43420284258E+02 -0.13198572063E+02  0.89690631336E+02  0.16040165141E+03  0.12499902814E+03 0.  0.
          2    1    1    2  501    0 -0.62654226073E+02  0.10233196377E+03 -0.20367529982E+04  0.20402843327E+04  0.00000000000E+00 0. -1.
          1    1    1    2  502    0  0.19233941815E+02 -0.89133391703E+02  0.86212430784E+03  0.86693311633E+03  0.00000000000E+00 0. -1.
         22    1    3    3    0    0  0.96149875490E+01 -0.67160838897E+02  0.34390212886E+02  0.76063874535E+02  0.00000000000E+00 0.  1.
         22    1    3    3    0    0  0.33805296709E+02  0.53962266834E+02  0.55300418450E+02  0.84337776875E+02  0.00000000000E+00 0.  1.
</event>
<event>
 7    1  0.5950675E-006  0.1344471E+03  0.7818608E-02  0.1343899E+00
          2   -1    0    0  502    0  0.00000000000E+00  0.00000000000E+00  0.17049464892E+04  0.17049464892E+04  0.00000000000E+00 0. -1.
          1   -1    0    0  501    0 -0.00000000000E+00 -0.00000000000E+00 -0.84974317265E+03  0.84974317265E+03  0.00000000000E+00 0. -1.
         25    2    1    2    0    0  0.64856214773E+01 -0.11104558190E+03 -0.18189302238E+03  0.24715096522E+03  0.12500137388E+03 0.  0.
          2    1    1    2  501    0 -0.41141831861E+02  0.13446617628E+03 -0.62717293399E+03  0.64274387747E+03  0.00000000000E+00 0. -1.
          1    1    1    2  502    0  0.34656210383E+02 -0.23420594381E+02  0.16642692729E+04  0.16647948192E+04  0.00000000000E+00 0. -1.
         22    1    3    3    0    0 -0.19708860457E+01  0.13486658313E+02 -0.92804074547E+02  0.93799630046E+02  0.00000000000E+00 0. -1.
         22    1    3    3    0    0  0.84565075230E+01 -0.12453224022E+03 -0.89088947832E+02  0.15335133517E+03  0.00000000000E+00 0. -1.
</event>
<event>
 7    1  0.5950675E-006  0.1293966E+03  0.7818608E-02  0.1353077E+00
          2   -1    0    0  502    0  0.00000000000E+00  0.00000000000E+00  0.39384261435E+04  0.39384261435E+04  0.00000000000E+00 0. -1.
          1   -1    0    0  501    0 -0.00000000000E+00 -0.00000000000E+00 -0.66009237472E+03  0.66009237472E+03  0.00000000000E+00 0. -1.
         25    2    1    2    0    0  0.91788899698E-01 -0.10279107263E+03  0.18101079612E+03  0.24281006764E+03  0.12500323036E+03 0.  0.
          2    1    1    2  501    0 -0.32507203700E+02 -0.23615955046E+02 -0.62740745110E+03  0.62869272409E+03  0.00000000000E+00 0. -1.
          1    1    1    2  502    0  0.32415414800E+02  0.12640702767E+03  0.37247304238E+04  0.37270157265E+04  0.00000000000E+00 0. -1.
         22    1    3    3    0    0 -0.43856065506E+02 -0.60845445064E+02  0.16302536405E+03  0.17945136386E+03  0.00000000000E+00 0. -1.
         22    1    3    3    0    0  0.43947854406E+02 -0.41945627565E+02  0.17985432067E+02  0.63358703785E+02  0.00000000000E+00 0. -1.
</event>
<event>
 7    1  0.5950675E-006  0.6275063E+02  0.7818608E-02  0.1436283E+00
          2   -1    0    0  502    0  0.00000000000E+00  0.00000000000E+00  0.64071919232E+03  0.64071919232E+03  0.00000000000E+00 0. -1.
          1   -1    0    0  501    0 -0.00000000000E+00 -0.00000000000E+00 -0.99576516797E+03  0.99576516797E+03  0.00000000000E+00 0. -1.
         25    2    1    2    0    0  0.13790766294E+02  0.32200241156E+02 -0.91317784031E+02  0.15871677945E+03  0.12500015053E+03 0.  0.
          2    1    1    2  501    0  0.42491175179E+02 -0.34019278204E+01 -0.86857762221E+03  0.86962299814E+03  0.00000000000E+00 0. -1.
          1    1    1    2  502    0 -0.56281941473E+02 -0.28798313336E+02  0.60484943059E+03  0.60814458270E+03  0.00000000000E+00 0. -1.
         22    1    3    3    0    0 -0.55381914146E+02  0.23036005686E+02 -0.39877019888E+02  0.72027707777E+02  0.00000000000E+00 0.  1.
         22    1    3    3    0    0  0.69172680440E+02  0.91642354706E+01 -0.51440764144E+02  0.86689071668E+02  0.00000000000E+00 0.  1.
</event>
<event>
 7    1  0.5950675E-006  0.6502355E+02  0.7818608E-02  0.1403879E+00
          2   -1    0    0  502    0  0.00000000000E+00  0.00000000000E+00  0.20076228465E+03  0.20076228465E+03  0.00000000000E+00 0. -1.
          1   -1    0    0  501    0 -0.00000000000E+00 -0.00000000000E+00 -0.12529889769E+04  0.12529889769E+04  0.00000000000E+00 0. -1.
         25    2    1    2    0    0 -0.10771625471E+03  0.40158444724E+02 -0.79357238572E+02  0.18745549865E+03  0.12500600166E+03 0.  0.
          2    1    1    2  501    0  0.50843396774E+02 -0.14162643533E+02 -0.11122651235E+04  0.11135166529E+04  0.00000000000E+00 0. -1.
          1    1    1    2  502    0  0.56872857934E+02 -0.25995801191E+02  0.13939566986E+03  0.15277910991E+03  0.00000000000E+00 0. -1.
         22    1    3    3    0    0 -0.99358919763E+02  0.17210166027E+02 -0.10936948426E+03  0.14876178555E+03  0.00000000000E+00 0. -1.
         22    1    3    3    0    0 -0.83573349447E+01  0.22948278697E+02  0.30012245690E+02  0.38693713106E+02  0.00000000000E+00 0. -1.
</event>
<event>
 7    1  0.5950675E-006  0.5413770E+02  0.7818608E-02  0.1523220E+00
          2   -1    0    0  502    0  0.00000000000E+00  0.00000000000E+00  0.13151606879E+03  0.13151606879E+03  0.00000000000E+00 0. -1.
          1   -1    0    0  501    0 -0.00000000000E+00 -0.00000000000E+00 -0.14087046109E+03  0.14087046109E+03  0.00000000000E+00 0. -1.
         25    2    1    2    0    0 -0.76705499936E+01  0.69222513874E+02  0.31432986059E+02  0.14649939485E+03  0.12499378510E+03 0.  0.
          2    1    1    2  501    0 -0.13215223958E+02 -0.23219326783E+02 -0.64694402333E+02  0.69993892403E+02  0.00000000000E+00 0. -1.
          1    1    1    2  502    0  0.20885773951E+02 -0.46003187091E+02  0.23907023980E+02  0.55893242629E+02  0.00000000000E+00 0. -1.
         22    1    3    3    0    0 -0.26221995906E+02  0.88615506072E+02  0.57699274613E+02  0.10894726833E+03  0.00000000000E+00 0. -1.
         22    1    3    3    0    0  0.18551445913E+02 -0.19392992198E+02 -0.26266288554E+02  0.37552126521E+02  0.00000000000E+00 0. -1.
</event>
<event>
 7    1  0.5950675E-006  0.2614393E+02  0.7818608E-02  0.1692616E+00
          2   -1    0    0  502    0  0.00000000000E+00  0.00000000000E+00  0.86573275171E+03  0.86573275171E+03  0.00000000000E+00 0. -1.
          1   -1    0    0  501    0 -0.00000000000E+00 -0.00000000000E+00 -0.57444917931E+03  0.57444917931E+03  0.00000000000E+00 0. -1.
         25    2    1    2    0    0 -0.82438962920E+01  0.32741206534E+01  0.14557252910E+03  0.19208007291E+03  0.12499884595E+03 0.  0.
          2    1    1    2  501    0 -0.50660046891E+01  0.19466148645E+02 -0.55076269526E+03  0.55112987747E+03  0.00000000000E+00 0. -1.
          1    1    1    2  502    0  0.13309900981E+02 -0.22740269299E+02  0.69647373855E+03  0.69697198065E+03  0.00000000000E+00 0. -1.
         22    1    3    3    0    0 -0.50324529766E+02  0.43890882107E+02  0.74822615583E+02  0.10028654761E+03  0.00000000000E+00 0. -1.
         22    1    3    3    0    0  0.42080633474E+02 -0.40616761453E+02  0.70749913517E+02  0.91793525301E+02  0.00000000000E+00 0. -1.
</event>
<event>
 7    1  0.5950675E-006  0.1157945E+03  0.7818608E-02  0.1312010E+00
          2   -1    0    0  502    0  0.00000000000E+00  0.00000000000E+00  0.26593714708E+03  0.26593714708E+03  0.00000000000E+00 0. -1.
          1   -1    0    0  501    0 -0.00000000000E+00 -0.00000000000E+00 -0.13783933789E+04  0.13783933789E+04  0.00000000000E+00 0. -1.
         25    2    1    2    0    0  0.11596311746E+03  0.11213827425E+03  0.50135780606E+02  0.21014093543E+03  0.12499271612E+03 0.  0.
          2    1    1    2  501    0 -0.59996841265E+02 -0.23269573328E+02 -0.12771533088E+04  0.12787735015E+04  0.00000000000E+00 0. -1.
          1    1    1    2  502    0 -0.55966276196E+02 -0.88868700925E+02  0.11456129642E+03  0.15541608898E+03  0.00000000000E+00 0. -1.
         22    1    3    3    0    0  0.30555465466E+01  0.39080603348E+02  0.63889831956E+02  0.74956924631E+02  0.00000000000E+00 0. -1.
         22    1    3    3    0    0  0.11290757091E+03  0.73057670905E+02 -0.13754051351E+02  0.13518401080E+03  0.00000000000E+00 0. -1.
</event>
<event>
 7    1  0.5950675E-006  0.4685634E+02  0.7818608E-02  0.1516316E+00
          2   -1    0    0  502    0  0.00000000000E+00  0.00000000000E+00  0.15912944848E+03  0.15912944848E+03  0.00000000000E+00 0. -1.
          1   -1    0    0  501    0 -0.00000000000E+00 -0.00000000000E+00 -0.75219660149E+03  0.75219660149E+03  0.00000000000E+00 0. -1.
         25    2    1    2    0    0  0.33385533977E+01 -0.23278613737E+02 -0.68325157331E+02  0.14438432611E+03  0.12500186681E+03 0.  0.
          2    1    1    2  501    0 -0.26060626446E+02 -0.19128294571E+02 -0.64063980206E+03  0.64145491181E+03  0.00000000000E+00 0. -1.
          1    1    1    2  502    0  0.22722073049E+02  0.42406908308E+02  0.11589780638E+03  0.12548681205E+03  0.00000000000E+00 0. -1.
         22    1    3    3    0    0 -0.58729077620E+02 -0.45990730976E+01 -0.49344402733E+02  0.76844818384E+02  0.00000000000E+00 0.  1.
         22    1    3    3    0    0  0.62067631018E+02 -0.18679540639E+02 -0.18980754598E+02  0.67539507725E+02  0.00000000000E+00 0.  1.
</event>
<event>
 7    1  0.1024084E-005  0.5729876E+02  0.7818608E-02  0.1457049E+00
          2   -1    0    0  502    0  0.00000000000E+00  0.00000000000E+00  0.68970102300E+03  0.68970102300E+03  0.00000000000E+00 0. -1.
          1   -1    0    0  501    0 -0.00000000000E+00 -0.00000000000E+00 -0.22834105492E+04  0.22834105492E+04  0.00000000000E+00 0. -1.
         25    2    1    2    0    0  0.35926893687E+02 -0.29525642570E+02 -0.60890194837E+03  0.62333627096E+03  0.12499607477E+03 0.  0.
          2    1    1    2  501    0  0.21249175322E+02  0.33926172334E+02 -0.16658459590E+04  0.16663268802E+04  0.00000000000E+00 0. -1.
          1    1    1    2  502    0 -0.57176069009E+02 -0.44005297634E+01  0.68103838119E+03  0.68344842101E+03  0.00000000000E+00 0. -1.
         22    1    3    3    0    0  0.79020728612E+02 -0.30526482734E+02 -0.48000301289E+03  0.48742079775E+03  0.00000000000E+00 0. -1.
         22    1    3    3    0    0 -0.43093834925E+02  0.10008401635E+01 -0.12889893548E+03  0.13591547321E+03  0.00000000000E+00 0. -1.
</event>
<event>
 7    1  0.5950675E-006  0.1324862E+03  0.7818608E-02  0.1234201E+00
          2   -1    0    0  502    0  0.00000000000E+00  0.00000000000E+00  0.44084653251E+04  0.44084653251E+04  0.00000000000E+00 0. -1.
          1   -1    0    0  501    0 -0.00000000000E+00 -0.00000000000E+00 -0.76841226076E+03  0.76841226076E+03  0.00000000000E+00 0. -1.
         25    2    1    2    0    0 -0.88990092045E+02 -0.23056612581E+03  0.61967300060E+03  0.67874886916E+03  0.12500169946E+03 0.  0.
          2    1    1    2  501    0  0.45848289883E+02  0.10980254156E+03 -0.73298156047E+03  0.74257702080E+03  0.00000000000E+00 0. -1.
          1    1    1    2  502    0  0.43141802162E+02  0.12076358425E+03  0.37533616242E+04  0.37555516959E+04  0.00000000000E+00 0. -1.
         22    1    3    3    0    0  0.19120759813E+02 -0.11050093326E+03  0.20420187395E+03  0.23296880700E+03  0.00000000000E+00 0.  1.
         22    1    3    3    0    0 -0.10811085186E+03 -0.12006519255E+03  0.41547112664E+03  0.44578006217E+03  0.00000000000E+00 0.  1.
</event>
<event>
 7    1  0.5950675E-006  0.5353026E+02  0.7818608E-02  0.1531893E+00
          2   -1    0    0  502    0  0.00000000000E+00  0.00000000000E+00  0.16696402266E+04  0.16696402266E+04  0.00000000000E+00 0. -1.
          1   -1    0    0  501    0 -0.00000000000E+00 -0.00000000000E+00 -0.40634010085E+02  0.40634010085E+02  0.00000000000E+00 0. -1.
         25    2    1    2    0    0 -0.70200804612E+00 -0.34717154375E+02  0.45193580503E+03  0.47018774552E+03  0.12499908217E+03 0.  0.
          2    1    1    2  501    0  0.20720157092E+02  0.50533669668E+02 -0.75987020631E+01  0.55142696280E+02  0.00000000000E+00 0. -1.
          1    1    1    2  502    0 -0.20018149046E+02 -0.15816515293E+02  0.11846691135E+04  0.11849437949E+04  0.00000000000E+00 0. -1.
         22    1    3    3    0    0 -0.57306815238E+02 -0.36882310075E+02  0.18125893898E+03  0.19364704705E+03  0.00000000000E+00 0. -1.
         22    1    3    3    0    0  0.56604807191E+02  0.21651557007E+01  0.27067686605E+03  0.27654069847E+03  0.00000000000E+00 0. -1.
</event>
<event>
 7    1  0.5950675E-006  0.9907229E+02  0.7818608E-02  0.1292600E+00
          2   -1    0    0  502    0  0.00000000000E+00  0.00000000000E+00  0.40949771751E+03  0.40949771751E+03  0.00000000000E+00 0. -1.
          1   -1    0    0  501    0 -0.00000000000E+00 -0.00000000000E+00 -0.51177719061E+03  0.51177719061E+03  0.00000000000E+00 0. -1.
         25    2    1    2    0    0  0.10550793986E+02  0.11965006915E+02 -0.75782781835E+02  0.14704500425E+03  0.12499889042E+03 0.  0.
          2    1    1    2  501    0  0.27109616369E+02  0.85706631967E+02 -0.38779243982E+03  0.39807478499E+03  0.00000000000E+00 0. -1.
          1    1    1    2  502    0 -0.37660410355E+02 -0.97671638882E+02  0.36129574855E+03  0.37615511889E+03  0.00000000000E+00 0. -1.
         22    1    3    3    0    0  0.32700520561E+02 -0.50077480152E+02 -0.30790055628E+02  0.67268905067E+02  0.00000000000E+00 0.  1.
         22    1    3    3    0    0 -0.22149726576E+02  0.62042487067E+02 -0.44992726207E+02  0.79776099179E+02  0.00000000000E+00 0.  1.
</event>
<event>
 7    1  0.5950675E-006  0.5010608E+02  0.7818608E-02  0.1513552E+00
          2   -1    0    0  502    0  0.00000000000E+00  0.00000000000E+00  0.14921995275E+02  0.14921995275E+02  0.00000000000E+00 0. -1.
          1   -1    0    0  501    0 -0.00000000000E+00 -0.00000000000E+00 -0.18774979003E+04  0.18774979003E+04  0.00000000000E+00 0. -1.
         25    2    1    2    0    0 -0.13338355163E+02 -0.33654449233E+02 -0.96003916959E+03  0.96881972204E+03  0.12500365189E+03 0.  0.
          2    1    1    2  501    0  0.43997229826E+02  0.30726011243E+02 -0.88786557541E+03  0.88948587622E+03  0.00000000000E+00 0. -1.
          1    1    1    2  502    0 -0.30658874662E+02  0.29284379900E+01 -0.14671160015E+02  0.34114297308E+02  0.00000000000E+00 0. -1.
         22    1    3    3    0    0  0.19095601275E+02  0.42404434423E+02 -0.29145836386E+03  0.29514531322E+03  0.00000000000E+00 0. -1.
         22    1    3    3    0    0 -0.32433956438E+02 -0.76058883656E+02 -0.66858080573E+03  0.67367440882E+03  0.00000000000E+00 0. -1.
</event>
<event>
 7    1  0.5950675E-006  0.1165330E+03  0.7818608E-02  0.1359314E+00
          2   -1    0    0  502    0  0.00000000000E+00  0.00000000000E+00  0.13727063016E+04  0.13727063016E+04  0.00000000000E+00 0. -1.
          1   -1    0    0  501    0 -0.00000000000E+00 -0.00000000000E+00 -0.10116013766E+03  0.10116013766E+03  0.00000000000E+00 0. -1.
         25    2    1    2    0    0  0.79657384130E+02 -0.25059385383E+02  0.30632320870E+03  0.34122263817E+03  0.12500283586E+03 0.  0.
          2    1    1    2  501    0 -0.12044151182E+03  0.13745183152E+02 -0.39143141491E+02  0.12738631542E+03  0.00000000000E+00 0. -1.
          1    1    1    2  502    0  0.40784127693E+02  0.11314202231E+02  0.10043660967E+04  0.10052574856E+04  0.00000000000E+00 0. -1.
         22    1    3    3    0    0  0.80354278474E+02  0.31584093098E+02  0.23356777631E+03  0.24901460025E+03  0.00000000000E+00 0.  1.
         22    1    3    3    0    0 -0.69689434385E+00 -0.56643478481E+02  0.72755432386E+02  0.92208037924E+02  0.00000000000E+00 0.  1.
</event>
<event>
 7    1  0.5950675E-006  0.5270484E+02  0.7818608E-02  0.1451584E+00
          2   -1    0    0  502    0  0.00000000000E+00  0.00000000000E+00  0.44916838168E+03  0.44916838168E+03  0.00000000000E+00 0. -1.
          1   -1    0    0  501    0 -0.00000000000E+00 -0.00000000000E+00 -0.59145949941E+03  0.59145949941E+03  0.00000000000E+00 0. -1.
         25    2    1    2    0    0 -0.29692598260E+02  0.37964705796E+02  0.48206235167E+01  0.13403926555E+03  0.12498126668E+03 0.  0.
          2    1    1    2  501    0  0.53150356441E+02  0.78556165008E+00 -0.52415030185E+03  0.52683879549E+03  0.00000000000E+00 0. -1.
          1    1    1    2  502    0 -0.23457758181E+02 -0.38750267446E+02  0.37703856061E+03  0.37974982005E+03  0.00000000000E+00 0. -1.
         22    1    3    3    0    0 -0.33309592593E+02  0.82398884274E+02 -0.22252592519E+01  0.88904762904E+02  0.00000000000E+00 0.  1.
         22    1    3    3    0    0  0.36169943335E+01 -0.44434178478E+02  0.70458827686E+01  0.45134502645E+02  0.00000000000E+00 0.  1.
</event>
<event>
 7    1  0.5950675E-006  0.1091694E+03  0.7818608E-02  0.1359166E+00
          2   -1    0    0  502    0  0.00000000000E+00  0.00000000000E+00  0.83384152862E+02  0.83384152862E+02  0.00000000000E+00 0. -1.
          1   -1    0    0  501    0 -0.00000000000E+00 -0.00000000000E+00 -0.23580219293E+04  0.23580219293E+04  0.00000000000E+00 0. -1.
         25    2    1    2    0    0 -0.30799516658E+02  0.12379185585E+03 -0.46466909880E+03  0.49781037509E+03  0.12499905747E+03 0.  0.
          2    1    1    2  501    0 -0.29665035943E+02 -0.34150301950E+02 -0.18325725412E+04  0.18331307581E+04  0.00000000000E+00 0. -1.
          1    1    1    2  502    0  0.60464552601E+02 -0.89641553905E+02  0.22603863554E+02  0.11046494899E+03  0.00000000000E+00 0. -1.
         22    1    3    3    0    0  0.22123805472E+02 -0.17098361902E+02 -0.65973271833E+02  0.71653955541E+02  0.00000000000E+00 0. -1.
         22    1    3    3    0    0 -0.52923322130E+02  0.14089021776E+03 -0.39869582696E+03  0.42615641955E+03  0.00000000000E+00 0. -1.
</event>
<event>
 7    1  0.5950675E-006  0.4921399E+02  0.7818608E-02  0.1474000E+00
          2   -1    0    0  502    0  0.00000000000E+00  0.00000000000E+00  0.26369408974E+03  0.26369408974E+03  0.00000000000E+00 0. -1.
          1   -1    0    0  501    0 -0.00000000000E+00 -0.00000000000E+00 -0.21514942533E+04  0.21514942533E+04  0.00000000000E+00 0. -1.
         25    2    1    2    0    0 -0.74196768086E+01  0.37450226728E+01 -0.12126302982E+04  0.12190835687E+04  0.12499372203E+03 0.  0.
          2    1    1    2  501    0 -0.40505056103E+02  0.77884280339E+01 -0.93284535232E+03  0.93375680481E+03  0.00000000000E+00 0. -1.
          1    1    1    2  502    0  0.47924732912E+02 -0.11533450707E+02  0.25767548699E+03  0.26234796951E+03  0.00000000000E+00 0. -1.
         22    1    3    3    0    0 -0.63980839919E+02 -0.41408757667E+01 -0.48569298193E+03  0.48990648845E+03  0.00000000000E+00 0. -1.
         22    1    3    3    0    0  0.56561163111E+02  0.78858984395E+01 -0.72693731629E+03  0.72917708026E+03  0.00000000000E+00 0. -1.
</event>
<event>
 7    1  0.5950675E-006  0.6597788E+02  0.7818608E-02  0.1521382E+00
          2   -1    0    0  502    0  0.00000000000E+00  0.00000000000E+00  0.94873007755E+03  0.94873007755E+03  0.00000000000E+00 0. -1.
          1   -1    0    0  501    0 -0.00000000000E+00 -0.00000000000E+00 -0.63748381640E+03  0.63748381640E+03  0.00000000000E+00 0. -1.
         25    2    1    2    0    0  0.26701943821E+02  0.45174373151E+02 -0.52864624601E+02  0.14551071205E+03  0.12499992397E+03 0.  0.
          2    1    1    2  501    0 -0.16138135791E+02 -0.64691271132E+02 -0.53609429906E+03  0.54022448804E+03  0.00000000000E+00 0. -1.
          1    1    1    2  502    0 -0.10563808030E+02  0.19516897981E+02  0.90020518481E+03  0.90047869387E+03  0.00000000000E+00 0. -1.
         22    1    3    3    0    0 -0.38912450902E+02  0.47292515891E+02 -0.32497289431E-01  0.61243464554E+02  0.00000000000E+00 0.  1.
         22    1    3    3    0    0  0.65614394723E+02 -0.21181427400E+01 -0.52832127311E+02  0.84267247491E+02  0.00000000000E+00 0.  1.
</event>
<event>
 7    1  0.5950675E-006  0.1318776E+03  0.7818608E-02  0.1266043E+00
          2   -1    0    0  502    0  0.00000000000E+00  0.00000000000E+00  0.14828233922E+04  0.14828233922E+04  0.00000000000E+00 0. -1.
          1   -1    0    0  501    0 -0.00000000000E+00 -0.00000000000E+00 -0.14738132415E+04  0.14738132415E+04  0.00000000000E+00 0. -1.
         25    2    1    2    0    0  0.38095422856E+02  0.11552540678E+03 -0.47824655603E+02  0.18085628223E+03  0.12499766511E+03 0.  0.
          2    1    1    2  501    0  0.48398607068E+02 -0.12463620826E+03 -0.13548438064E+04  0.13614251170E+04  0.00000000000E+00 0. -1.
          1    1    1    2  502    0 -0.86494029924E+02  0.91108014784E+01  0.14116786127E+04  0.14143552345E+04  0.00000000000E+00 0. -1.
         22    1    3    3    0    0  0.28854741124E+02 -0.14427039849E+02 -0.38518846095E+02  0.50243776416E+02  0.00000000000E+00 0.  1.
         22    1    3    3    0    0  0.92406817326E+01  0.12995244663E+03 -0.93058095082E+01  0.13061250581E+03  0.00000000000E+00 0.  1.
</event>
<event>
 7    1  0.5950675E-006  0.7707459E+02  0.7818608E-02  0.1494368E+00
          2   -1    0    0  502    0  0.00000000000E+00  0.00000000000E+00  0.70234256368E+03  0.70234256368E+03  0.00000000000E+00 0. -1.
          1   -1    0    0  501    0 -0.00000000000E+00 -0.00000000000E+00 -0.10213286239E+04  0.10213286239E+04  0.00000000000E+00 0. -1.
         25    2    1    2    0    0  0.47780272516E+02 -0.72309062786E+02  0.22565523416E+03  0.27213368358E+03  0.12499960813E+03 0.  0.
          2    1    1    2  501    0 -0.57252285617E+02  0.51540058962E+02 -0.99631435206E+03  0.99928799153E+03  0.00000000000E+00 0. -1.
          1    1    1    2  502    0  0.94720131012E+01  0.20769003824E+02  0.45167305765E+03  0.45224951250E+03  0.00000000000E+00 0. -1.
         22    1    3    3    0    0  0.86746646939E-01  0.18177527611E+02 -0.58029709227E+01  0.19081522648E+02  0.00000000000E+00 0.  1.
         22    1    3    3    0    0  0.47693525869E+02 -0.90486590397E+02  0.23145820509E+03  0.25305216093E+03  0.00000000000E+00 0.  1.
</event>
<event>
 7    1  0.5950675E-006  0.1934293E+03  0.7818608E-02  0.1242154E+00
          2   -1    0    0  502    0  0.00000000000E+00  0.00000000000E+00  0.28283970176E+04  0.28283970176E+04  0.00000000000E+00 0. -1.
          1   -1    0    0  501    0 -0.00000000000E+00 -0.00000000000E+00 -0.19186344526E+03  0.19186344526E+03  0.00000000000E+00 0. -1.
         25    2    1    2    0    0 -0.23724347750E+03 -0.34386229774E+02  0.86972820365E+02  0.28400155371E+03  0.12500292242E+03 0.  0.
          2    1    1    2  501    0  0.17399617325E+03 -0.62173752887E+01 -0.11132624014E+02  0.17446277362E+03  0.00000000000E+00 0. -1.
          1    1    1    2  502    0  0.63247304247E+02  0.40603605062E+02  0.25606933760E+04  0.25617961355E+04  0.00000000000E+00 0. -1.
         22    1    3    3    0    0 -0.20335792173E+03  0.15676449780E+02  0.91155827001E+02  0.22340452145E+03  0.00000000000E+00 0. -1.
         22    1    3    3    0    0 -0.33885555765E+02 -0.50062679554E+02 -0.41830066356E+01  0.60597032255E+02  0.00000000000E+00 0. -1.
</event>
<event>
 7    1  0.5950675E-006  0.4159743E+02  0.7818608E-02  0.1556078E+00
          2   -1    0    0  502    0  0.00000000000E+00  0.00000000000E+00  0.34860873845E+03  0.34860873845E+03  0.00000000000E+00 0. -1.
          1   -1    0    0  501    0 -0.00000000000E+00 -0.00000000000E+00 -0.17320008776E+03  0.17320008776E+03  0.00000000000E+00 0. -1.
         25    2    1    2    0    0  0.18221320563E+02 -0.28404556771E+02  0.28247977463E+03  0.31073723518E+03  0.12499588346E+03 0.  0.
          2    1    1    2  501    0 -0.40270295471E+02  0.11029599764E+02 -0.15225555612E+03  0.15787686068E+03  0.00000000000E+00 0. -1.
          1    1    1    2  502    0  0.22048974909E+02  0.17374957007E+02  0.45184432181E+02  0.53194730350E+02  0.00000000000E+00 0. -1.
         22    1    3    3    0    0  0.46240565843E+02 -0.52681482142E+02  0.86766399892E+02  0.11154342939E+03  0.00000000000E+00 0.  1.
         22    1    3    3    0    0 -0.28019245281E+02  0.24276925371E+02  0.19571337474E+03  0.19919380579E+03  0.00000000000E+00 0.  1.
</event>
<event>
 7    1  0.7103912E-006  0.1045455E+03  0.7818608E-02  0.1374992E+00
          2   -1    0    0  502    0  0.00000000000E+00  0.00000000000E+00  0.12369708125E+04  0.12369708125E+04  0.00000000000E+00 0. -1.
          1   -1    0    0  501    0 -0.00000000000E+00 -0.00000000000E+00 -0.18461140859E+04  0.18461140859E+04  0.00000000000E+00 0. -1.
         25    2    1    2    0    0  0.59823464940E+01 -0.13436275098E+03 -0.67034731057E+03  0.69503985799E+03  0.12500300031E+03 0.  0.
          2    1    1    2  501    0  0.14895012461E+02  0.98598050246E+02 -0.11609324608E+04  0.11652071126E+04  0.00000000000E+00 0. -1.
          1    1    1    2  502    0 -0.20877358955E+02  0.35764700737E+02  0.12221364979E+04  0.12228379277E+04  0.00000000000E+00 0. -1.
         22    1    3    3    0    0 -0.45598151895E+02 -0.43960617158E+02 -0.40650921695E+03  0.41141398954E+03  0.00000000000E+00 0.  1.
         22    1    3    3    0    0  0.51580498389E+02 -0.90402133825E+02 -0.26383809362E+03  0.28362586846E+03  0.00000000000E+00 0.  1.
</event>
<event>
 7    1  0.5950675E-006  0.5078377E+02  0.7818608E-02  0.1482182E+00
          2   -1    0    0  502    0  0.00000000000E+00  0.00000000000E+00  0.22472365873E+04  0.22472365873E+04  0.00000000000E+00 0. -1.
          1   -1    0    0  501    0 -0.00000000000E+00 -0.00000000000E+00 -0.81571642121E+02  0.81571642121E+02  0.00000000000E+00 0. -1.
         25    2    1    2    0    0  0.21985852478E+01  0.66887167555E+02  0.26711971104E+03  0.30241826994E+03  0.12500057202E+03 0.  0.
          2    1    1    2  501    0  0.26886741702E+02 -0.42866883606E+02 -0.53697567105E+02  0.73782757487E+02  0.00000000000E+00 0. -1.
          1    1    1    2  502    0 -0.29085326950E+02 -0.24020283948E+02  0.19522428013E+04  0.19526072020E+04  0.00000000000E+00 0. -1.
         22    1    3    3    0    0 -0.28876872854E+02  0.51154742714E+02  0.36447194156E+02  0.69130886367E+02  0.00000000000E+00 0. -1.
         22    1    3    3    0    0  0.31075458102E+02  0.15732424841E+02  0.23067251689E+03  0.23328738357E+03  0.00000000000E+00 0. -1.
</event>
<event>
 7    1  0.5950675E-006  0.5874949E+02  0.7818608E-02  0.1466143E+00
          2   -1    0    0  502    0  0.00000000000E+00  0.00000000000E+00  0.60704639656E+03  0.60704639656E+03  0.00000000000E+00 0. -1.
          1   -1    0    0  501    0 -0.00000000000E+00 -0.00000000000E+00 -0.26491484473E+03  0.26491484473E+03  0.00000000000E+00 0. -1.
         25    2    1    2    0    0  0.83218798976E+02  0.40969299349E+02  0.23569443085E+03  0.28245367359E+03  0.12499744396E+03 0.  0.
          2    1    1    2  501    0 -0.55846683930E+02 -0.16744254221E+02 -0.23703293754E+03  0.24409800415E+03  0.00000000000E+00 0. -1.
          1    1    1    2  502    0 -0.27372115046E+02 -0.24225045128E+02  0.34347005852E+03  0.34540956355E+03  0.00000000000E+00 0. -1.
         22    1    3    3    0    0 -0.23523200308E+02  0.16219301564E+02  0.11898542664E+03  0.12236804505E+03  0.00000000000E+00 0.  1.
         22    1    3    3    0    0  0.10674199928E+03  0.24749997786E+02  0.11670900421E+03  0.16008562854E+03  0.00000000000E+00 0.  1.
</event>
<event>
 7    1  0.5950675E-006  0.8625544E+02  0.7818608E-02  0.1337091E+00
          2   -1    0    0  502    0  0.00000000000E+00  0.00000000000E+00  0.65789392701E+03  0.65789392701E+03  0.00000000000E+00 0. -1.
          1   -1    0    0  501    0 -0.00000000000E+00 -0.00000000000E+00 -0.11567488249E+04  0.11567488249E+04  0.00000000000E+00 0. -1.
         25    2    1    2    0    0  0.18634496286E+01  0.11136941515E+03  0.11509291439E+03  0.20316989582E+03  0.12500003420E+03 0.  0.
          2    1    1    2  501    0 -0.54101952919E+02 -0.43074167493E+02 -0.11079184914E+04  0.11100746771E+04  0.00000000000E+00 0. -1.
          1    1    1    2  502    0  0.52238503291E+02 -0.68295247656E+02  0.49397067909E+03  0.50139817898E+03  0.00000000000E+00 0. -1.
         22    1    3    3    0    0  0.12618401354E+02 -0.24418879623E+02  0.47998329265E+01  0.27902403676E+02  0.00000000000E+00 0. -1.
         22    1    3    3    0    0 -0.10754951726E+02  0.13578829477E+03  0.11029308147E+03  0.17526749215E+03  0.00000000000E+00 0. -1.
</event>
<event>
 7    1  0.5950675E-006  0.7908853E+02  0.7818608E-02  0.1411058E+00
          2   -1    0    0  502    0  0.00000000000E+00  0.00000000000E+00  0.24150694418E+03  0.24150694418E+03  0.00000000000E+00 0. -1.
          1   -1    0    0  501    0 -0.00000000000E+00 -0.00000000000E+00 -0.24768985003E+04  0.24768985003E+04  0.00000000000E+00 0. -1.
         25    2    1    2    0    0 -0.11905548603E+02  0.11790239098E+03 -0.91924743810E+03  0.93524510731E+03  0.12499936966E+03 0.  0.
          2    1    1    2  501    0 -0.43582480630E+01 -0.40788414572E+02 -0.15427220771E+04  0.15432673444E+04  0.00000000000E+00 0. -1.
          1    1    1    2  502    0  0.16263796666E+02 -0.77113976409E+02  0.22657795908E+03  0.23989299277E+03  0.00000000000E+00 0. -1.
         22    1    3    3    0    0  0.41729965994E+01 -0.12140377469E+02 -0.91536317694E+01  0.15766789156E+02  0.00000000000E+00 0.  1.
         22    1    3    3    0    0 -0.16078545203E+02  0.13004276845E+03 -0.91009380633E+03  0.91947831815E+03  0.00000000000E+00 0.  1.
</event>
<event>
 7    1  0.5950675E-006  0.1493466E+03  0.7818608E-02  0.1222791E+00
          2   -1    0    0  502    0  0.00000000000E+00  0.00000000000E+00  0.51573975927E+03  0.51573975927E+03  0.00000000000E+00 0. -1.
          1   -1    0    0  501    0 -0.00000000000E+00 -0.00000000000E+00 -0.79346569078E+03  0.79346569078E+03  0.00000000000E+00 0. -1.
         25    2    1    2    0    0  0.96686946116E+01 -0.14939242999E+03 -0.33777563787E+03  0.39003736756E+03  0.12500073903E+03 0.  0.
          2    1    1    2  501    0  0.10631366098E+03  0.52993076795E+02 -0.40929690009E+03  0.42618635962E+03  0.00000000000E+00 0. -1.
          1    1    1    2  502    0 -0.11598235559E+03  0.96399353198E+02  0.46934660645E+03  0.49298172288E+03  0.00000000000E+00 0. -1.
         22    1    3    3    0    0  0.50932710703E+02 -0.40426988010E+02 -0.58650711811E+02  0.87569334673E+02  0.00000000000E+00 0.  1.
         22    1    3    3    0    0 -0.41264016091E+02 -0.10896544198E+03 -0.27912492606E+03  0.30246803288E+03  0.00000000000E+00 0.  1.
</event>
<event>
 7    1  0.5950675E-006  0.1022137E+03  0.7818608E-02  0.1331170E+00
          2   -1    0    0  502    0  0.00000000000E+00  0.00000000000E+00  0.12870267230E+03  0.12870267230E+03  0.00000000000E+00 0. -1.
          1   -1    0    0  501    0 -0.00000000000E+00 -0.00000000000E+00 -0.21012068449E+04  0.21012068449E+04  0.00000000000E+00 0. -1.
         25    2    1    2    0    0  0.48253986946E+02  0.18210587444E+02 -0.13019823084E+03  0.18771497906E+03  0.12500104519E+03 0.  0.
          2    1    1    2  501    0  0.60794133898E+02  0.90075482416E+01 -0.19100005489E+04  0.19109890527E+04  0.00000000000E+00 0. -1.
          1    1    1    2  502    0 -0.10904812084E+03 -0.27218135686E+02  0.67694607169E+02  0.13120548544E+03  0.00000000000E+00 0. -1.
         22    1    3    3    0    0  0.51255606345E+02  0.34190225815E+02 -0.14996028689E+03  0.16212401540E+03  0.00000000000E+00 0. -1.
         22    1    3    3    0    0 -0.30016193993E+01 -0.15979638371E+02  0.19762056055E+02  0.25590963660E+02  0.00000000000E+00 0. -1.
</event>
<event>
 7    1  0.5950675E-006  0.8268537E+02  0.7818608E-02  0.1396249E+00
          2   -1    0    0  502    0  0.00000000000E+00  0.00000000000E+00  0.60667906970E+03  0.60667906970E+03  0.00000000000E+00 0. -1.
          1   -1    0    0  501    0 -0.00000000000E+00 -0.00000000000E+00 -0.93110127900E+03  0.93110127900E+03  0.00000000000E+00 0. -1.
         25    2    1    2    0    0  0.88620248146E+02  0.18713557672E+02  0.27837764637E+03  0.31831190386E+03  0.12499843405E+03 0.  0.
          2    1    1    2  501    0 -0.93407441714E+01 -0.43089120019E+02 -0.90500987308E+03  0.90608321480E+03  0.00000000000E+00 0. -1.
          1    1    1    2  502    0 -0.79279503974E+02  0.24375562347E+02  0.30221001741E+03  0.31338523004E+03  0.00000000000E+00 0. -1.
         22    1    3    3    0    0  0.17845315599E+02 -0.33307604441E+02  0.18995528887E+03  0.19367721490E+03  0.00000000000E+00 0. -1.
         22    1    3    3    0    0  0.70774932547E+02  0.52021162113E+02  0.88422357505E+02  0.12463468896E+03  0.00000000000E+00 0. -1.
</event>
<event>
 7    1  0.5950675E-006  0.6801108E+02  0.7818608E-02  0.1438302E+00
          2   -1    0    0  502    0  0.00000000000E+00  0.00000000000E+00  0.24315981953E+04  0.24315981953E+04  0.00000000000E+00 0. -1.
          1   -1    0    0  501    0 -0.00000000000E+00 -0.00000000000E+00 -0.11123433980E+04  0.11123433980E+04  0.00000000000E+00 0. -1.
         25    2    1    2    0    0  0.36698916781E+02  0.66636514864E+01  0.88335338551E+03  0.89293190302E+03  0.12499185973E+03 0.  0.
          2    1    1    2  501    0  0.37013895826E+02 -0.11430856054E+02 -0.11063311534E+04  0.11070091752E+04  0.00000000000E+00 0. -1.
          1    1    1    2  502    0 -0.73712812607E+02  0.47672045671E+01  0.15422325653E+04  0.15440005150E+04  0.00000000000E+00 0. -1.
         22    1    3    3    0    0  0.16685613671E+02  0.37080976720E+01  0.10961582876E+02  0.20305565520E+02  0.00000000000E+00 0. -1.
         22    1    3    3    0    0  0.20013303109E+02  0.29555538144E+01  0.87239180263E+03  0.87262633750E+03  0.00000000000E+00 0. -1.
</event>
<event>
 7    1  0.5950675E-006  0.6886783E+02  0.7818608E-02  0.1473748E+00
          2   -1    0    0  502    0  0.00000000000E+00  0.00000000000E+00  0.34705563391E+03  0.34705563391E+03  0.00000000000E+00 0. -1.
          1   -1    0    0  501    0 -0.00000000000E+00 -0.00000000000E+00 -0.38591841871E+03  0.38591841871E+03  0.00000000000E+00 0. -1.
         25    2    1    2    0    0  0.73780108087E+01 -0.62398640824E+02 -0.11616252554E+02  0.14039207774E+03  0.12500789074E+03 0.  0.
          2    1    1    2  501    0 -0.36721723434E+02  0.59098192237E+02 -0.30521718943E+03  0.31304730317E+03  0.00000000000E+00 0. -1.
          1    1    1    2  502    0  0.29343712626E+02  0.33004485871E+01  0.27797065719E+03  0.27953467172E+03  0.00000000000E+00 0. -1.
         22    1    3    3    0    0 -0.33222903471E+02  0.21712842444E+02 -0.23682962163E+02  0.46217870341E+02  0.00000000000E+00 0.  1.
         22    1    3    3    0    0  0.40600914280E+02 -0.84111483268E+02  0.12066709608E+02  0.94174207396E+02  0.00000000000E+00 0.  1.
</event>
<event>
 7    1  0.5950675E-006  0.1449864E+03  0.7818608E-02  0.1242945E+00
          2   -1    0    0  502    0  0.00000000000E+00  0.00000000000E+00  0.47387927780E+03  0.47387927780E+03  0.00000000000E+00 0. -1.
          1   -1    0    0  501    0 -0.00000000000E+00 -0.00000000000E+00 -0.58240736896E+03  0.58240736896E+03  0.00000000000E+00 0. -1.
         25    2    1    2    0    0  0.36624940640E+01 -0.20186869691E+03  0.28141794157E+02  0.23912627017E+03  0.12500011141E+03 0.  0.
          2    1    1    2  501    0 -0.67042279417E+02  0.12520192521E+03 -0.45866540775E+03  0.48015012817E+03  0.00000000000E+00 0. -1.
          1    1    1    2  502    0  0.63379785353E+02  0.76666771694E+02  0.32199552243E+03  0.33701024842E+03  0.00000000000E+00 0. -1.
         22    1    3    3    0    0 -0.46522594824E+01  0.14632033007E+02  0.15925932001E+02  0.22121826740E+02  0.00000000000E+00 0.  1.
         22    1    3    3    0    0  0.83147535464E+01 -0.21650072992E+03  0.12215862156E+02  0.21700444343E+03  0.00000000000E+00 0.  1.
</event>
<event>
 7    1  0.5950675E-006  0.1208628E+03  0.7818608E-02  0.1325932E+00
          2   -1    0    0  502    0  0.00000000000E+00  0.00000000000E+00  0.43167899031E+03  0.43167899031E+03  0.00000000000E+00 0. -1.
          1   -1    0    0  501    0 -0.00000000000E+00 -0.00000000000E+00 -0.30075217386E+03  0.30075217386E+03  0.00000000000E+00 0. -1.
         25    2    1    2    0    0 -0.72424088149E+02 -0.54813150506E+02  0.82853483687E+02  0.17533249729E+03  0.12500821907E+03 0.  0.
          2    1    1    2  501    0  0.12137578195E+03  0.31011437889E+02 -0.23635851147E+03  0.26750539371E+03  0.00000000000E+00 0. -1.
          1    1    1    2  502    0 -0.48951693797E+02  0.23801712617E+02  0.28443184423E+03  0.28959327317E+03  0.00000000000E+00 0. -1.
         22    1    3    3    0    0 -0.81453623380E+02 -0.49219330245E+02  0.11043019606E+03  0.14578087472E+03  0.00000000000E+00 0. -1.
         22    1    3    3    0    0  0.90295352314E+01 -0.55938202606E+01 -0.27576712372E+02  0.29551622576E+02  0.00000000000E+00 0. -1.
</event>
<event>
 7    1  0.5950675E-006  0.5118949E+02  0.7818608E-02  0.1473608E+00
          2   -1    0    0  502    0  0.00000000000E+00  0.00000000000E+00  0.34272729347E+03  0.34272729347E+03  0.00000000000E+00 0. -1.
          1   -1    0    0  501    0 -0.00000000000E+00 -0.00000000000E+00 -0.26574499863E+03  0.26574499863E+03  0.00000000000E+00 0. -1.
         25    2    1    2    0    0  0.87757806865E+02 -0.59434735858E+01 -0.24037013898E+02  0.15472392494E+03  0.12499982947E+03 0.  0.
          2    1    1    2  501    0 -0.37860106056E+02  0.12163645590E+02 -0.17179569024E+03  0.17633803075E+03  0.00000000000E+00 0. -1.
          1    1    1    2  502    0 -0.49897700808E+02 -0.62201720046E+01  0.27281499898E+03  0.27741033642E+03  0.00000000000E+00 0. -1.
         22    1    3    3    0    0  0.53898426541E+02  0.26170861035E+02 -0.67985809313E+02  0.90620221909E+02  0.00000000000E+00 0.  1.
         22    1    3    3    0    0  0.33859380324E+02 -0.32114334620E+02  0.43948795414E+02  0.64103703032E+02  0.00000000000E+00 0.  1.
</event>
<event>
 7    1  0.5950675E-006  0.1383832E+03  0.7818608E-02  0.1377019E+00
          2   -1    0    0  502    0  0.00000000000E+00  0.00000000000E+00  0.85496286395E+02  0.85496286395E+02  0.00000000000E+00 0. -1.
          1   -1    0    0  501    0 -0.00000000000E+00 -0.00000000000E+00 -0.18799604379E+04  0.18799604379E+04  0.00000000000E+00 0. -1.
         25    2    1    2    0    0 -0.38158866636E+02  0.12557431259E+03 -0.11701200395E+04  0.11840742055E+04  0.12500324054E+03 0.  0.
          2    1    1    2  501    0  0.15870782088E+02 -0.14678847643E+03 -0.69172607773E+03  0.70730736258E+03  0.00000000000E+00 0. -1.
          1    1    1    2  502    0  0.22288084548E+02  0.21214163840E+02  0.67381965753E+02  0.74075156220E+02  0.00000000000E+00 0. -1.
         22    1    3    3    0    0  0.30922410593E+02  0.99141746282E+02 -0.56664014589E+03  0.57607841156E+03  0.00000000000E+00 0.  1.
         22    1    3    3    0    0 -0.69081277229E+02  0.26432566311E+02 -0.60347989366E+03  0.60799579396E+03  0.00000000000E+00 0.  1.
</event>
<event>
 7    1  0.5950675E-006  0.1096323E+03  0.7818608E-02  0.1287872E+00
          2   -1    0    0  502    0  0.00000000000E+00  0.00000000000E+00  0.13141468368E+04  0.13141468368E+04  0.00000000000E+00 0. -1.
          1   -1    0    0  501    0 -0.00000000000E+00 -0.00000000000E+00 -0.39315809139E+03  0.39315809139E+03  0.00000000000E+00 0. -1.
         25    2    1    2    0    0  0.14818679410E+03 -0.10701733686E+03 -0.17132426288E+03  0.27997996733E+03  0.12499897089E+03 0.  0.
          2    1    1    2  501    0 -0.82494765222E+02  0.20105497897E+02 -0.15421501267E+03  0.17604512907E+03  0.00000000000E+00 0. -1.
          1    1    1    2  502    0 -0.65692028875E+02  0.86911838958E+02  0.12465280210E+04  0.12512798318E+04  0.00000000000E+00 0. -1.
         22    1    3    3    0    0  0.15544749581E+03 -0.49965367533E+02 -0.11704018158E+03  0.20089516174E+03  0.00000000000E+00 0. -1.
         22    1    3    3    0    0 -0.72607017148E+01 -0.57051969322E+02 -0.54284081299E+02  0.79084805591E+02  0.00000000000E+00 0. -1.
</event>
<event>
 7    1  0.5950675E-006  0.1105787E+03  0.7818608E-02  0.1318006E+00
          2   -1    0    0  502    0  0.00000000000E+00  0.00000000000E+00  0.38907603320E+03  0.38907603320E+03  0.00000000000E+00 0. -1.
          1   -1    0    0  501    0 -0.00000000000E+00 -0.00000000000E+00 -0.95893456422E+03  0.95893456422E+03  0.00000000000E+00 0. -1.
         25    2    1    2    0    0  0.23153017767E+02  0.42250390968E+02 -0.44543786134E+03  0.46514530957E+03  0.12499645167E+03 0.  0.
          2    1    1    2  501    0  0.21976317791E+02  0.59944167807E+02 -0.49331330663E+03  0.49742766338E+03  0.00000000000E+00 0. -1.
          1    1    1    2  502    0 -0.45129335558E+02 -0.10219455878E+03  0.36889263694E+03  0.38543762448E+03  0.00000000000E+00 0. -1.
         22    1    3    3    0    0  0.85407772907E+01  0.55639737891E+01  0.61032283286E+01  0.11880743962E+02  0.00000000000E+00 0. -1.
         22    1    3    3    0    0  0.14612240476E+02  0.36686417179E+02 -0.45154108967E+03  0.45326456561E+03  0.00000000000E+00 0. -1.
</event>
<event>
 7    1  0.5950675E-006  0.2483510E+03  0.7818608E-02  0.1230535E+00
          2   -1    0    0  502    0  0.00000000000E+00  0.00000000000E+00  0.39524589704E+03  0.39524589704E+03  0.00000000000E+00 0. -1.
          1   -1    0    0  501    0 -0.00000000000E+00 -0.00000000000E+00 -0.10709178955E+04  0.10709178955E+04  0.00000000000E+00 0. -1.
         25    2    1    2    0    0 -0.16717393094E+03 -0.22923929651E+03  0.13944305678E+03  0.33994983190E+03  0.12499497540E+03 0.  0.
          2    1    1    2  501    0  0.10142530570E+03  0.22454773024E+03 -0.94713190927E+03  0.97865603220E+03  0.00000000000E+00 0. -1.
          1    1    1    2  502    0  0.65748625243E+02  0.46915662692E+01  0.13201685400E+03  0.14755792848E+03  0.00000000000E+00 0. -1.
         22    1    3    3    0    0 -0.69882416698E+02 -0.16420388863E+03  0.13333108560E+03  0.22276365860E+03  0.00000000000E+00 0. -1.
         22    1    3    3    0    0 -0.97291514246E+02 -0.65035407875E+02  0.61119711804E+01  0.11718617330E+03  0.00000000000E+00 0. -1.
</event>
<event>
 7    1  0.5950675E-006  0.2442479E+03  0.7818608E-02  0.1318309E+00
          2   -1    0    0  502    0  0.00000000000E+00  0.00000000000E+00  0.82780079007E+03  0.82780079007E+03  0.00000000000E+00 0. -1.
          1   -1    0    0  501    0 -0.00000000000E+00 -0.00000000000E+00 -0.37041008611E+03  0.37041008611E+03  0.00000000000E+00 0. -1.
         25    2    1    2    0    0 -0.12205594859E+03 -0.22892838283E+03  0.44150951056E+02  0.29134095484E+03  0.12499754572E+03 0.  0.
          2    1    1    2  501    0  0.28144336976E+02  0.62337883625E+01 -0.22373533334E+03  0.22558471404E+03  0.00000000000E+00 0. -1.
          1    1    1    2  502    0  0.93911611618E+02  0.22269459447E+03  0.63697508624E+03  0.68128520731E+03  0.00000000000E+00 0. -1.
         22    1    3    3    0    0 -0.10415168874E+03 -0.22396052753E+03  0.39181173250E+01  0.24702478378E+03  0.00000000000E+00 0. -1.
         22    1    3    3    0    0 -0.17904259854E+02 -0.49678552964E+01  0.40232833731E+02  0.44316171058E+02  0.00000000000E+00 0. -1.
</event>
<event>
 7    1  0.5950675E-006  0.5166345E+02  0.7818608E-02  0.1445072E+00
          2   -1    0    0  502    0  0.00000000000E+00  0.00000000000E+00  0.21135068226E+03  0.21135068226E+03  0.00000000000E+00 0. -1.
          1   -1    0    0  501    0 -0.00000000000E+00 -0.00000000000E+00 -0.12958387720E+04  0.12958387720E+04  0.00000000000E+00 0. -1.
         25    2    1    2    0    0  0.55087755870E+01 -0.37327630693E+02 -0.57660344244E+03  0.59120435322E+03  0.12500943489E+03 0.  0.
          2    1    1    2  501    0  0.45193387997E+02  0.27407803245E+02 -0.70766328889E+03  0.70963438505E+03  0.00000000000E+00 0. -1.
          1    1    1    2  502    0 -0.50702163584E+02  0.99198274472E+01  0.19977864157E+03  0.20635071601E+03  0.00000000000E+00 0. -1.
         22    1    3    3    0    0 -0.52211745260E+02 -0.47022733017E+02 -0.26534168083E+03  0.27448754316E+03  0.00000000000E+00 0. -1.
         22    1    3    3    0    0  0.57720520847E+02  0.96951023240E+01 -0.31126176161E+03  0.31671681006E+03  0.00000000000E+00 0. -1.
</event>
<event>
 7    1  0.5950675E-006  0.4601167E+02  0.7818608E-02  0.1529956E+00
          2   -1    0    0  502    0  0.00000000000E+00  0.00000000000E+00  0.16272777222E+04  0.16272777222E+04  0.00000000000E+00 0. -1.
          1   -1    0    0  501    0 -0.00000000000E+00 -0.00000000000E+00 -0.10298966855E+02  0.10298966855E+02  0.00000000000E+00 0. -1.
         25    2    1    2    0    0 -0.49343253312E+02  0.38532302045E+02  0.99421857482E+03  0.10039997120E+04  0.12500140915E+03 0.  0.
          2    1    1    2  501    0  0.30043690536E+02  0.10645748152E+01  0.44867383451E+02  0.54007765722E+02  0.00000000000E+00 0. -1.
          1    1    1    2  502    0  0.19299562776E+02 -0.39596876860E+02  0.57789279704E+03  0.57956921127E+03  0.00000000000E+00 0. -1.
         22    1    3    3    0    0 -0.61996453890E+02  0.72058893734E+02  0.53453233005E+03  0.54291883033E+03  0.00000000000E+00 0.  1.
         22    1    3    3    0    0  0.12653200578E+02 -0.33526591689E+02  0.45968624477E+03  0.46108088170E+03  0.00000000000E+00 0.  1.
</event>
<event>
 7    1  0.5950675E-006  0.5300285E+02  0.7818608E-02  0.1448498E+00
          2   -1    0    0  502    0  0.00000000000E+00  0.00000000000E+00  0.19242995703E+04  0.19242995703E+04  0.00000000000E+00 0. -1.
          1   -1    0    0  501    0 -0.00000000000E+00 -0.00000000000E+00 -0.12121649765E+03  0.12121649765E+03  0.00000000000E+00 0. -1.
         25    2    1    2    0    0 -0.20006984078E+02  0.41398280485E+02  0.25460538977E+03  0.28733763717E+03  0.12499966479E+03 0.  0.
          2    1    1    2  501    0  0.45719676030E+02  0.57397345701E+01 -0.99329335438E+02  0.10949680456E+03  0.00000000000E+00 0. -1.
          1    1    1    2  502    0 -0.25712691952E+02 -0.47138015055E+02  0.16478070183E+04  0.16486816262E+04  0.00000000000E+00 0. -1.
         22    1    3    3    0    0 -0.49836823967E+02  0.16239734261E+02  0.32160375098E+02  0.61495753662E+02  0.00000000000E+00 0. -1.
         22    1    3    3    0    0  0.29829839889E+02  0.25158546224E+02  0.22244501467E+03  0.22584188351E+03  0.00000000000E+00 0. -1.
</event>
<event>
 7    1  0.5950675E-006  0.8049190E+02  0.7818608E-02  0.1407759E+00
          2   -1    0    0  502    0  0.00000000000E+00  0.00000000000E+00  0.12289240565E+04  0.12289240565E+04  0.00000000000E+00 0. -1.
          1   -1    0    0  501    0 -0.00000000000E+00 -0.00000000000E+00 -0.26861676955E+03  0.26861676955E+03  0.00000000000E+00 0. -1.
         25    2    1    2    0    0 -0.92289784293E+02 -0.61522958476E+02  0.49315194686E+02  0.17423793015E+03  0.12499755666E+03 0.  0.
          2    1    1    2  501    0  0.50961322625E+02  0.59980621218E+02 -0.19824376099E+03  0.21329631993E+03  0.00000000000E+00 0. -1.
          1    1    1    2  502    0  0.41328461668E+02  0.15423372582E+01  0.11092358532E+04  0.11100065759E+04  0.00000000000E+00 0. -1.
         22    1    3    3    0    0  0.14781818170E+01 -0.70835263858E+02  0.34665886242E+02  0.78876760178E+02  0.00000000000E+00 0.  1.
         22    1    3    3    0    0 -0.93767966110E+02  0.93123053817E+01  0.14649308444E+02  0.95361169968E+02  0.00000000000E+00 0.  1.
</event>
<event>
 7    1  0.5950675E-006  0.8875494E+02  0.7818608E-02  0.1314235E+00
          2   -1    0    0  502    0  0.00000000000E+00  0.00000000000E+00  0.50234921450E+04  0.50234921450E+04  0.00000000000E+00 0. -1.
          1   -1    0    0  501    0 -0.00000000000E+00 -0.00000000000E+00 -0.23416781880E+03  0.23416781880E+03  0.00000000000E+00 0. -1.
         25    2    1    2    0    0  0.73357024795E+01  0.45604824196E+02  0.25171827949E+03  0.28481673764E+03  0.12499947717E+03 0.  0.
          2    1    1    2  501    0 -0.87320760374E+02 -0.26279025276E+02 -0.20769336614E+03  0.22683041396E+03  0.00000000000E+00 0. -1.
          1    1    1    2  502    0  0.79985057895E+02 -0.19325798920E+02  0.47452994129E+04  0.47460128122E+04  0.00000000000E+00 0. -1.
         22    1    3    3    0    0 -0.29445332362E+02  0.78545100968E+02  0.15933775520E+03  0.18006909984E+03  0.00000000000E+00 0. -1.
         22    1    3    3    0    0  0.36781034842E+02 -0.32940276772E+02  0.92380524286E+02  0.10474763780E+03  0.00000000000E+00 0. -1.
</event>
<event>
 7    1  0.5950675E-006  0.3879855E+02  0.7818608E-02  0.1581886E+00
          2   -1    0    0  502    0  0.00000000000E+00  0.00000000000E+00  0.16753307091E+04  0.16753307091E+04  0.00000000000E+00 0. -1.
          1   -1    0    0  501    0 -0.00000000000E+00 -0.00000000000E+00 -0.17009690564E+03  0.17009690564E+03  0.00000000000E+00 0. -1.
         25    2    1    2    0    0  0.19433306046E+02 -0.19179602755E+02  0.60559393761E+03  0.61896232864E+03  0.12499934585E+03 0.  0.
          2    1    1    2  501    0 -0.38791783436E+02  0.24214774412E+01 -0.16094489064E+03  0.16557150673E+03  0.00000000000E+00 0. -1.
          1    1    1    2  502    0  0.19358477390E+02  0.16758125314E+02  0.10605847565E+04  0.10608937794E+04  0.00000000000E+00 0. -1.
         22    1    3    3    0    0 -0.13813368907E+02  0.43422604597E+02  0.12258591248E+03  0.13078087662E+03  0.00000000000E+00 0.  1.
         22    1    3    3    0    0  0.33246674953E+02 -0.62602207353E+02  0.48300802513E+03  0.48818145202E+03  0.00000000000E+00 0.  1.
</event>
<event>
 7    1  0.5950675E-006  0.2188206E+03  0.7818608E-02  0.1285646E+00
          2   -1    0    0  502    0  0.00000000000E+00  0.00000000000E+00  0.90511410632E+03  0.90511410632E+03  0.00000000000E+00 0. -1.
          1   -1    0    0  501    0 -0.00000000000E+00 -0.00000000000E+00 -0.92933409392E+03  0.92933409392E+03  0.00000000000E+00 0. -1.
         25    2    1    2    0    0  0.21002541148E+03  0.64391213739E+02 -0.37877110557E+03  0.45534323136E+03  0.12495201500E+03 0.  0.
          2    1    1    2  501    0  0.78310841210E+01 -0.42730042249E+02 -0.49749168866E+03  0.49938478418E+03  0.00000000000E+00 0. -1.
          1    1    1    2  502    0 -0.21785649560E+03 -0.21661171489E+02  0.85204280663E+03  0.87972018469E+03  0.00000000000E+00 0. -1.
         22    1    3    3    0    0  0.14971217628E+03  0.99359517374E+02 -0.30384823981E+03  0.35300113634E+03  0.00000000000E+00 0. -1.
         22    1    3    3    0    0  0.60313235197E+02 -0.34968303635E+02 -0.74922865762E+02  0.10234209502E+03  0.00000000000E+00 0. -1.
</event>
<event>
 7    1  0.5950675E-006  0.3091535E+02  0.7818608E-02  0.1646421E+00
          2   -1    0    0  502    0  0.00000000000E+00  0.00000000000E+00  0.15320695731E+04  0.15320695731E+04  0.00000000000E+00 0. -1.
          1   -1    0    0  501    0 -0.00000000000E+00 -0.00000000000E+00 -0.10112791172E+04  0.10112791172E+04  0.00000000000E+00 0. -1.
         25    2    1    2    0    0  0.51683126679E+02 -0.10883445490E+02  0.56715733901E+03  0.58316550659E+03  0.12499986370E+03 0.  0.
          2    1    1    2  501    0 -0.30418751884E+02  0.54679424847E+01 -0.10029111560E+04  0.10033872561E+04  0.00000000000E+00 0. -1.
          1    1    1    2  502    0 -0.21264374796E+02  0.54155030049E+01  0.95654427288E+03  0.95679592771E+03  0.00000000000E+00 0. -1.
         22    1    3    3    0    0  0.13352374729E+02 -0.42668260988E+02  0.67072054551E+02  0.80607238560E+02  0.00000000000E+00 0. -1.
         22    1    3    3    0    0  0.38330751951E+02  0.31784815498E+02  0.50008528446E+03  0.50255826803E+03  0.00000000000E+00 0. -1.
</event>
<event>
 7    1  0.5950675E-006  0.9786375E+02  0.7818608E-02  0.1389465E+00
          2   -1    0    0  502    0  0.00000000000E+00  0.00000000000E+00  0.31392687170E+03  0.31392687170E+03  0.00000000000E+00 0. -1.
          1   -1    0    0  501    0 -0.00000000000E+00 -0.00000000000E+00 -0.14527724749E+04  0.14527724749E+04  0.00000000000E+00 0. -1.
         25    2    1    2    0    0 -0.65707610165E+02  0.24154641609E+02 -0.23637805023E+03  0.27642241869E+03  0.12503533173E+03 0.  0.
          2    1    1    2  501    0 -0.11515859165E+02  0.37605880141E+02 -0.11877203485E+04  0.11883713407E+04  0.00000000000E+00 0. -1.
          1    1    1    2  502    0  0.77223469330E+02 -0.61760521750E+02  0.28525279549E+03  0.30190558722E+03  0.00000000000E+00 0. -1.
         22    1    3    3    0    0  0.43798537464E+01  0.56140915257E+02 -0.15234094906E+03  0.16241536333E+03  0.00000000000E+00 0.  1.
         22    1    3    3    0    0 -0.70087463911E+02 -0.31986273648E+02 -0.84037101168E+02  0.11400705536E+03  0.00000000000E+00 0.  1.
</event>
<event>
 7    1  0.5950675E-006  0.1063799E+03  0.7818608E-02  0.1320378E+00
          2   -1    0    0  502    0  0.00000000000E+00  0.00000000000E+00  0.22017128312E+02  0.22017128312E+02  0.00000000000E+00 0. -1.
          1   -1    0    0  501    0 -0.00000000000E+00 -0.00000000000E+00 -0.25914564617E+04  0.25914564617E+04  0.00000000000E+00 0. -1.
         25    2    1    2    0    0 -0.10951018831E+03  0.43254217689E+02 -0.42537851097E+03  0.45873108136E+03  0.12499567479E+03 0.  0.
          2    1    1    2  501    0  0.94491347951E+01 -0.64281482707E+02 -0.15899639887E+04  0.15912909478E+04  0.00000000000E+00 0. -1.
          1    1    1    2  502    0  0.10006105351E+03  0.21027265018E+02 -0.55409683374E+03  0.56345156089E+03  0.00000000000E+00 0. -1.
         22    1    3    3    0    0 -0.61563734519E+02  0.18741782219E+02 -0.55579390701E+02  0.85031855674E+02  0.00000000000E+00 0.  1.
         22    1    3    3    0    0 -0.47946453786E+02  0.24512435470E+02 -0.36979912027E+03  0.37369922568E+03  0.00000000000E+00 0.  1.
</event>
<event>
 7    1  0.5950675E-006  0.7527472E+02  0.7818608E-02  0.1477315E+00
          2   -1    0    0  502    0  0.00000000000E+00  0.00000000000E+00  0.18929489485E+03  0.18929489485E+03  0.00000000000E+00 0. -1.
          1   -1    0    0  501    0 -0.00000000000E+00 -0.00000000000E+00 -0.12182243216E+04  0.12182243216E+04  0.00000000000E+00 0. -1.
         25    2    1    2    0    0  0.72978952531E+02  0.66500184448E+02 -0.21228304269E+03  0.26539974238E+03  0.12499892399E+03 0.  0.
          2    1    1    2  501    0 -0.59804241439E+02 -0.43692841648E+02 -0.97690610469E+03  0.97970972696E+03  0.00000000000E+00 0. -1.
          1    1    1    2  502    0 -0.13174711092E+02 -0.22807342799E+02  0.16025972064E+03  0.16240974711E+03  0.00000000000E+00 0. -1.
         22    1    3    3    0    0 -0.19201615722E+02 -0.79834656351E+01  0.16221690583E+01  0.20858312548E+02  0.00000000000E+00 0. -1.
         22    1    3    3    0    0  0.92180568253E+02  0.74483650083E+02 -0.21390521174E+03  0.24454142983E+03  0.00000000000E+00 0. -1.
</event>
<event>
 7    1  0.5950675E-006  0.3837647E+02  0.7818608E-02  0.1602990E+00
          2   -1    0    0  502    0  0.00000000000E+00  0.00000000000E+00  0.77509850653E+03  0.77509850653E+03  0.00000000000E+00 0. -1.
          1   -1    0    0  501    0 -0.00000000000E+00 -0.00000000000E+00 -0.78146721499E+02  0.78146721499E+02  0.00000000000E+00 0. -1.
         25    2    1    2    0    0 -0.24472109049E+02  0.43947662321E+02  0.20695111806E+03  0.24694847889E+03  0.12499801924E+03 0.  0.
          2    1    1    2  501    0 -0.65729686493E+01 -0.21801565452E+02 -0.55226942712E+02  0.59737152379E+02  0.00000000000E+00 0. -1.
          1    1    1    2  502    0  0.31045077698E+02 -0.22146096869E+02  0.54522760968E+03  0.54655959676E+03  0.00000000000E+00 0. -1.
         22    1    3    3    0    0  0.10173251802E+02 -0.39308308142E+02  0.38894701767E+02  0.56226648191E+02  0.00000000000E+00 0.  1.
         22    1    3    3    0    0 -0.34645360851E+02  0.83255970463E+02  0.16805641630E+03  0.19072183070E+03  0.00000000000E+00 0.  1.
</event>
<event>
 7    1  0.5950675E-006  0.1291163E+03  0.7818608E-02  0.1266779E+00
          2   -1    0    0  502    0  0.00000000000E+00  0.00000000000E+00  0.51163464692E+03  0.51163464692E+03  0.00000000000E+00 0. -1.
          1   -1    0    0  501    0 -0.00000000000E+00 -0.00000000000E+00 -0.14526829918E+04  0.14526829918E+04  0.00000000000E+00 0. -1.
         25    2    1    2    0    0  0.60471437573E+02 -0.46668426513E+02 -0.41633164600E+02  0.15229791330E+03  0.12500638866E+03 0.  0.
          2    1    1    2  501    0  0.75721375580E+02  0.45225082662E+02 -0.13440762714E+04  0.13469669849E+04  0.00000000000E+00 0. -1.
          1    1    1    2  502    0 -0.13619281315E+03  0.14433438504E+01  0.44466109112E+03  0.46505274062E+03  0.00000000000E+00 0. -1.
         22    1    3    3    0    0  0.98008616480E+02 -0.47106516208E+02 -0.27309584269E+02  0.11211835785E+03  0.00000000000E+00 0.  1.
         22    1    3    3    0    0 -0.37537178907E+02  0.43808969570E+00 -0.14323580331E+02  0.40179555453E+02  0.00000000000E+00 0.  1.
</event>
<event>
 7    1  0.5950675E-006  0.1477057E+03  0.7818608E-02  0.1397071E+00
          2   -1    0    0  502    0  0.00000000000E+00  0.00000000000E+00  0.21194177004E+04  0.21194177004E+04  0.00000000000E+00 0. -1.
          1   -1    0    0  501    0 -0.00000000000E+00 -0.00000000000E+00 -0.53692483998E+02  0.53692483998E+02  0.00000000000E+00 0. -1.
         25    2    1    2    0    0  0.11886852997E+03  0.74523825165E+02  0.16941910698E+04  0.17045802659E+04  0.12500789657E+03 0.  0.
          2    1    1    2  501    0 -0.11142959324E+03 -0.97888765800E+02  0.66557229581E+02  0.16256884550E+03  0.00000000000E+00 0. -1.
          1    1    1    2  502    0 -0.74389367314E+01  0.23364940635E+02  0.30497691704E+03  0.30596107294E+03  0.00000000000E+00 0. -1.
         22    1    3    3    0    0  0.12608758860E+03  0.24805911169E+02  0.14217610894E+04  0.14275566569E+04  0.00000000000E+00 0.  1.
         22    1    3    3    0    0 -0.72190586324E+01  0.49717913996E+02  0.27242998038E+03  0.27702360908E+03  0.00000000000E+00 0.  1.
</event>
<event>
 7    1  0.5950675E-006  0.6529222E+02  0.7818608E-02  0.1508003E+00
          2   -1    0    0  502    0  0.00000000000E+00  0.00000000000E+00  0.66861271747E+03  0.66861271747E+03  0.00000000000E+00 0. -1.
          1   -1    0    0  501    0 -0.00000000000E+00 -0.00000000000E+00 -0.14448321456E+03  0.14448321456E+03  0.00000000000E+00 0. -1.
         25    2    1    2    0    0  0.20746468750E+02  0.63390290374E+02 -0.31348233667E+02  0.14510967326E+03  0.12500144255E+03 0.  0.
          2    1    1    2  501    0  0.20832852962E+02 -0.12969275276E+02 -0.51738452825E+02  0.57263228729E+02  0.00000000000E+00 0. -1.
          1    1    1    2  502    0 -0.41579321712E+02 -0.50421015097E+02  0.60721618940E+03  0.61072303005E+03  0.00000000000E+00 0. -1.
         22    1    3    3    0    0 -0.18597754598E+02 -0.32804155320E+02 -0.99554517666E+01  0.39001283341E+02  0.00000000000E+00 0.  1.
         22    1    3    3    0    0  0.39344223349E+02  0.96194445694E+02 -0.21392781900E+02  0.10610838992E+03  0.00000000000E+00 0.  1.
</event>
<event>
 7    1  0.5950675E-006  0.2656622E+03  0.7818608E-02  0.1277718E+00
          2   -1    0    0  502    0  0.00000000000E+00  0.00000000000E+00  0.64532042987E+03  0.64532042987E+03  0.00000000000E+00 0. -1.
          1   -1    0    0  501    0 -0.00000000000E+00 -0.00000000000E+00 -0.83014576790E+03  0.83014576790E+03  0.00000000000E+00 0. -1.
         25    2    1    2    0    0  0.13188938564E+03  0.18860229419E+03  0.36478387306E+03  0.44906275926E+03  0.12499780913E+03 0.  0.
          2    1    1    2  501    0 -0.14534444665E+03 -0.22475784747E+03 -0.76350227937E+03  0.80905922452E+03  0.00000000000E+00 0. -1.
          1    1    1    2  502    0  0.13455061014E+02  0.36155553279E+02  0.21389306828E+03  0.21734421400E+03  0.00000000000E+00 0. -1.
         22    1    3    3    0    0  0.16140748478E+02  0.13016287869E+03  0.20372939413E+03  0.24229850347E+03  0.00000000000E+00 0.  1.
         22    1    3    3    0    0  0.11574863716E+03  0.58439415501E+02  0.16105447893E+03  0.20676425579E+03  0.00000000000E+00 0.  1.
</event>
<event>
 7    1  0.5950675E-006  0.1778244E+03  0.7818608E-02  0.1267096E+00
          2   -1    0    0  502    0  0.00000000000E+00  0.00000000000E+00  0.99490172247E+03  0.99490172247E+03  0.00000000000E+00 0. -1.
          1   -1    0    0  501    0 -0.00000000000E+00 -0.00000000000E+00 -0.93339044645E+03  0.93339044645E+03  0.00000000000E+00 0. -1.
         25    2    1    2    0    0 -0.62466578542E+02 -0.15900868327E+03  0.26401693945E+03  0.33840181073E+03  0.12500002561E+03 0.  0.
          2    1    1    2  501    0 -0.59578527548E+02  0.22941075269E+02 -0.88298504318E+03  0.88529005437E+03  0.00000000000E+00 0. -1.
          1    1    1    2  502    0  0.12204510609E+03  0.13606760800E+03  0.68047937975E+03  0.70460030381E+03  0.00000000000E+00 0. -1.
         22    1    3    3    0    0 -0.94131940676E+02 -0.70835962026E+02  0.13987656663E+03  0.18287703427E+03  0.00000000000E+00 0.  1.
         22    1    3    3    0    0  0.31665362135E+02 -0.88172721239E+02  0.12414037282E+03  0.15552477646E+03  0.00000000000E+00 0.  1.
</event>
<event>
 7    1  0.5950675E-006  0.4884073E+02  0.7818608E-02  0.1469463E+00
          2   -1    0    0  502    0  0.00000000000E+00  0.00000000000E+00  0.16629618276E+03  0.16629618276E+03  0.00000000000E+00 0. -1.
          1   -1    0    0  501    0 -0.00000000000E+00 -0.00000000000E+00 -0.47416680188E+03  0.47416680188E+03  0.00000000000E+00 0. -1.
         25    2    1    2    0    0 -0.23936560856E+02 -0.28441479886E+02  0.92008374507E+02  0.15959493509E+03  0.12499250219E+03 0.  0.
          2    1    1    2  501    0 -0.37948872425E+02  0.20075411195E+02 -0.41451105710E+03  0.41672839537E+03  0.00000000000E+00 0. -1.
          1    1    1    2  502    0  0.61885433281E+02  0.83660686911E+01  0.14632063472E+02  0.64139654187E+02  0.00000000000E+00 0. -1.
         22    1    3    3    0    0 -0.22214373088E+02  0.21379912254E+02  0.10387235251E+03  0.10835148654E+03  0.00000000000E+00 0.  1.
         22    1    3    3    0    0 -0.17221877677E+01 -0.49821392139E+02 -0.11863977999E+02  0.51243448551E+02  0.00000000000E+00 0.  1.
</event>
<event>
 7    1  0.5950675E-006  0.1164559E+03  0.7818608E-02  0.1356887E+00
          2   -1    0    0  502    0  0.00000000000E+00  0.00000000000E+00  0.14284451192E+03  0.14284451192E+03  0.00000000000E+00 0. -1.
          1   -1    0    0  501    0 -0.00000000000E+00 -0.00000000000E+00 -0.45116080109E+03  0.45116080109E+03  0.00000000000E+00 0. -1.
         25    2    1    2    0    0  0.50664463549E+02  0.11271709771E+03 -0.20132937876E+03  0.26726357779E+03  0.12499707708E+03 0.  0.
          2    1    1    2  501    0 -0.43089325630E+02  0.34554753781E+01 -0.18278144624E+03  0.18782355385E+03  0.00000000000E+00 0. -1.
          1    1    1    2  502    0 -0.75751379195E+01 -0.11617257309E+03  0.75794535823E+02  0.13891818136E+03  0.00000000000E+00 0. -1.
         22    1    3    3    0    0  0.82636974619E+02  0.39184397433E+02 -0.13572144168E+03  0.16366000216E+03  0.00000000000E+00 0. -1.
         22    1    3    3    0    0 -0.31972511070E+02  0.73532700279E+02 -0.65607937077E+02  0.10360357562E+03  0.00000000000E+00 0. -1.
</event>
<event>
 7    1  0.5950675E-006  0.1127139E+03  0.7818608E-02  0.1262909E+00
          2   -1    0    0  502    0  0.00000000000E+00  0.00000000000E+00  0.15397605727E+04  0.15397605727E+04  0.00000000000E+00 0. -1.
          1   -1    0    0  501    0 -0.00000000000E+00 -0.00000000000E+00 -0.17282992894E+03  0.17282992894E+03  0.00000000000E+00 0. -1.
         25    2    1    2    0    0 -0.81731075177E+01 -0.13889872262E+03  0.59363496796E+03  0.62240466208E+03  0.12500173343E+03 0.  0.
          2    1    1    2  501    0 -0.81214610951E+02  0.66423081829E+02 -0.13704780446E+03  0.17259762321E+03  0.00000000000E+00 0. -1.
          1    1    1    2  502    0  0.89387718469E+02  0.72475640795E+02  0.91034348030E+03  0.91758821639E+03  0.00000000000E+00 0. -1.
         22    1    3    3    0    0 -0.15353457399E+02 -0.40442080411E+02  0.42350272809E+03  0.42570629690E+03  0.00000000000E+00 0. -1.
         22    1    3    3    0    0  0.71803498816E+01 -0.98456642213E+02  0.17013223987E+03  0.19669836518E+03  0.00000000000E+00 0. -1.
</event>
<event>
 7    1  0.5950675E-006  0.3274334E+02  0.7818608E-02  0.1619981E+00
          2   -1    0    0  502    0  0.00000000000E+00  0.00000000000E+00  0.24202826591E+03  0.24202826591E+03  0.00000000000E+00 0. -1.
          1   -1    0    0  501    0 -0.00000000000E+00 -0.00000000000E+00 -0.39912282428E+03  0.39912282428E+03  0.00000000000E+00 0. -1.
         25    2    1    2    0    0  0.28625889078E+02 -0.45098484129E+02 -0.37383207870E+02  0.14098115174E+03  0.12499946448E+03 0.  0.
          2    1    1    2  501    0 -0.19736302598E+02  0.13884584086E+02 -0.30808110784E+03  0.30902471151E+03  0.00000000000E+00 0. -1.
          1    1    1    2  502    0 -0.88895864797E+01  0.31213900044E+02  0.18836975733E+03  0.19114522694E+03  0.00000000000E+00 0. -1.
         22    1    3    3    0    0  0.63295574298E+02 -0.33143586207E+01  0.15434121924E+02  0.65234399042E+02  0.00000000000E+00 0. -1.
         22    1    3    3    0    0 -0.34669685220E+02 -0.41784125509E+02 -0.52817329794E+02  0.75746752698E+02  0.00000000000E+00 0. -1.
</event>
<event>
 7    1  0.5950675E-006  0.1524501E+03  0.7818608E-02  0.1324179E+00
          2   -1    0    0  502    0  0.00000000000E+00  0.00000000000E+00  0.13120230651E+04  0.13120230651E+04  0.00000000000E+00 0. -1.
          1   -1    0    0  501    0 -0.00000000000E+00 -0.00000000000E+00 -0.11663859500E+03  0.11663859500E+03  0.00000000000E+00 0. -1.
         25    2    1    2    0    0 -0.93998030672E+02 -0.16905704712E+03  0.98424082310E+03  0.10108268854E+04  0.12500031789E+03 0.  0.
          2    1    1    2  501    0  0.78358086776E+02  0.12811306990E+03 -0.45936684881E+02  0.15704498547E+03  0.00000000000E+00 0. -1.
          1    1    1    2  502    0  0.15639943896E+02  0.40943977226E+02  0.25708033188E+03  0.26078978921E+03  0.00000000000E+00 0. -1.
         22    1    3    3    0    0 -0.10876600894E+02 -0.12064962936E+03  0.70870771522E+03  0.71898627187E+03  0.00000000000E+00 0.  1.
         22    1    3    3    0    0 -0.83121429777E+02 -0.48407417759E+02  0.27553310788E+03  0.29184061355E+03  0.00000000000E+00 0.  1.
</event>
<event>
 7    1  0.5950675E-006  0.8792887E+02  0.7818608E-02  0.1376185E+00
          2   -1    0    0  502    0  0.00000000000E+00  0.00000000000E+00  0.30163565583E+03  0.30163565583E+03  0.00000000000E+00 0. -1.
          1   -1    0    0  501    0 -0.00000000000E+00 -0.00000000000E+00 -0.33449414904E+03  0.33449414904E+03  0.00000000000E+00 0. -1.
         25    2    1    2    0    0 -0.82986873321E+02 -0.96811496414E+02 -0.10310520750E+03  0.20619144790E+03  0.12499976957E+03 0.  0.
          2    1    1    2  501    0  0.43322816095E+02  0.68454137544E+02 -0.16812826725E+03  0.18662783713E+03  0.00000000000E+00 0. -1.
          1    1    1    2  502    0  0.39664057226E+02  0.28357358870E+02  0.23837498154E+03  0.24331051984E+03  0.00000000000E+00 0. -1.
         22    1    3    3    0    0 -0.57861191507E+01 -0.72750279221E+02  0.26925320736E+01  0.73029665415E+02  0.00000000000E+00 0. -1.
         22    1    3    3    0    0 -0.77200754170E+02 -0.24061217193E+02 -0.10579773957E+03  0.13316178249E+03  0.00000000000E+00 0. -1.
</event>
<event>
 7    1  0.5950675E-006  0.1509223E+03  0.7818608E-02  0.1276801E+00
          2   -1    0    0  502    0  0.00000000000E+00  0.00000000000E+00  0.25334867868E+03  0.25334867868E+03  0.00000000000E+00 0. -1.
          1   -1    0    0  501    0 -0.00000000000E+00 -0.00000000000E+00 -0.96728898011E+03  0.96728898011E+03  0.00000000000E+00 0. -1.
         25    2    1    2    0    0 -0.19772235596E+03 -0.54082882038E+02 -0.34733656317E+03  0.42224053264E+03  0.12500116443E+03 0.  0.
          2    1    1    2  501    0  0.12927972632E+03  0.51165326135E+02 -0.56846890645E+03  0.58522477377E+03  0.00000000000E+00 0. -1.
          1    1    1    2  502    0  0.68442629643E+02  0.29175559035E+01  0.20186516820E+03  0.21317235238E+03  0.00000000000E+00 0. -1.
         22    1    3    3    0    0 -0.20510158925E+03 -0.73816274899E+02 -0.30423159317E+03  0.37426243017E+03  0.00000000000E+00 0. -1.
         22    1    3    3    0    0  0.73792332866E+01  0.19733392861E+02 -0.43104970005E+02  0.47978102472E+02  0.00000000000E+00 0. -1.
</event>
<event>
 7    1  0.5950675E-006  0.6274818E+02  0.7818608E-02  0.1452823E+00
          2   -1    0    0  502    0  0.00000000000E+00  0.00000000000E+00  0.14115879502E+03  0.14115879502E+03  0.00000000000E+00 0. -1.
          1   -1    0    0  501    0 -0.00000000000E+00 -0.00000000000E+00 -0.13340858202E+04  0.13340858202E+04  0.00000000000E+00 0. -1.
         25    2    1    2    0    0 -0.15891416808E+02 -0.40402567830E+02 -0.12414792713E+03  0.18145066804E+03  0.12500692984E+03 0.  0.
          2    1    1    2  501    0 -0.15209706589E+02  0.61714759621E+02 -0.11772462917E+04  0.11789609315E+04  0.00000000000E+00 0. -1.
          1    1    1    2  502    0  0.31101123397E+02 -0.21312191791E+02  0.10846719363E+03  0.11483301567E+03  0.00000000000E+00 0. -1.
         22    1    3    3    0    0 -0.11045816973E+01 -0.82522160650E+02 -0.10319633100E+03  0.13213860083E+03  0.00000000000E+00 0. -1.
         22    1    3    3    0    0 -0.14786835111E+02  0.42119592820E+02 -0.20951596132E+02  0.49312067209E+02  0.00000000000E+00 0. -1.
</event>
<event>
 7    1  0.5950675E-006  0.2475077E+02  0.7818608E-02  0.1680537E+00
          2   -1    0    0  502    0  0.00000000000E+00  0.00000000000E+00  0.15723476333E+03  0.15723476333E+03  0.00000000000E+00 0. -1.
          1   -1    0    0  501    0 -0.00000000000E+00 -0.00000000000E+00 -0.73365891620E+02  0.73365891620E+02  0.00000000000E+00 0. -1.
         25    2    1    2    0    0  0.87299108215E+01  0.59810178114E+01  0.10344076093E+03  0.16259508067E+03  0.12500074128E+03 0.  0.
          2    1    1    2  501    0  0.33462308454E+01 -0.25176185881E+02 -0.33006525855E+02  0.41646948812E+02  0.00000000000E+00 0. -1.
          1    1    1    2  502    0 -0.12076141667E+02  0.19195168069E+02  0.13434636630E+02  0.26358625460E+02  0.00000000000E+00 0. -1.
         22    1    3    3    0    0 -0.49599658998E+02 -0.23425275724E+02  0.70824184377E+02  0.89582000470E+02  0.00000000000E+00 0. -1.
         22    1    3    3    0    0  0.58329569820E+02  0.29406293535E+02  0.32616576556E+02  0.73013080205E+02  0.00000000000E+00 0. -1.
</event>
<event>
 7    1  0.5950675E-006  0.3593788E+02  0.7818608E-02  0.1569981E+00
          2   -1    0    0  502    0  0.00000000000E+00  0.00000000000E+00  0.11595067428E+03  0.11595067428E+03  0.00000000000E+00 0. -1.
          1   -1    0    0  501    0 -0.00000000000E+00 -0.00000000000E+00 -0.10454069894E+04  0.10454069894E+04  0.00000000000E+00 0. -1.
         25    2    1    2    0    0 -0.82038230665E+01 -0.52320033170E+02 -0.95703325571E+02  0.16610761596E+03  0.12501169934E+03 0.  0.
          2    1    1    2  501    0 -0.14319859014E+02  0.32864948888E+02 -0.91139459128E+03  0.91209937192E+03  0.00000000000E+00 0. -1.
          1    1    1    2  502    0  0.22523682081E+02  0.19455084281E+02  0.77641601755E+02  0.83150675776E+02  0.00000000000E+00 0. -1.
         22    1    3    3    0    0 -0.21772414007E+02  0.35178415129E+02 -0.54559235579E+02  0.68470936094E+02  0.00000000000E+00 0.  1.
         22    1    3    3    0    0  0.13568590941E+02 -0.87498448299E+02 -0.41144089993E+02  0.97636679871E+02  0.00000000000E+00 0.  1.
</event>
<event>
 7    1  0.5950675E-006  0.3613434E+02  0.7818608E-02  0.1609730E+00
          2   -1    0    0  502    0  0.00000000000E+00  0.00000000000E+00  0.86412657376E+02  0.86412657376E+02  0.00000000000E+00 0. -1.
          1   -1    0    0  501    0 -0.00000000000E+00 -0.00000000000E+00 -0.35054114150E+03  0.35054114150E+03  0.00000000000E+00 0. -1.
         25    2    1    2    0    0 -0.13441638344E+02 -0.15924492095E+02 -0.83311811568E+02  0.15165832961E+03  0.12500049561E+03 0.  0.
          2    1    1    2  501    0  0.32765207451E+01  0.36812795581E+02 -0.22891594544E+03  0.23188020093E+03  0.00000000000E+00 0. -1.
          1    1    1    2  502    0  0.10165117599E+02 -0.20888303486E+02  0.48099272889E+02  0.53415268330E+02  0.00000000000E+00 0. -1.
         22    1    3    3    0    0  0.42785824817E+02 -0.29929108804E+02 -0.25728718460E+01  0.52278083636E+02  0.00000000000E+00 0. -1.
         22    1    3    3    0    0 -0.56227463161E+02  0.14004616709E+02 -0.80738939722E+02  0.99380245976E+02  0.00000000000E+00 0. -1.
</event>
<event>
 7    1  0.5950675E-006  0.5812548E+02  0.7818608E-02  0.1410050E+00
          2   -1    0    0  502    0  0.00000000000E+00  0.00000000000E+00  0.31626578385E+03  0.31626578385E+03  0.00000000000E+00 0. -1.
          1   -1    0    0  501    0 -0.00000000000E+00 -0.00000000000E+00 -0.65398768557E+02  0.65398768557E+02  0.00000000000E+00 0. -1.
         25    2    1    2    0    0  0.84891615970E+01 -0.16486937699E+02  0.11906372414E+03  0.17362609658E+03  0.12500386405E+03 0.  0.
          2    1    1    2  501    0  0.15041427996E+02  0.67584645124E+02  0.51210929389E+01  0.69427331834E+02  0.00000000000E+00 0. -1.
          1    1    1    2  502    0 -0.23530589593E+02 -0.51097707425E+02  0.12668219822E+03  0.13861112400E+03  0.00000000000E+00 0. -1.
         22    1    3    3    0    0  0.66379717378E+02 -0.15594646462E+02  0.58534973741E+02  0.89865471836E+02  0.00000000000E+00 0. -1.
         22    1    3    3    0    0 -0.57890555781E+02 -0.89229123656E+00  0.60528750397E+02  0.83760624741E+02  0.00000000000E+00 0. -1.
</event>
<event>
 7    1  0.5950675E-006  0.1225172E+03  0.7818608E-02  0.1412107E+00
          2   -1    0    0  502    0  0.00000000000E+00  0.00000000000E+00  0.38699400379E+04  0.38699400379E+04  0.00000000000E+00 0. -1.
          1   -1    0    0  501    0 -0.00000000000E+00 -0.00000000000E+00 -0.62300863857E+02  0.62300863857E+02  0.00000000000E+00 0. -1.
         25    2    1    2    0    0  0.11539539764E+03 -0.70054569890E+02  0.21321930068E+04  0.21401149887E+04  0.12498562395E+03 0.  0.
          2    1    1    2  501    0 -0.75782950031E+01  0.25147659308E+02 -0.53309996125E+02  0.59428873544E+02  0.00000000000E+00 0. -1.
          1    1    1    2  502    0 -0.10781710264E+03  0.44906910582E+02  0.17287561634E+04  0.17326970395E+04  0.00000000000E+00 0. -1.
         22    1    3    3    0    0  0.89524192470E+02 -0.10593592910E+03  0.17077838775E+04  0.17134067744E+04  0.00000000000E+00 0.  1.
         22    1    3    3    0    0  0.25871205170E+02  0.35881359208E+02  0.42440912929E+03  0.42670821438E+03  0.00000000000E+00 0.  1.
</event>
<event>
 7    1  0.5950675E-006  0.5189809E+02  0.7818608E-02  0.1466579E+00
          2   -1    0    0  502    0  0.00000000000E+00  0.00000000000E+00  0.92673841224E+02  0.92673841224E+02  0.00000000000E+00 0. -1.
          1   -1    0    0  501    0 -0.00000000000E+00 -0.00000000000E+00 -0.15400469451E+04  0.15400469451E+04  0.00000000000E+00 0. -1.
         25    2    1    2    0    0  0.71029976268E+02  0.59010249354E+02 -0.42669546217E+03  0.45411651990E+03  0.12500131660E+03 0.  0.
          2    1    1    2  501    0 -0.30862325136E+02 -0.27366778613E+02 -0.10909317591E+04  0.10917112836E+04  0.00000000000E+00 0. -1.
          1    1    1    2  502    0 -0.40167651132E+02 -0.31643470741E+02  0.70254117453E+02  0.86892982784E+02  0.00000000000E+00 0. -1.
         22    1    3    3    0    0  0.39131087368E+02 -0.16115898413E+02 -0.37782677611E+02  0.56731780403E+02  0.00000000000E+00 0. -1.
         22    1    3    3    0    0  0.31898888900E+02  0.75126147767E+02 -0.38891278456E+03  0.39738473950E+03  0.00000000000E+00 0. -1.
</event>
<event>
 7    1  0.5950675E-006  0.8241432E+02  0.7818608E-02  0.1382013E+00
          2   -1    0    0  502    0  0.00000000000E+00  0.00000000000E+00  0.18609775120E+04  0.18609775120E+04  0.00000000000E+00 0. -1.
          1   -1    0    0  501    0 -0.00000000000E+00 -0.00000000000E+00 -0.85916869310E+03  0.85916869310E+03  0.00000000000E+00 0. -1.
         25    2    1    2    0    0  0.10931777446E+03  0.31798828204E+02  0.35523018792E+03  0.39341061483E+03  0.12498753603E+03 0.  0.
          2    1    1    2  501    0 -0.81749597570E+02  0.94379383496E+01 -0.83764785442E+03  0.84168046157E+03  0.00000000000E+00 0. -1.
          1    1    1    2  502    0 -0.27568176895E+02 -0.41236766553E+02  0.14842264854E+04  0.14850551287E+04  0.00000000000E+00 0. -1.
         22    1    3    3    0    0  0.47051377403E+02  0.53650884982E+02  0.67557643823E+02  0.98266397175E+02  0.00000000000E+00 0.  1.
         22    1    3    3    0    0  0.62266397061E+02 -0.21852056779E+02  0.28767254409E+03  0.29514421765E+03  0.00000000000E+00 0.  1.
</event>
<event>
 7    1  0.5950675E-006  0.5021114E+02  0.7818608E-02  0.1488531E+00
          2   -1    0    0  502    0  0.00000000000E+00  0.00000000000E+00  0.81568977203E+03  0.81568977203E+03  0.00000000000E+00 0. -1.
          1   -1    0    0  501    0 -0.00000000000E+00 -0.00000000000E+00 -0.68839988572E+02  0.68839988572E+02  0.00000000000E+00 0. -1.
         25    2    1    2    0    0  0.34688426238E+02 -0.51366603124E+02  0.19577010415E+03  0.24040163514E+03  0.12500079068E+03 0.  0.
          2    1    1    2  501    0 -0.47172569299E+02  0.17077865216E+02 -0.32261625929E+02  0.59646603275E+02  0.00000000000E+00 0. -1.
          1    1    1    2  502    0  0.12484143061E+02  0.34288737908E+02  0.58334130524E+03  0.58448152219E+03  0.00000000000E+00 0. -1.
         22    1    3    3    0    0  0.74395946243E+02 -0.49283288454E+02  0.17279760960E+03  0.19448036719E+03  0.00000000000E+00 0.  1.
         22    1    3    3    0    0 -0.39707520005E+02 -0.20833146698E+01  0.22972494548E+02  0.45921267956E+02  0.00000000000E+00 0.  1.
</event>
<event>
 7    1  0.5950675E-006  0.7269300E+02  0.7818608E-02  0.1426026E+00
          2   -1    0    0  502    0  0.00000000000E+00  0.00000000000E+00  0.37132122830E+03  0.37132122830E+03  0.00000000000E+00 0. -1.
          1   -1    0    0  501    0 -0.00000000000E+00 -0.00000000000E+00 -0.10992553936E+03  0.10992553936E+03  0.00000000000E+00 0. -1.
         25    2    1    2    0    0 -0.34864206821E+02 -0.16259858366E+02  0.69150609031E+02  0.14793922800E+03  0.12499725013E+03 0.  0.
          2    1    1    2  501    0 -0.38653985679E+02 -0.93433421286E+01 -0.58510589761E+02  0.70745443424E+02  0.00000000000E+00 0. -1.
          1    1    1    2  502    0  0.73518192500E+02  0.25603200494E+02  0.25075566967E+03  0.26256209623E+03  0.00000000000E+00 0. -1.
         22    1    3    3    0    0 -0.17612132426E+02 -0.46226488797E+02 -0.19199900572E+02  0.53063279743E+02  0.00000000000E+00 0.  1.
         22    1    3    3    0    0 -0.17252074395E+02  0.29966630432E+02  0.88350509603E+02  0.94875948256E+02  0.00000000000E+00 0.  1.
</event>
<event>
 7    1  0.5950675E-006  0.5432466E+02  0.7818608E-02  0.1466831E+00
          2   -1    0    0  502    0  0.00000000000E+00  0.00000000000E+00  0.12630352751E+04  0.12630352751E+04  0.00000000000E+00 0. -1.
          1   -1    0    0  501    0 -0.00000000000E+00 -0.00000000000E+00 -0.32837201586E+03  0.32837201586E+03  0.00000000000E+00 0. -1.
         25    2    1    2    0    0 -0.56446975542E+02  0.13016788325E+02  0.20745281286E+03  0.24903101104E+03  0.12499630823E+03 0.  0.
          2    1    1    2  501    0  0.24117516374E+02  0.31072965488E+02 -0.30559939002E+03  0.30812038388E+03  0.00000000000E+00 0. -1.
          1    1    1    2  502    0  0.32329459168E+02 -0.44089753814E+02  0.10328098364E+04  0.10342558961E+04  0.00000000000E+00 0. -1.
         22    1    3    3    0    0 -0.49771482479E+02 -0.51547739123E+02  0.92355695573E+02  0.11689287567E+03  0.00000000000E+00 0.  1.
         22    1    3    3    0    0 -0.66754930632E+01  0.64564527449E+02  0.11509711729E+03  0.13213813538E+03  0.00000000000E+00 0.  1.
</event>
<event>
 7    1  0.5950675E-006  0.9464603E+02  0.7818608E-02  0.1332651E+00
          2   -1    0    0  502    0  0.00000000000E+00  0.00000000000E+00  0.73779906205E+03  0.73779906205E+03  0.00000000000E+00 0. -1.
          1   -1    0    0  501    0 -0.00000000000E+00 -0.00000000000E+00 -0.44255843469E+04  0.44255843469E+04  0.00000000000E+00 0. -1.
         25    2    1    2    0    0  0.12186840237E+03  0.58676262241E+02 -0.10740301282E+04  0.10897048739E+04  0.12498473734E+03 0.  0.
          2    1    1    2  501    0 -0.57729058877E+02 -0.72032614815E+02 -0.33416081398E+04  0.33428829327E+04  0.00000000000E+00 0. -1.
          1    1    1    2  502    0 -0.64139343488E+02  0.13356352573E+02  0.72785298310E+03  0.73079560244E+03  0.00000000000E+00 0. -1.
         22    1    3    3    0    0  0.11301038050E+03  0.89167176810E+02 -0.97860475664E+03  0.98913568393E+03  0.00000000000E+00 0.  1.
         22    1    3    3    0    0  0.88580218664E+01 -0.30490914569E+02 -0.95425371582E+02  0.10056918994E+03  0.00000000000E+00 0.  1.
</event>
<event>
 7    1  0.5950675E-006  0.1797907E+03  0.7818608E-02  0.1272931E+00
          2   -1    0    0  502    0  0.00000000000E+00  0.00000000000E+00  0.14164565828E+04  0.14164565828E+04  0.00000000000E+00 0. -1.
          1   -1    0    0  501    0 -0.00000000000E+00 -0.00000000000E+00 -0.53934942669E+03  0.53934942669E+03  0.00000000000E+00 0. -1.
         25    2    1    2    0    0  0.10879941705E+03  0.12147243016E+03  0.43435163753E+03  0.48049895497E+03  0.12500014507E+03 0.  0.
          2    1    1    2  501    0 -0.69796734020E+02 -0.16664547667E+03 -0.49949610948E+03  0.53116726401E+03  0.00000000000E+00 0. -1.
          1    1    1    2  502    0 -0.39002683025E+02  0.45173046516E+02  0.94225162802E+03  0.94413979046E+03  0.00000000000E+00 0. -1.
         22    1    3    3    0    0  0.13644153956E+03  0.10602185135E+03  0.34830326140E+03  0.38880855003E+03  0.00000000000E+00 0.  1.
         22    1    3    3    0    0 -0.27642122512E+02  0.15450578808E+02  0.86048376137E+02  0.91690404941E+02  0.00000000000E+00 0.  1.
</event>
<event>
 7    1  0.5950675E-006  0.1171784E+03  0.7818608E-02  0.1452961E+00
          2   -1    0    0  502    0  0.00000000000E+00  0.00000000000E+00  0.13984371197E+04  0.13984371197E+04  0.00000000000E+00 0. -1.
          1   -1    0    0  501    0 -0.00000000000E+00 -0.00000000000E+00 -0.18179453185E+04  0.18179453185E+04  0.00000000000E+00 0. -1.
         25    2    1    2    0    0  0.12026883799E+03  0.42443544211E+02  0.19049093787E+03  0.26109907183E+03  0.12497951858E+03 0.  0.
          2    1    1    2  501    0 -0.11481471993E+03 -0.23025932847E+02 -0.17806312147E+04  0.17844775527E+04  0.00000000000E+00 0. -1.
          1    1    1    2  502    0 -0.54541180567E+01 -0.19417611364E+02  0.11706320780E+04  0.11708058136E+04  0.00000000000E+00 0. -1.
         22    1    3    3    0    0  0.54055441979E+02 -0.12652959492E+01 -0.72682941358E+00  0.54075133494E+02  0.00000000000E+00 0. -1.
         22    1    3    3    0    0  0.66213396009E+02  0.43708840160E+02  0.19121776728E+03  0.20702393834E+03  0.00000000000E+00 0. -1.
</event>
<event>
 7    1  0.5950675E-006  0.4085914E+03  0.7818608E-02  0.1244499E+00
          2   -1    0    0  502    0  0.00000000000E+00  0.00000000000E+00  0.39736822909E+04  0.39736822909E+04  0.00000000000E+00 0. -1.
          1   -1    0    0  501    0 -0.00000000000E+00 -0.00000000000E+00 -0.29761302464E+03  0.29761302464E+03  0.00000000000E+00 0. -1.
         25    2    1    2    0    0 -0.26602801509E+03 -0.33213958690E+03  0.64792160781E+03  0.78518600481E+03  0.12500816890E+03 0.  0.
          2    1    1    2  501    0 -0.86357084835E+01  0.33657759024E+02 -0.21495160270E+03  0.21774207611E+03  0.00000000000E+00 0. -1.
          1    1    1    2  502    0  0.27466372358E+03  0.29848182787E+03  0.32430992611E+04  0.32683672346E+04  0.00000000000E+00 0. -1.
         22    1    3    3    0    0 -0.12789659437E+03 -0.83168494373E+02  0.16612893595E+03  0.22555123735E+03  0.00000000000E+00 0.  1.
         22    1    3    3    0    0 -0.13813142072E+03 -0.24897109252E+03  0.48179267185E+03  0.55963476746E+03  0.00000000000E+00 0.  1.
</event>
<event>
 7    1  0.5950675E-006  0.7040460E+02  0.7818608E-02  0.1503060E+00
          2   -1    0    0  502    0  0.00000000000E+00  0.00000000000E+00  0.15099786207E+03  0.15099786207E+03  0.00000000000E+00 0. -1.
          1   -1    0    0  501    0 -0.00000000000E+00 -0.00000000000E+00 -0.32525647334E+03  0.32525647334E+03  0.00000000000E+00 0. -1.
         25    2    1    2    0    0  0.25400598797E+02 -0.42540641808E+02  0.39523024288E+02  0.14015829202E+03  0.12500952263E+03 0.  0.
          2    1    1    2  501    0 -0.44982442169E+02  0.55601995875E+02 -0.26779284361E+03  0.27717865924E+03  0.00000000000E+00 0. -1.
          1    1    1    2  502    0  0.19581843372E+02 -0.13061354067E+02  0.54011208055E+02  0.58917384154E+02  0.00000000000E+00 0. -1.
         22    1    3    3    0    0 -0.40678767016E+02  0.18331884578E+02  0.13823594033E+02  0.46710939084E+02  0.00000000000E+00 0. -1.
         22    1    3    3    0    0  0.66079365813E+02 -0.60872526386E+02  0.25699430255E+02  0.93447352934E+02  0.00000000000E+00 0. -1.
</event>
<event>
 7    1  0.5950675E-006  0.5241732E+02  0.7818608E-02  0.1504473E+00
          2   -1    0    0  502    0  0.00000000000E+00  0.00000000000E+00  0.45796655469E+02  0.45796655469E+02  0.00000000000E+00 0. -1.
          1   -1    0    0  501    0 -0.00000000000E+00 -0.00000000000E+00 -0.36213518729E+03  0.36213518729E+03  0.00000000000E+00 0. -1.
         25    2    1    2    0    0  0.36697043393E+00  0.47474302599E+02 -0.11265630176E+03  0.17484718510E+03  0.12500460686E+03 0.  0.
          2    1    1    2  501    0 -0.31465618801E+02 -0.43828684884E+02 -0.19236877843E+03  0.19979185594E+03  0.00000000000E+00 0. -1.
          1    1    1    2  502    0  0.31098648367E+02 -0.36456177147E+01 -0.11313451632E+02  0.33292801724E+02  0.00000000000E+00 0. -1.
         22    1    3    3    0    0  0.47289242353E+02  0.50940707672E+02 -0.22337629733E+02  0.73008203940E+02  0.00000000000E+00 0. -1.
         22    1    3    3    0    0 -0.46922271919E+02 -0.34664050733E+01 -0.90318672028E+02  0.10183898116E+03  0.00000000000E+00 0. -1.
</event>
<event>
 7    1  0.5950675E-006  0.1078399E+03  0.7818608E-02  0.1353651E+00
          2   -1    0    0  502    0  0.00000000000E+00  0.00000000000E+00  0.13834295576E+04  0.13834295576E+04  0.00000000000E+00 0. -1.
          1   -1    0    0  501    0 -0.00000000000E+00 -0.00000000000E+00 -0.65974505937E+03  0.65974505937E+03  0.00000000000E+00 0. -1.
         25    2    1    2    0    0 -0.82483940151E+02 -0.44793689671E+02 -0.81945772755E+02  0.17649169788E+03  0.12499653888E+03 0.  0.
          2    1    1    2  501    0  0.20018386738E+02 -0.43601947140E+02 -0.52724326450E+03  0.52942168973E+03  0.00000000000E+00 0. -1.
          1    1    1    2  502    0  0.62465553413E+02  0.88395636811E+02  0.13328735355E+04  0.13372612294E+04  0.00000000000E+00 0. -1.
         22    1    3    3    0    0 -0.59098458836E+00 -0.45246913097E+02  0.16743240402E+02  0.48249025967E+02  0.00000000000E+00 0.  1.
         22    1    3    3    0    0 -0.81892955563E+02  0.45322342604E+00 -0.98689013157E+02  0.12824267192E+03  0.00000000000E+00 0.  1.
</event>
<event>
 7    1  0.5950675E-006  0.5147242E+02  0.7818608E-02  0.1481498E+00
          2   -1    0    0  502    0  0.00000000000E+00  0.00000000000E+00  0.15380844815E+04  0.15380844815E+04  0.00000000000E+00 0. -1.
          1   -1    0    0  501    0 -0.00000000000E+00 -0.00000000000E+00 -0.90090225368E+02  0.90090225368E+02  0.00000000000E+00 0. -1.
         25    2    1    2    0    0 -0.25333407940E+02  0.81637987051E+02  0.16121749672E+03  0.22118470759E+03  0.12500020455E+03 0.  0.
          2    1    1    2  501    0  0.51885429899E-01 -0.37396710312E+02 -0.53758536845E+02  0.65486616327E+02  0.00000000000E+00 0. -1.
          1    1    1    2  502    0  0.25281522510E+02 -0.44241276739E+02  0.13405352962E+04  0.13415033829E+04  0.00000000000E+00 0. -1.
         22    1    3    3    0    0 -0.67126623339E+02  0.50021160809E+02  0.14300294546E+03  0.16570438286E+03  0.00000000000E+00 0.  1.
         22    1    3    3    0    0  0.41793215398E+02  0.31616826242E+02  0.18214551266E+02  0.55480324736E+02  0.00000000000E+00 0.  1.
</event>
<event>
 7    1  0.5950675E-006  0.1754696E+03  0.7818608E-02  0.1223496E+00
          2   -1    0    0  502    0  0.00000000000E+00  0.00000000000E+00  0.11158849257E+04  0.11158849257E+04  0.00000000000E+00 0. -1.
          1   -1    0    0  501    0 -0.00000000000E+00 -0.00000000000E+00 -0.40441025660E+03  0.40441025660E+03  0.00000000000E+00 0. -1.
         25    2    1    2    0    0 -0.14197920320E+03  0.27636610062E+01  0.18809681547E+03  0.26677704390E+03  0.12499538872E+03 0.  0.
          2    1    1    2  501    0 -0.20688548955E+02 -0.98207971959E+02 -0.34788650886E+03  0.36207436372E+03  0.00000000000E+00 0. -1.
          1    1    1    2  502    0  0.16266775215E+03  0.95444310952E+02  0.87126436251E+03  0.89144377471E+03  0.00000000000E+00 0. -1.
         22    1    3    3    0    0 -0.73375550213E+02 -0.36502743729E+02  0.25243391842E+02  0.85753428505E+02  0.00000000000E+00 0. -1.
         22    1    3    3    0    0 -0.68603652987E+02  0.39266404735E+02  0.16285342363E+03  0.18102361540E+03  0.00000000000E+00 0. -1.
</event>
<event>
 7    1  0.5950675E-006  0.4441475E+02  0.7818608E-02  0.1502742E+00
          2   -1    0    0  502    0  0.00000000000E+00  0.00000000000E+00  0.71194651882E+03  0.71194651882E+03  0.00000000000E+00 0. -1.
          1   -1    0    0  501    0 -0.00000000000E+00 -0.00000000000E+00 -0.43978333662E+02  0.43978333662E+02  0.00000000000E+00 0. -1.
         25    2    1    2    0    0 -0.77445380065E+02  0.64812401703E+01  0.26449656149E+03  0.30269304702E+03  0.12499942523E+03 0.  0.
          2    1    1    2  501    0  0.36839561721E+02  0.64099780548E+01 -0.90853369509E+01  0.38480962487E+02  0.00000000000E+00 0. -1.
          1    1    1    2  502    0  0.40605818344E+02 -0.12891218225E+02  0.41255696062E+03  0.41475084298E+03  0.00000000000E+00 0. -1.
         22    1    3    3    0    0  0.33993009572E+02 -0.13642278192E+01  0.45103907832E+02  0.56495560171E+02  0.00000000000E+00 0.  1.
         22    1    3    3    0    0 -0.11143838964E+03  0.78454679895E+01  0.21939265366E+03  0.24619748685E+03  0.00000000000E+00 0.  1.
</event>
<event>
 7    1  0.5950675E-006  0.2041910E+03  0.7818608E-02  0.1258161E+00
          2   -1    0    0  502    0  0.00000000000E+00  0.00000000000E+00  0.30612094877E+04  0.30612094877E+04  0.00000000000E+00 0. -1.
          1   -1    0    0  501    0 -0.00000000000E+00 -0.00000000000E+00 -0.19930319826E+04  0.19930319826E+04  0.00000000000E+00 0. -1.
         25    2    1    2    0    0  0.16185421935E+03  0.11327326270E+03 -0.81927781965E+03  0.85197956081E+03  0.12500162359E+03 0.  0.
          2    1    1    2  501    0  0.32710378071E+02 -0.51107755113E+02 -0.11531792838E+04  0.11547746239E+04  0.00000000000E+00 0. -1.
          1    1    1    2  502    0 -0.19456459742E+03 -0.62165507587E+02  0.30406346085E+04  0.30474872855E+04  0.00000000000E+00 0. -1.
         22    1    3    3    0    0  0.99446131160E+02  0.87871576810E+02 -0.29606950353E+03  0.32445045529E+03  0.00000000000E+00 0.  1.
         22    1    3    3    0    0  0.62408088187E+02  0.25401685890E+02 -0.52320831612E+03  0.52752910552E+03  0.00000000000E+00 0.  1.
</event>
<event>
 7    1  0.5950675E-006  0.8519782E+02  0.7818608E-02  0.1473359E+00
          2   -1    0    0  502    0  0.00000000000E+00  0.00000000000E+00  0.10407350445E+03  0.10407350445E+03  0.00000000000E+00 0. -1.
          1   -1    0    0  501    0 -0.00000000000E+00 -0.00000000000E+00 -0.25411357956E+03  0.25411357956E+03  0.00000000000E+00 0. -1.
         25    2    1    2    0    0 -0.37404141879E+02  0.56292953695E+02 -0.59467660436E+02  0.15404269147E+03  0.12499912677E+03 0.  0.
          2    1    1    2  501    0  0.43471269837E+02 -0.79446485920E+02 -0.12975262224E+03  0.15823159736E+03  0.00000000000E+00 0. -1.
          1    1    1    2  502    0 -0.60671279580E+01  0.23153532225E+02  0.39180207565E+02  0.45912795177E+02  0.00000000000E+00 0. -1.
         22    1    3    3    0    0 -0.37891913848E+02  0.92196759353E+02 -0.63067288717E+02  0.11795559536E+03  0.00000000000E+00 0.  1.
         22    1    3    3    0    0  0.48777196870E+00 -0.35903805658E+02  0.35996282813E+01  0.36087096114E+02  0.00000000000E+00 0.  1.
</event>
<event>
 7    1  0.5950675E-006  0.1401956E+03  0.7818608E-02  0.1321896E+00
          2   -1    0    0  502    0  0.00000000000E+00  0.00000000000E+00  0.31116514685E+03  0.31116514685E+03  0.00000000000E+00 0. -1.
          1   -1    0    0  501    0 -0.00000000000E+00 -0.00000000000E+00 -0.12531353887E+04  0.12531353887E+04  0.00000000000E+00 0. -1.
         25    2    1    2    0    0 -0.93669592935E+02  0.16133621502E+03  0.60910849635E+02  0.23267824748E+03  0.12500267328E+03 0.  0.
          2    1    1    2  501    0  0.76846174364E+02 -0.11570088592E+03 -0.11594155848E+04  0.11677056683E+04  0.00000000000E+00 0. -1.
          1    1    1    2  502    0  0.16823418571E+02 -0.45635329098E+02  0.15653449326E+03  0.16391661983E+03  0.00000000000E+00 0. -1.
         22    1    3    3    0    0 -0.49176522602E+02  0.59540527610E+01  0.50464947367E+02  0.70714157227E+02  0.00000000000E+00 0. -1.
         22    1    3    3    0    0 -0.44493070333E+02  0.15538216226E+03  0.10445902268E+02  0.16196409025E+03  0.00000000000E+00 0. -1.
</event>
<event>
 7    1  0.5950675E-006  0.1634533E+03  0.7818608E-02  0.1256792E+00
          2   -1    0    0  502    0  0.00000000000E+00  0.00000000000E+00  0.36852440250E+04  0.36852440250E+04  0.00000000000E+00 0. -1.
          1   -1    0    0  501    0 -0.00000000000E+00 -0.00000000000E+00 -0.84220579057E+03  0.84220579057E+03  0.00000000000E+00 0. -1.
         25    2    1    2    0    0  0.57156493595E+02  0.21646526222E+03  0.29384857552E+02  0.25812202610E+03  0.12505773067E+03 0.  0.
          2    1    1    2  501    0 -0.74587839348E+02 -0.14163495338E+03 -0.71861302744E+03  0.73622584104E+03  0.00000000000E+00 0. -1.
          1    1    1    2  502    0  0.17431345754E+02 -0.74830308836E+02  0.35322664043E+04  0.35331019484E+04  0.00000000000E+00 0. -1.
         22    1    3    3    0    0  0.89652524870E+01 -0.47075548325E+01 -0.23565821070E+02  0.25649264071E+02  0.00000000000E+00 0.  1.
         22    1    3    3    0    0  0.48191241108E+02  0.22117281705E+03  0.52950678622E+02  0.23247276203E+03  0.00000000000E+00 0.  1.
</event>
<event>
 7    1  0.5950675E-006  0.8620650E+02  0.7818608E-02  0.1395877E+00
          2   -1    0    0  502    0  0.00000000000E+00  0.00000000000E+00  0.76072177716E+03  0.76072177716E+03  0.00000000000E+00 0. -1.
          1   -1    0    0  501    0 -0.00000000000E+00 -0.00000000000E+00 -0.91280020023E+02  0.91280020023E+02  0.00000000000E+00 0. -1.
         25    2    1    2    0    0  0.36575075142E+02  0.79471920257E+02  0.22053855543E+03  0.26817131791E+03  0.12500031634E+03 0.  0.
          2    1    1    2  501    0  0.33037238023E+02 -0.26599397291E+02 -0.56653801958E+02  0.70771747956E+02  0.00000000000E+00 0. -1.
          1    1    1    2  502    0 -0.69612313166E+02 -0.52872522966E+02  0.50555700366E+03  0.51305873132E+03  0.00000000000E+00 0. -1.
         22    1    3    3    0    0  0.64589690604E+02  0.31536631319E+02  0.19349520952E+03  0.20641410648E+03  0.00000000000E+00 0.  1.
         22    1    3    3    0    0 -0.28014615461E+02  0.47935288939E+02  0.27043345912E+02  0.61757211426E+02  0.00000000000E+00 0.  1.
</event>
<event>
 7    1  0.5950675E-006  0.3563478E+02  0.7818608E-02  0.1568921E+00
          2   -1    0    0  502    0  0.00000000000E+00  0.00000000000E+00  0.15979597142E+04  0.15979597142E+04  0.00000000000E+00 0. -1.
          1   -1    0    0  501    0 -0.00000000000E+00 -0.00000000000E+00 -0.15277135661E+02  0.15277135661E+02  0.00000000000E+00 0. -1.
         25    2    1    2    0    0  0.55355535952E+01 -0.51730008763E+02  0.50035778831E+03  0.51835730934E+03  0.12501898919E+03 0.  0.
          2    1    1    2  501    0 -0.22375379913E+02  0.26642212323E+02  0.43898648173E+02  0.56013894839E+02  0.00000000000E+00 0. -1.
          1    1    1    2  502    0  0.16839826318E+02  0.25087796440E+02  0.10384261421E+04  0.10388656457E+04  0.00000000000E+00 0. -1.
         22    1    3    3    0    0 -0.48338554915E+02 -0.24914085892E+02  0.37917411898E+03  0.38305396496E+03  0.00000000000E+00 0. -1.
         22    1    3    3    0    0  0.53874108510E+02 -0.26815922871E+02  0.12118366933E+03  0.13530334438E+03  0.00000000000E+00 0. -1.
</event>
<event>
 7    1  0.5950675E-006  0.8124682E+02  0.7818608E-02  0.1377226E+00
          2   -1    0    0  502    0  0.00000000000E+00  0.00000000000E+00  0.21425270268E+03  0.21425270268E+03  0.00000000000E+00 0. -1.
          1   -1    0    0  501    0 -0.00000000000E+00 -0.00000000000E+00 -0.13378972557E+04  0.13378972557E+04  0.00000000000E+00 0. -1.
         25    2    1    2    0    0  0.78520478545E+02 -0.51140028068E+01  0.10608569285E+03  0.18185348311E+03  0.12499958607E+03 0.  0.
          2    1    1    2  501    0 -0.60670651519E+02  0.54295305642E+02 -0.12888103957E+04  0.12913795508E+04  0.00000000000E+00 0. -1.
          1    1    1    2  502    0 -0.17849827026E+02 -0.49181302835E+02  0.59080149791E+02  0.78916924502E+02  0.00000000000E+00 0. -1.
         22    1    3    3    0    0  0.22073842710E+02 -0.61920679159E+02  0.62365062787E+02  0.90613608779E+02  0.00000000000E+00 0.  1.
         22    1    3    3    0    0  0.56446635835E+02  0.56806676352E+02  0.43720630064E+02  0.91239874334E+02  0.00000000000E+00 0.  1.
</event>
<event>
 7    1  0.5950675E-006  0.5327449E+02  0.7818608E-02  0.1485345E+00
          2   -1    0    0  502    0  0.00000000000E+00  0.00000000000E+00  0.15694290809E+04  0.15694290809E+04  0.00000000000E+00 0. -1.
          1   -1    0    0  501    0 -0.00000000000E+00 -0.00000000000E+00 -0.12961895213E+04  0.12961895213E+04  0.00000000000E+00 0. -1.
         25    2    1    2    0    0  0.57449595372E+02  0.16296713419E+02  0.40851203798E+02  0.14442892477E+03  0.12499941832E+03 0.  0.
          2    1    1    2  501    0 -0.50135572521E+02  0.18102089455E+02 -0.12436203061E+04  0.12447621166E+04  0.00000000000E+00 0. -1.
          1    1    1    2  502    0 -0.73140228513E+01 -0.34398802873E+02  0.14760086619E+04  0.14764275609E+04  0.00000000000E+00 0. -1.
         22    1    3    3    0    0 -0.38356548075E+02  0.18682614272E+02  0.13993425087E+02  0.44900788434E+02  0.00000000000E+00 0. -1.
         22    1    3    3    0    0  0.95806143447E+02 -0.23859008535E+01  0.26857778712E+02  0.99528136336E+02  0.00000000000E+00 0. -1.
</event>
<event>
 7    1  0.5950675E-006  0.1433152E+03  0.7818608E-02  0.1271955E+00
          2   -1    0    0  502    0  0.00000000000E+00  0.00000000000E+00  0.25891126343E+03  0.25891126343E+03  0.00000000000E+00 0. -1.
          1   -1    0    0  501    0 -0.00000000000E+00 -0.00000000000E+00 -0.26180771972E+04  0.26180771972E+04  0.00000000000E+00 0. -1.
         25    2    1    2    0    0  0.95131766996E+02 -0.13411060868E+03 -0.21113837824E+02  0.20761814570E+03  0.12499516719E+03 0.  0.
          2    1    1    2  501    0 -0.19951588445E+02  0.14184906474E+03 -0.24929268011E+04  0.24970388981E+04  0.00000000000E+00 0. -1.
          1    1    1    2  502    0 -0.75180178551E+02 -0.77384560564E+01  0.15487470512E+03  0.17233141686E+03  0.00000000000E+00 0. -1.
         22    1    3    3    0    0  0.60586811305E+02 -0.13628687645E+03 -0.55204236633E+02  0.15903578886E+03  0.00000000000E+00 0. -1.
         22    1    3    3    0    0  0.34544955691E+02  0.21762677622E+01  0.34090398809E+02  0.48582356839E+02  0.00000000000E+00 0. -1.
</event>
<event>
 7    1  0.5950675E-006  0.1404082E+03  0.7818608E-02  0.1323260E+00
          2   -1    0    0  502    0  0.00000000000E+00  0.00000000000E+00  0.27929714973E+04  0.27929714973E+04  0.00000000000E+00 0. -1.
          1   -1    0    0  501    0 -0.00000000000E+00 -0.00000000000E+00 -0.19855474879E+04  0.19855474879E+04  0.00000000000E+00 0. -1.
         25    2    1    2    0    0  0.10573943273E+02 -0.13902987195E+03  0.73774285588E+02  0.20126697143E+03  0.12499854001E+03 0.  0.
          2    1    1    2  501    0 -0.47858282555E+02  0.33917624521E+01 -0.19196382525E+04  0.19202377300E+04  0.00000000000E+00 0. -1.
          1    1    1    2  502    0  0.37284339282E+02  0.13563810949E+03  0.26532879763E+04  0.26570142837E+04  0.00000000000E+00 0. -1.
         22    1    3    3    0    0  0.19377173878E+02 -0.16083004015E+03  0.73162509246E+02  0.17774850053E+03  0.00000000000E+00 0.  1.
         22    1    3    3    0    0 -0.88032306053E+01  0.21800168207E+02  0.61177634232E+00  0.23518470895E+02  0.00000000000E+00 0.  1.
</event>
<event>
 7    1  0.5950675E-006  0.9386012E+02  0.7818608E-02  0.1361828E+00
          2   -1    0    0  502    0  0.00000000000E+00  0.00000000000E+00  0.14745327336E+04  0.14745327336E+04  0.00000000000E+00 0. -1.
          1   -1    0    0  501    0 -0.00000000000E+00 -0.00000000000E+00 -0.18585734719E+03  0.18585734719E+03  0.00000000000E+00 0. -1.
         25    2    1    2    0    0 -0.84538356465E+02  0.78674479506E+02  0.50243605829E+02  0.17745290015E+03  0.12501481675E+03 0.  0.
          2    1    1    2  501    0  0.50726753258E+02  0.86013894189E+01 -0.11515077591E+03  0.12612251421E+03  0.00000000000E+00 0. -1.
          1    1    1    2  502    0  0.33811603206E+02 -0.87275868925E+02  0.13535825565E+04  0.13568146665E+04  0.00000000000E+00 0. -1.
         22    1    3    3    0    0 -0.59572955303E+02  0.11190210913E+03  0.48881798144E+02  0.13586923574E+03  0.00000000000E+00 0. -1.
         22    1    3    3    0    0 -0.24965401162E+02 -0.33227629626E+02  0.13618076850E+01  0.41583664412E+02  0.00000000000E+00 0. -1.
</event>
<event>
 7    1  0.5950675E-006  0.9879966E+02  0.7818608E-02  0.1464571E+00
          2   -1    0    0  502    0  0.00000000000E+00  0.00000000000E+00  0.12978651559E+04  0.12978651559E+04  0.00000000000E+00 0. -1.
          1   -1    0    0  501    0 -0.00000000000E+00 -0.00000000000E+00 -0.38029612566E+03  0.38029612566E+03  0.00000000000E+00 0. -1.
         25    2    1    2    0    0  0.25362537272E+02  0.10190831443E+03  0.45737625036E+02  0.16954841752E+03  0.12500469068E+03 0.  0.
          2    1    1    2  501    0  0.17646212172E+02 -0.13109621136E+02 -0.31596339354E+03  0.31672719654E+03  0.00000000000E+00 0. -1.
          1    1    1    2  502    0 -0.43008749445E+02 -0.88798693293E+02  0.11877947987E+04  0.11918856675E+04  0.00000000000E+00 0. -1.
         22    1    3    3    0    0  0.24577280853E+02  0.12701413749E+03  0.57787036268E+02  0.14168971528E+03  0.00000000000E+00 0.  1.
         22    1    3    3    0    0  0.78525641955E+00 -0.25105823059E+02 -0.12049411232E+02  0.27858702234E+02  0.00000000000E+00 0.  1.
</event>
<event>
 7    1  0.5950675E-006  0.9779775E+02  0.7818608E-02  0.1432325E+00
          2   -1    0    0  502    0  0.00000000000E+00  0.00000000000E+00  0.40860246727E+03  0.40860246727E+03  0.00000000000E+00 0. -1.
          1   -1    0    0  501    0 -0.00000000000E+00 -0.00000000000E+00 -0.26503532773E+03  0.26503532773E+03  0.00000000000E+00 0. -1.
         25    2    1    2    0    0  0.43598492656E+02 -0.10588124459E+03 -0.35163747954E+02  0.17312836584E+03  0.12500110147E+03 0.  0.
          2    1    1    2  501    0  0.11038684934E+02  0.25926931811E+02 -0.15267033267E+03  0.15524911863E+03  0.00000000000E+00 0. -1.
          1    1    1    2  502    0 -0.54637177589E+02  0.79954312784E+02  0.33140122017E+03  0.34526031054E+03  0.00000000000E+00 0. -1.
         22    1    3    3    0    0  0.45232229257E+02 -0.22270828744E+02 -0.66823382497E+02  0.83709669841E+02  0.00000000000E+00 0.  1.
         22    1    3    3    0    0 -0.16337366014E+01 -0.83610415851E+02  0.31659634543E+02  0.89418695995E+02  0.00000000000E+00 0.  1.
</event>
<event>
 7    1  0.5950675E-006  0.7437018E+02  0.7818608E-02  0.1472915E+00
          2   -1    0    0  502    0  0.00000000000E+00  0.00000000000E+00  0.22599418243E+04  0.22599418243E+04  0.00000000000E+00 0. -1.
          1   -1    0    0  501    0 -0.00000000000E+00 -0.00000000000E+00 -0.15114698885E+03  0.15114698885E+03  0.00000000000E+00 0. -1.
         25    2    1    2    0    0  0.42122800596E+02  0.86138971374E+02 -0.67208503367E+02  0.17127782661E+03  0.12499943297E+03 0.  0.
          2    1    1    2  501    0 -0.23537199402E+02 -0.14234784153E+02 -0.25229882330E+02  0.37325270233E+02  0.00000000000E+00 0. -1.
          1    1    1    2  502    0 -0.18585601194E+02 -0.71904187221E+02  0.22012332211E+04  0.22024857163E+04  0.00000000000E+00 0. -1.
         22    1    3    3    0    0  0.53112949958E+02  0.87970688304E+02 -0.95863218114E+02  0.14053321330E+03  0.00000000000E+00 0. -1.
         22    1    3    3    0    0 -0.10990149362E+02 -0.18317169304E+01  0.28654714747E+02  0.30744613303E+02  0.00000000000E+00 0. -1.
</event>
<event>
 7    1  0.5950675E-006  0.6167038E+02  0.7818608E-02  0.1483051E+00
          2   -1    0    0  502    0  0.00000000000E+00  0.00000000000E+00  0.10447069648E+04  0.10447069648E+04  0.00000000000E+00 0. -1.
          1   -1    0    0  501    0 -0.00000000000E+00 -0.00000000000E+00 -0.19006074399E+04  0.19006074399E+04  0.00000000000E+00 0. -1.
         25    2    1    2    0    0  0.18490011764E+02  0.26401658220E+02  0.19963439945E+03  0.23773484013E+03  0.12500013071E+03 0.  0.
          2    1    1    2  501    0 -0.24442611131E+02 -0.56695680516E+02 -0.18807620113E+04  0.18817751153E+04  0.00000000000E+00 0. -1.
          1    1    1    2  502    0  0.59525993665E+01  0.30294022296E+02  0.82522713676E+03  0.82580444929E+03  0.00000000000E+00 0. -1.
         22    1    3    3    0    0  0.14023965113E+02 -0.55350503694E+01  0.20455870841E+03  0.20511356261E+03  0.00000000000E+00 0.  1.
         22    1    3    3    0    0  0.44660466513E+01  0.31936708590E+02 -0.49243089648E+01  0.32621277520E+02  0.00000000000E+00 0.  1.
</event>
<event>
 7    1  0.5950675E-006  0.1400322E+03  0.7818608E-02  0.1355360E+00
          2   -1    0    0  502    0  0.00000000000E+00  0.00000000000E+00  0.19842827927E+04  0.19842827927E+04  0.00000000000E+00 0. -1.
          1   -1    0    0  501    0 -0.00000000000E+00 -0.00000000000E+00 -0.41399765377E+03  0.41399765377E+03  0.00000000000E+00 0. -1.
         25    2    1    2    0    0 -0.53534190308E+01 -0.17390644982E+03  0.21599739561E+03  0.30422257234E+03  0.12499754489E+03 0.  0.
          2    1    1    2  501    0  0.55384745417E+01  0.35993170934E+02 -0.36622267546E+03  0.36802884544E+03  0.00000000000E+00 0. -1.
          1    1    1    2  502    0 -0.18505551094E+00  0.13791327888E+03  0.17205104187E+04  0.17260290287E+04  0.00000000000E+00 0. -1.
         22    1    3    3    0    0 -0.32041525260E+02 -0.41722854597E+02  0.13971571577E+03  0.14929145043E+03  0.00000000000E+00 0. -1.
         22    1    3    3    0    0  0.26688106230E+02 -0.13218359522E+03  0.76281679843E+02  0.15493112192E+03  0.00000000000E+00 0. -1.
</event>
<event>
 7    1  0.5950675E-006  0.1141493E+03  0.7818608E-02  0.1292750E+00
          2   -1    0    0  502    0  0.00000000000E+00  0.00000000000E+00  0.87914260065E+03  0.87914260065E+03  0.00000000000E+00 0. -1.
          1   -1    0    0  501    0 -0.00000000000E+00 -0.00000000000E+00 -0.56779825003E+03  0.56779825003E+03  0.00000000000E+00 0. -1.
         25    2    1    2    0    0 -0.45601065625E+02  0.64105475366E+02  0.51362354296E+02  0.15637267905E+03  0.12500141662E+03 0.  0.
          2    1    1    2  501    0 -0.11511784308E+02 -0.11709670599E+03 -0.50657608280E+03  0.52006104199E+03  0.00000000000E+00 0. -1.
          1    1    1    2  502    0  0.57112849934E+02  0.52991230624E+02  0.76655807912E+03  0.77050712963E+03  0.00000000000E+00 0. -1.
         22    1    3    3    0    0 -0.47838958201E+02  0.48160485042E+02  0.91034634159E+02  0.11355748702E+03  0.00000000000E+00 0.  1.
         22    1    3    3    0    0  0.22378925760E+01  0.15944990324E+02 -0.39672279863E+02  0.42815192037E+02  0.00000000000E+00 0.  1.
</event>
<event>
 7    1  0.5950675E-006  0.5853869E+02  0.7818608E-02  0.1408215E+00
          2   -1    0    0  502    0  0.00000000000E+00  0.00000000000E+00  0.12444036679E+04  0.12444036679E+04  0.00000000000E+00 0. -1.
          1   -1    0    0  501    0 -0.00000000000E+00 -0.00000000000E+00 -0.27033154332E+03  0.27033154332E+03  0.00000000000E+00 0. -1.
         25    2    1    2    0    0 -0.63240163528E+02 -0.76721249420E+02  0.20190870602E+02  0.16099148142E+03  0.12500046975E+03 0.  0.
          2    1    1    2  501    0  0.53239795607E+02  0.20946069947E+02 -0.19512577437E+03  0.20334030960E+03  0.00000000000E+00 0. -1.
          1    1    1    2  502    0  0.10000367921E+02  0.55775179472E+02  0.11490070284E+04  0.11504034202E+04  0.00000000000E+00 0. -1.
         22    1    3    3    0    0  0.18385879324E+01  0.20610924338E+02  0.37307948176E+02  0.42662320667E+02  0.00000000000E+00 0. -1.
         22    1    3    3    0    0 -0.65078751460E+02 -0.97332173757E+02 -0.17117077574E+02  0.11832916075E+03  0.00000000000E+00 0. -1.
</event>
<event>
 7    1  0.5950675E-006  0.1249641E+03  0.7818608E-02  0.1262014E+00
          2   -1    0    0  502    0  0.00000000000E+00  0.00000000000E+00  0.68847349911E+02  0.68847349911E+02  0.00000000000E+00 0. -1.
          1   -1    0    0  501    0 -0.00000000000E+00 -0.00000000000E+00 -0.10127929690E+04  0.10127929690E+04  0.00000000000E+00 0. -1.
         25    2    1    2    0    0 -0.11425342472E+03  0.96578086239E+02 -0.11961147973E+03  0.22872635541E+03  0.12501067064E+03 0.  0.
          2    1    1    2  501    0  0.95279652027E+02  0.59720439618E+01 -0.57144025133E+03  0.57935985212E+03  0.00000000000E+00 0. -1.
          1    1    1    2  502    0  0.18973772696E+02 -0.10255013020E+03 -0.25289388799E+03  0.27355411135E+03  0.00000000000E+00 0. -1.
         22    1    3    3    0    0 -0.11889389616E+03  0.10260170914E+03 -0.13785212156E+03  0.20896429523E+03  0.00000000000E+00 0. -1.
         22    1    3    3    0    0  0.46404714421E+01 -0.60236228985E+01  0.18240641830E+02  0.19762060176E+02  0.00000000000E+00 0. -1.
</event>
<event>
 7    1  0.5950675E-006  0.8035599E+02  0.7818608E-02  0.1471386E+00
          2   -1    0    0  502    0  0.00000000000E+00  0.00000000000E+00  0.27053070354E+03  0.27053070354E+03  0.00000000000E+00 0. -1.
          1   -1    0    0  501    0 -0.00000000000E+00 -0.00000000000E+00 -0.25920147316E+03  0.25920147316E+03  0.00000000000E+00 0. -1.
         25    2    1    2    0    0 -0.42111916180E+02 -0.72309295579E+02 -0.32450957573E+01  0.15045748278E+03  0.12499950307E+03 0.  0.
          2    1    1    2  501    0  0.24971102142E+02 -0.62336409289E+01 -0.17315452798E+03  0.17505686157E+03  0.00000000000E+00 0. -1.
          1    1    1    2  502    0  0.17140814038E+02  0.78542936508E+02  0.18772885412E+03  0.20421783235E+03  0.00000000000E+00 0. -1.
         22    1    3    3    0    0  0.31865428284E+02 -0.68143434553E+02  0.74547314061E+01  0.75594353048E+02  0.00000000000E+00 0. -1.
         22    1    3    3    0    0 -0.73977344464E+02 -0.41658610257E+01 -0.10699827163E+02  0.74863129732E+02  0.00000000000E+00 0. -1.
</event>
<event>
 7    1  0.5950675E-006  0.5519581E+02  0.7818608E-02  0.1528290E+00
          2   -1    0    0  502    0  0.00000000000E+00  0.00000000000E+00  0.50229605228E+03  0.50229605228E+03  0.00000000000E+00 0. -1.
          1   -1    0    0  501    0 -0.00000000000E+00 -0.00000000000E+00 -0.62253646856E+03  0.62253646856E+03  0.00000000000E+00 0. -1.
         25    2    1    2    0    0  0.17401256358E+02 -0.38739321141E+02  0.22420255586E+03  0.26018212857E+03  0.12499766097E+03 0.  0.
          2    1    1    2  501    0 -0.42510495715E+02  0.35344949417E+02 -0.60266138545E+03  0.60519183174E+03  0.00000000000E+00 0. -1.
          1    1    1    2  502    0  0.25109239356E+02  0.33943717241E+01  0.25821841331E+03  0.25945856053E+03  0.00000000000E+00 0. -1.
         22    1    3    3    0    0  0.42390943796E+02 -0.76065495090E+02  0.14979990479E+03  0.17327135694E+03  0.00000000000E+00 0. -1.
         22    1    3    3    0    0 -0.24989687438E+02  0.37326173949E+02  0.74402651067E+02  0.86910771632E+02  0.00000000000E+00 0. -1.
</event>
<event>
 7    1  0.5950675E-006  0.8972325E+02  0.7818608E-02  0.1489971E+00
          2   -1    0    0  502    0  0.00000000000E+00  0.00000000000E+00  0.39122384988E+04  0.39122384988E+04  0.00000000000E+00 0. -1.
          1   -1    0    0  501    0 -0.00000000000E+00 -0.00000000000E+00 -0.50396566813E+03  0.50396566813E+03  0.00000000000E+00 0. -1.
         25    2    1    2    0    0  0.31145760640E+02 -0.80001995602E+02 -0.38850651534E+03  0.41704721534E+03  0.12498275742E+03 0.  0.
          2    1    1    2  501    0 -0.18205571485E+02 -0.87910703728E+01 -0.99657276463E+02  0.10168725831E+03  0.00000000000E+00 0. -1.
          1    1    1    2  502    0 -0.12940189156E+02  0.88793065975E+02  0.38964366225E+04  0.38974696933E+04  0.00000000000E+00 0. -1.
         22    1    3    3    0    0  0.46052844604E+02  0.14001284779E+02 -0.72543064583E+02  0.87059730592E+02  0.00000000000E+00 0. -1.
         22    1    3    3    0    0 -0.14907083964E+02 -0.94003280381E+02 -0.31596345076E+03  0.32998748475E+03  0.00000000000E+00 0. -1.
</event>
<event>
 7    1  0.5950675E-006  0.1167986E+03  0.7818608E-02  0.1271108E+00
          2   -1    0    0  502    0  0.00000000000E+00  0.00000000000E+00  0.11554666742E+04  0.11554666742E+04  0.00000000000E+00 0. -1.
          1   -1    0    0  501    0 -0.00000000000E+00 -0.00000000000E+00 -0.29463500130E+03  0.29463500130E+03  0.00000000000E+00 0. -1.
         25    2    1    2    0    0  0.13814224559E+03 -0.55436972349E+01  0.40495264839E+03  0.44578660171E+03  0.12500013691E+03 0.  0.
          2    1    1    2  501    0 -0.83963717569E+02  0.81742294989E+02 -0.25851233016E+03  0.28383152310E+03  0.00000000000E+00 0. -1.
          1    1    1    2  502    0 -0.54178528021E+02 -0.76198597755E+02  0.71439135469E+03  0.72048355072E+03  0.00000000000E+00 0. -1.
         22    1    3    3    0    0  0.15340511557E+03  0.22293967570E+00  0.27567630949E+03  0.31548471722E+03  0.00000000000E+00 0.  1.
         22    1    3    3    0    0 -0.15262869984E+02 -0.57666369106E+01  0.12927633890E+03  0.13030188449E+03  0.00000000000E+00 0.  1.
</event>
<event>
 7    1  0.5950675E-006  0.8159633E+02  0.7818608E-02  0.1378687E+00
          2   -1    0    0  502    0  0.00000000000E+00  0.00000000000E+00  0.27775905953E+04  0.27775905953E+04  0.00000000000E+00 0. -1.
          1   -1    0    0  501    0 -0.00000000000E+00 -0.00000000000E+00 -0.93416745443E+02  0.93416745443E+02  0.00000000000E+00 0. -1.
         25    2    1    2    0    0 -0.76315380124E+02  0.21691838569E+02  0.50253273527E+01  0.14813721629E+03  0.12499923132E+03 0.  0.
          2    1    1    2  501    0  0.60355654994E+02 -0.70632457920E+02  0.78270119132E+02  0.12148234748E+03  0.00000000000E+00 0. -1.
          1    1    1    2  502    0  0.15959725130E+02  0.48940619351E+02  0.26008784034E+04  0.26013877770E+04  0.00000000000E+00 0. -1.
         22    1    3    3    0    0 -0.15973863397E+02 -0.28946789920E+02 -0.44237848283E+02  0.55227422348E+02  0.00000000000E+00 0.  1.
         22    1    3    3    0    0 -0.60341516727E+02  0.50638628489E+02  0.49263175635E+02  0.92909793939E+02  0.00000000000E+00 0.  1.
</event>
<event>
 7    1  0.5950675E-006  0.7706086E+02  0.7818608E-02  0.1496151E+00
          2   -1    0    0  502    0  0.00000000000E+00  0.00000000000E+00  0.39515477332E+03  0.39515477332E+03  0.00000000000E+00 0. -1.
          1   -1    0    0  501    0 -0.00000000000E+00 -0.00000000000E+00 -0.82274663682E+03  0.82274663682E+03  0.00000000000E+00 0. -1.
         25    2    1    2    0    0  0.41137650811E+02  0.39818880319E+02  0.17078080069E+03  0.21924296544E+03  0.12499418573E+03 0.  0.
          2    1    1    2  501    0 -0.46447868669E+02 -0.61735866349E+02 -0.79600413078E+03  0.79974452041E+03  0.00000000000E+00 0. -1.
          1    1    1    2  502    0  0.53102178583E+01  0.21916986031E+02  0.19763146659E+03  0.19891392429E+03  0.00000000000E+00 0. -1.
         22    1    3    3    0    0 -0.28775588689E+02  0.58908891721E+01 -0.23552046804E+01  0.29466660291E+02  0.00000000000E+00 0.  1.
         22    1    3    3    0    0  0.69913239500E+02  0.33927991147E+02  0.17313600537E+03  0.18977630515E+03  0.00000000000E+00 0.  1.
</event>
<event>
 7    1  0.5950675E-006  0.3390719E+02  0.7818608E-02  0.1567734E+00
          2   -1    0    0  502    0  0.00000000000E+00  0.00000000000E+00  0.26418784457E+04  0.26418784457E+04  0.00000000000E+00 0. -1.
          1   -1    0    0  501    0 -0.00000000000E+00 -0.00000000000E+00 -0.24355801253E+02  0.24355801253E+02  0.00000000000E+00 0. -1.
         25    2    1    2    0    0 -0.34929487277E+02 -0.33923821442E+02  0.25829282022E+03  0.29105227819E+03  0.12500141167E+03 0.  0.
          2    1    1    2  501    0  0.29459669899E+01  0.33176763721E+02  0.27390695930E+02  0.43123388040E+02  0.00000000000E+00 0. -1.
          1    1    1    2  502    0  0.31983520287E+02  0.74705772012E+00  0.23318391283E+04  0.23320585807E+04  0.00000000000E+00 0. -1.
         22    1    3    3    0    0  0.18645291897E+02 -0.55302579671E+02  0.56699020371E+02  0.81368305495E+02  0.00000000000E+00 0. -1.
         22    1    3    3    0    0 -0.53574779174E+02  0.21378758230E+02  0.20159379985E+03  0.20968397269E+03  0.00000000000E+00 0. -1.
</event>
<event>
 7    1  0.5950675E-006  0.2735170E+02  0.7818608E-02  0.1649724E+00
          2   -1    0    0  502    0  0.00000000000E+00  0.00000000000E+00  0.40454337723E+03  0.40454337723E+03  0.00000000000E+00 0. -1.
          1   -1    0    0  501    0 -0.00000000000E+00 -0.00000000000E+00 -0.52892814861E+03  0.52892814861E+03  0.00000000000E+00 0. -1.
         25    2    1    2    0    0 -0.36032828979E+00  0.78773273934E+01 -0.30608474448E+03  0.33071773898E+03  0.12499667977E+03 0.  0.
          2    1    1    2  501    0  0.21887119549E+02 -0.19242245300E+02 -0.20913786913E+03  0.21115860937E+03  0.00000000000E+00 0. -1.
          1    1    1    2  502    0 -0.21526791259E+02  0.11364917907E+02  0.39083784224E+03  0.39159517748E+03  0.00000000000E+00 0. -1.
         22    1    3    3    0    0 -0.26070095553E+02 -0.49447834322E+02 -0.92444325098E+02  0.10803097447E+03  0.00000000000E+00 0.  1.
         22    1    3    3    0    0  0.25709767263E+02  0.57325161716E+02 -0.21364041938E+03  0.22268676452E+03  0.00000000000E+00 0.  1.
</event>
<event>
 7    1  0.5950675E-006  0.1205334E+03  0.7818608E-02  0.1395323E+00
          2   -1    0    0  502    0  0.00000000000E+00  0.00000000000E+00  0.10544525068E+04  0.10544525068E+04  0.00000000000E+00 0. -1.
          1   -1    0    0  501    0 -0.00000000000E+00 -0.00000000000E+00 -0.31840356192E+03  0.31840356192E+03  0.00000000000E+00 0. -1.
         25    2    1    2    0    0  0.13829060766E+03 -0.48987826283E+02 -0.22752946434E+03  0.29819220559E+03  0.12499934018E+03 0.  0.
          2    1    1    2  501    0 -0.30247872887E+02 -0.36690552789E+01 -0.47518531801E+02  0.56448265211E+02  0.00000000000E+00 0. -1.
          1    1    1    2  502    0 -0.10804273477E+03  0.52656881562E+02  0.10110969410E+04  0.10182155979E+04  0.00000000000E+00 0. -1.
         22    1    3    3    0    0  0.80713962833E+02 -0.65429172576E+02 -0.21237002163E+03  0.23642492785E+03  0.00000000000E+00 0.  1.
         22    1    3    3    0    0  0.57576644825E+02  0.16441346293E+02 -0.15159442710E+02  0.61767277748E+02  0.00000000000E+00 0.  1.
</event>
<event>
 7    1  0.5950675E-006  0.1155849E+03  0.7818608E-02  0.1276187E+00
          2   -1    0    0  502    0  0.00000000000E+00  0.00000000000E+00  0.23151137125E+04  0.23151137125E+04  0.00000000000E+00 0. -1.
          1   -1    0    0  501    0 -0.00000000000E+00 -0.00000000000E+00 -0.11695897013E+04  0.11695897013E+04  0.00000000000E+00 0. -1.
         25    2    1    2    0    0 -0.14873553042E+03  0.13666653839E+03  0.32365021560E+03  0.40146631684E+03  0.12500296307E+03 0.  0.
          2    1    1    2  501    0  0.66337377128E+02 -0.60787166726E+02 -0.11272811132E+04  0.11308662323E+04  0.00000000000E+00 0. -1.
          1    1    1    2  502    0  0.82398153288E+02 -0.75879371662E+02  0.19491549088E+04  0.19523708647E+04  0.00000000000E+00 0. -1.
         22    1    3    3    0    0 -0.13982825440E+03  0.13162651752E+03  0.33502842100E+03  0.38616256126E+03  0.00000000000E+00 0. -1.
         22    1    3    3    0    0 -0.89072760194E+01  0.50400208682E+01 -0.11378205405E+02  0.15303755574E+02  0.00000000000E+00 0. -1.
</event>
<event>
 7    1  0.5950675E-006  0.7975454E+02  0.7818608E-02  0.1330242E+00
          2   -1    0    0  502    0  0.00000000000E+00  0.00000000000E+00  0.75932029074E+03  0.75932029074E+03  0.00000000000E+00 0. -1.
          1   -1    0    0  501    0 -0.00000000000E+00 -0.00000000000E+00 -0.29274667932E+03  0.29274667932E+03  0.00000000000E+00 0. -1.
         25    2    1    2    0    0 -0.28884368717E+02  0.41610388399E+02  0.14137002396E+02  0.13562574387E+03  0.12501502464E+03 0.  0.
          2    1    1    2  501    0  0.84581018137E+02  0.14991626241E+02 -0.22163985713E+03  0.23770343657E+03  0.00000000000E+00 0. -1.
          1    1    1    2  502    0 -0.55696649421E+02 -0.56602014640E+02  0.67407646616E+03  0.67873778961E+03  0.00000000000E+00 0. -1.
         22    1    3    3    0    0 -0.52226344921E+02  0.65615255238E+02 -0.21655570552E+02  0.86613604934E+02  0.00000000000E+00 0.  1.
         22    1    3    3    0    0  0.23341976204E+02 -0.24004866839E+02  0.35792572948E+02  0.49012138938E+02  0.00000000000E+00 0.  1.
</event>
<event>
 7    1  0.5950675E-006  0.5023150E+02  0.7818608E-02  0.1474309E+00
          2   -1    0    0  502    0  0.00000000000E+00  0.00000000000E+00  0.12581157780E+04  0.12581157780E+04  0.00000000000E+00 0. -1.
          1   -1    0    0  501    0 -0.00000000000E+00 -0.00000000000E+00 -0.67691031780E+03  0.67691031780E+03  0.00000000000E+00 0. -1.
         25    2    1    2    0    0  0.58508179953E+02 -0.15933559185E+02  0.30536093685E+03  0.33548344537E+03  0.12500701955E+03 0.  0.
          2    1    1    2  501    0 -0.45122821932E+02 -0.22102633334E+02 -0.66046089273E+03  0.66236937300E+03  0.00000000000E+00 0. -1.
          1    1    1    2  502    0 -0.13385358021E+02  0.38036192519E+02  0.93630541609E+03  0.93717327744E+03  0.00000000000E+00 0. -1.
         22    1    3    3    0    0  0.68361893846E+01 -0.65571157154E+02  0.12305369144E+03  0.13960129338E+03  0.00000000000E+00 0.  1.
         22    1    3    3    0    0  0.51671990568E+02  0.49637597969E+02  0.18230724540E+03  0.19588215199E+03  0.00000000000E+00 0.  1.
</event>
<event>
 7    1  0.5950675E-006  0.8642441E+02  0.7818608E-02  0.1467758E+00
          2   -1    0    0  502    0  0.00000000000E+00  0.00000000000E+00  0.36454789967E+03  0.36454789967E+03  0.00000000000E+00 0. -1.
          1   -1    0    0  501    0 -0.00000000000E+00 -0.00000000000E+00 -0.30358348469E+03  0.30358348469E+03  0.00000000000E+00 0. -1.
         25    2    1    2    0    0 -0.71679601655E+02 -0.25370080620E+02  0.33253707806E+02  0.15004151168E+03  0.12500015945E+03 0.  0.
          2    1    1    2  501    0 -0.16037068442E+02  0.18602007092E+02 -0.23744914883E+03  0.23871598294E+03  0.00000000000E+00 0. -1.
          1    1    1    2  502    0  0.87716670097E+02  0.67680735277E+01  0.26515985600E+03  0.27937388974E+03  0.00000000000E+00 0. -1.
         22    1    3    3    0    0  0.36110002194E+01 -0.52839013288E+02 -0.16784792040E+02  0.55558346732E+02  0.00000000000E+00 0.  1.
         22    1    3    3    0    0 -0.75290601874E+02  0.27468932668E+02  0.50038499846E+02  0.94483164952E+02  0.00000000000E+00 0.  1.
</event>
<event>
 7    1  0.5950675E-006  0.1294371E+03  0.7818608E-02  0.1230953E+00
          2   -1    0    0  502    0  0.00000000000E+00  0.00000000000E+00  0.47629408370E+03  0.47629408370E+03  0.00000000000E+00 0. -1.
          1   -1    0    0  501    0 -0.00000000000E+00 -0.00000000000E+00 -0.72887314150E+03  0.72887314150E+03  0.00000000000E+00 0. -1.
         25    2    1    2    0    0  0.34796386895E+02  0.36898694009E+02 -0.84511036211E+02  0.15918424623E+03  0.12500082738E+03 0.  0.
          2    1    1    2  501    0 -0.10044265698E+03  0.81640831336E+02 -0.58937530887E+03  0.60342125201E+03  0.00000000000E+00 0. -1.
          1    1    1    2  502    0  0.65646270082E+02 -0.11853952535E+03  0.42130728729E+03  0.44256172695E+03  0.00000000000E+00 0. -1.
         22    1    3    3    0    0  0.60325988450E+02  0.25294879715E+02 -0.10551534380E+03  0.12414726578E+03  0.00000000000E+00 0.  1.
         22    1    3    3    0    0 -0.25529601555E+02  0.11603814294E+02  0.21004307593E+02  0.35036980452E+02  0.00000000000E+00 0.  1.
</event>
<event>
 7    1  0.5950675E-006  0.1194126E+03  0.7818608E-02  0.1285196E+00
          2   -1    0    0  502    0  0.00000000000E+00  0.00000000000E+00  0.11939253391E+04  0.11939253391E+04  0.00000000000E+00 0. -1.
          1   -1    0    0  501    0 -0.00000000000E+00 -0.00000000000E+00 -0.38130430187E+02  0.38130430187E+02  0.00000000000E+00 0. -1.
         25    2    1    2    0    0  0.52723258050E+02  0.61050582379E+02  0.50856911566E+03  0.52987355633E+03  0.12496609438E+03 0.  0.
          2    1    1    2  501    0  0.62406632211E+02  0.49965828679E+02  0.81022075145E+02  0.11382332116E+03  0.00000000000E+00 0. -1.
          1    1    1    2  502    0 -0.11512989026E+03 -0.11101641106E+03  0.56620371809E+03  0.58835889178E+03  0.00000000000E+00 0. -1.
         22    1    3    3    0    0 -0.11089759521E+02  0.38003874355E+02  0.39927432429E+03  0.40123218125E+03  0.00000000000E+00 0.  1.
         22    1    3    3    0    0  0.63813017571E+02  0.23046708025E+02  0.10929479138E+03  0.12864137509E+03  0.00000000000E+00 0.  1.
</event>
<event>
 7    1  0.6803449E-006  0.1012900E+03  0.7818608E-02  0.1309031E+00
          2   -1    0    0  502    0  0.00000000000E+00  0.00000000000E+00  0.23889956474E+04  0.23889956474E+04  0.00000000000E+00 0. -1.
          1   -1    0    0  501    0 -0.00000000000E+00 -0.00000000000E+00 -0.67875643718E+03  0.67875643718E+03  0.00000000000E+00 0. -1.
         25    2    1    2    0    0 -0.11277138739E+03 -0.17563738653E+02  0.32340408044E+02  0.17232410523E+03  0.12499529799E+03 0.  0.
          2    1    1    2  501    0  0.26355747872E+02  0.70836818178E+02 -0.60528642701E+03  0.60998699902E+03  0.00000000000E+00 0. -1.
          1    1    1    2  502    0  0.86415639521E+02 -0.53273079525E+02  0.22831852292E+04  0.22854409803E+04  0.00000000000E+00 0. -1.
         22    1    3    3    0    0 -0.41128964079E+02 -0.18476275147E+02  0.76038576833E+02  0.88401524853E+02  0.00000000000E+00 0.  1.
         22    1    3    3    0    0 -0.71642423314E+02  0.91253649347E+00 -0.43698168789E+02  0.83922580375E+02  0.00000000000E+00 0.  1.
</event>
<event>
 7    1  0.5950675E-006  0.9550112E+02  0.7818608E-02  0.1326459E+00
          2   -1    0    0  502    0  0.00000000000E+00  0.00000000000E+00  0.46063706973E+03  0.46063706973E+03  0.00000000000E+00 0. -1.
          1   -1    0    0  501    0 -0.00000000000E+00 -0.00000000000E+00 -0.48925559389E+03  0.48925559389E+03  0.00000000000E+00 0. -1.
         25    2    1    2    0    0 -0.32021490820E+02  0.10528825237E+03  0.14220003237E+03  0.21899017534E+03  0.12499942290E+03 0.  0.
          2    1    1    2  501    0 -0.34642423742E+02 -0.89248431099E+02 -0.44145437068E+03  0.45171599636E+03  0.00000000000E+00 0. -1.
          1    1    1    2  502    0  0.66663914562E+02 -0.16039821272E+02  0.27063581415E+03  0.27918649192E+03  0.00000000000E+00 0. -1.
         22    1    3    3    0    0 -0.35906055864E+02  0.13339896552E+03  0.11910746937E+03  0.18240372285E+03  0.00000000000E+00 0.  1.
         22    1    3    3    0    0  0.38845650436E+01 -0.28110713153E+02  0.23092563003E+02  0.36586452487E+02  0.00000000000E+00 0.  1.
</event>
<event>
 7    1  0.5950675E-006  0.1139086E+03  0.7818608E-02  0.1280671E+00
          2   -1    0    0  502    0  0.00000000000E+00  0.00000000000E+00  0.10532394462E+04  0.10532394462E+04  0.00000000000E+00 0. -1.
          1   -1    0    0  501    0 -0.00000000000E+00 -0.00000000000E+00 -0.80029590305E+03  0.80029590305E+03  0.00000000000E+00 0. -1.
         25    2    1    2    0    0  0.11114148799E+03 -0.15252951219E+03 -0.33066935101E+03  0.40072939684E+03  0.12499658939E+03 0.  0.
          2    1    1    2  501    0 -0.58910492682E+02  0.82356597510E+02 -0.42678287765E+03  0.43863045945E+03  0.00000000000E+00 0. -1.
          1    1    1    2  502    0 -0.52230995304E+02  0.70172914678E+02  0.10103957718E+04  0.10141754930E+04  0.00000000000E+00 0. -1.
         22    1    3    3    0    0  0.56913895425E+02  0.44732069422E+01 -0.11612807254E+03  0.12940220364E+03  0.00000000000E+00 0. -1.
         22    1    3    3    0    0  0.54227592562E+02 -0.15700271913E+03 -0.21454127846E+03  0.27132719321E+03  0.00000000000E+00 0. -1.
</event>
<event>
 7    1  0.5950675E-006  0.1758807E+03  0.7818608E-02  0.1263577E+00
          2   -1    0    0  502    0  0.00000000000E+00  0.00000000000E+00  0.27793985347E+03  0.27793985347E+03  0.00000000000E+00 0. -1.
          1   -1    0    0  501    0 -0.00000000000E+00 -0.00000000000E+00 -0.12082713241E+04  0.12082713241E+04  0.00000000000E+00 0. -1.
         25    2    1    2    0    0  0.10389645395E+02  0.23725876808E+03 -0.50822440470E+03  0.57473335781E+03  0.12500687695E+03 0.  0.
          2    1    1    2  501    0 -0.15781870745E+02 -0.64908693290E+02 -0.63444024132E+03  0.63794719665E+03  0.00000000000E+00 0. -1.
          1    1    1    2  502    0  0.53922253503E+01 -0.17235007479E+03  0.21233317543E+03  0.27353062307E+03  0.00000000000E+00 0. -1.
         22    1    3    3    0    0  0.46296819481E+02  0.31390171394E+02 -0.14889096838E+03  0.15905112015E+03  0.00000000000E+00 0. -1.
         22    1    3    3    0    0 -0.35907174086E+02  0.20586859668E+03 -0.35933343632E+03  0.41568223766E+03  0.00000000000E+00 0. -1.
</event>
<event>
 7    1  0.5950675E-006  0.3547548E+03  0.7818608E-02  0.1316709E+00
          2   -1    0    0  502    0  0.00000000000E+00  0.00000000000E+00  0.15604519323E+04  0.15604519323E+04  0.00000000000E+00 0. -1.
          1   -1    0    0  501    0 -0.00000000000E+00 -0.00000000000E+00 -0.12416715605E+03  0.12416715605E+03  0.00000000000E+00 0. -1.
         25    2    1    2    0    0  0.91000746757E+02 -0.33662328847E+03  0.59651144028E+03  0.70217327075E+03  0.12500011809E+03 0.  0.
          2    1    1    2  501    0 -0.11047446808E+03  0.34173688946E+03  0.38233760509E+03  0.52456720635E+03  0.00000000000E+00 0. -1.
          1    1    1    2  502    0  0.19473721325E+02 -0.51136009932E+01  0.45743573091E+03  0.45787861126E+03  0.00000000000E+00 0. -1.
         22    1    3    3    0    0  0.52391957558E+02 -0.17023154248E+03  0.18591832050E+03  0.25746711862E+03  0.00000000000E+00 0. -1.
         22    1    3    3    0    0  0.38608789199E+02 -0.16639174600E+03  0.41059311978E+03  0.44470615213E+03  0.00000000000E+00 0. -1.
</event>
<event>
 7    1  0.5950675E-006  0.9987023E+02  0.7818608E-02  0.1407209E+00
          2   -1    0    0  502    0  0.00000000000E+00  0.00000000000E+00  0.55978658815E+03  0.55978658815E+03  0.00000000000E+00 0. -1.
          1   -1    0    0  501    0 -0.00000000000E+00 -0.00000000000E+00 -0.28072896080E+03  0.28072896080E+03  0.00000000000E+00 0. -1.
         25    2    1    2    0    0  0.64921374974E+02  0.50715070887E+02 -0.35105562253E+02  0.15375348942E+03  0.12498372560E+03 0.  0.
          2    1    1    2  501    0 -0.62595515659E+02 -0.84110638449E+02 -0.17092522131E+03  0.20051989767E+03  0.00000000000E+00 0. -1.
          1    1    1    2  502    0 -0.23258593148E+01  0.33395567562E+02  0.48508841092E+03  0.48624216186E+03  0.00000000000E+00 0. -1.
         22    1    3    3    0    0 -0.68936992432E+00  0.18588628108E+02 -0.70260393011E+02  0.72681050845E+02  0.00000000000E+00 0.  1.
         22    1    3    3    0    0  0.65610744898E+02  0.32126442779E+02  0.35154830758E+02  0.81072438580E+02  0.00000000000E+00 0.  1.
</event>
<event>
 7    1  0.5950675E-006  0.6170103E+02  0.7818608E-02  0.1487961E+00
          2   -1    0    0  502    0  0.00000000000E+00  0.00000000000E+00  0.17351983249E+04  0.17351983249E+04  0.00000000000E+00 0. -1.
          1   -1    0    0  501    0 -0.00000000000E+00 -0.00000000000E+00 -0.34435691031E+02  0.34435691031E+02  0.00000000000E+00 0. -1.
         25    2    1    2    0    0 -0.25968525622E+02 -0.83001360165E+02  0.33748377719E+03  0.37024832128E+03  0.12499971773E+03 0.  0.
          2    1    1    2  501    0 -0.30502428391E+01  0.29657537196E+02 -0.45937419966E+01  0.30165807787E+02  0.00000000000E+00 0. -1.
          1    1    1    2  502    0  0.29018768461E+02  0.53343822968E+02  0.13678725986E+04  0.13692198868E+04  0.00000000000E+00 0. -1.
         22    1    3    3    0    0 -0.43574321473E+02 -0.70924017529E+02  0.92910511395E+02  0.12474494331E+03  0.00000000000E+00 0.  1.
         22    1    3    3    0    0  0.17605795851E+02 -0.12077342635E+02  0.24457326579E+03  0.24550337797E+03  0.00000000000E+00 0.  1.
</event>
<event>
 7    1  0.5950675E-006  0.4263040E+02  0.7818608E-02  0.1568029E+00
          2   -1    0    0  502    0  0.00000000000E+00  0.00000000000E+00  0.26700444038E+02  0.26700444038E+02  0.00000000000E+00 0. -1.
          1   -1    0    0  501    0 -0.00000000000E+00 -0.00000000000E+00 -0.11898048735E+04  0.11898048735E+04  0.00000000000E+00 0. -1.
         25    2    1    2    0    0  0.43835689510E+02  0.45714849429E+02 -0.24055992511E+03  0.27839904655E+03  0.12500214564E+03 0.  0.
          2    1    1    2  501    0 -0.13612965261E+02 -0.21442771937E+02 -0.88070210295E+03  0.88106827172E+03  0.00000000000E+00 0. -1.
          1    1    1    2  502    0 -0.30222724249E+02 -0.24272077492E+02 -0.41842401430E+02  0.57037999301E+02  0.00000000000E+00 0. -1.
         22    1    3    3    0    0  0.63899711752E+02  0.17271956862E+02 -0.23373721462E+03  0.24292916489E+03  0.00000000000E+00 0.  1.
         22    1    3    3    0    0 -0.20064022242E+02  0.28442892567E+02 -0.68227104897E+01  0.35469881654E+02  0.00000000000E+00 0.  1.
</event>
<event>
 7    1  0.5950675E-006  0.1097004E+03  0.7818608E-02  0.1328211E+00
          2   -1    0    0  502    0  0.00000000000E+00  0.00000000000E+00  0.26519619966E+03  0.26519619966E+03  0.00000000000E+00 0. -1.
          1   -1    0    0  501    0 -0.00000000000E+00 -0.00000000000E+00 -0.44077485064E+03  0.44077485064E+03  0.00000000000E+00 0. -1.
         25    2    1    2    0    0 -0.14224345552E+03  0.11579863115E+02 -0.13870289549E+02  0.19022279030E+03  0.12500012461E+03 0.  0.
          2    1    1    2  501    0  0.40959700561E+02 -0.42151145793E+02 -0.32000174005E+03  0.32535446792E+03  0.00000000000E+00 0. -1.
          1    1    1    2  502    0  0.10128375495E+03  0.30571282678E+02  0.15829337862E+03  0.19039379207E+03  0.00000000000E+00 0. -1.
         22    1    3    3    0    0 -0.15218326128E+03 -0.14232010272E+02 -0.33285063863E+02  0.15642950683E+03  0.00000000000E+00 0.  1.
         22    1    3    3    0    0  0.99398057651E+01  0.25811873387E+02  0.19414774314E+02  0.33793283476E+02  0.00000000000E+00 0.  1.
</event>
<event>
 7    1  0.5950675E-006  0.3943616E+02  0.7818608E-02  0.1613141E+00
          2   -1    0    0  502    0  0.00000000000E+00  0.00000000000E+00  0.14601223170E+04  0.14601223170E+04  0.00000000000E+00 0. -1.
          1   -1    0    0  501    0 -0.00000000000E+00 -0.00000000000E+00 -0.15597589339E+02  0.15597589339E+02  0.00000000000E+00 0. -1.
         25    2    1    2    0    0 -0.34394116553E+02  0.39238711535E+02  0.37685354536E+03  0.40045739495E+03  0.12499959512E+03 0.  0.
          2    1    1    2  501    0  0.31906441049E+02 -0.18528244092E+02  0.88681626858E+02  0.96050756122E+02  0.00000000000E+00 0. -1.
          1    1    1    2  502    0  0.24876755038E+01 -0.20710467442E+02  0.97898955548E+03  0.97921175531E+03  0.00000000000E+00 0. -1.
         22    1    3    3    0    0  0.25433972505E+02 -0.29076057074E+02  0.64619192703E+02  0.75285749767E+02  0.00000000000E+00 0.  1.
         22    1    3    3    0    0 -0.59828089057E+02  0.68314768608E+02  0.31223435266E+03  0.32517164518E+03  0.00000000000E+00 0.  1.
</event>
<event>
 7    1  0.5950675E-006  0.4589148E+02  0.7818608E-02  0.1520974E+00
          2   -1    0    0  502    0  0.00000000000E+00  0.00000000000E+00  0.50143908012E+03  0.50143908012E+03  0.00000000000E+00 0. -1.
          1   -1    0    0  501    0 -0.00000000000E+00 -0.00000000000E+00 -0.10376498507E+03  0.10376498507E+03  0.00000000000E+00 0. -1.
         25    2    1    2    0    0  0.71443965230E+02  0.26710023424E+02  0.53165162775E+02  0.15578706004E+03  0.12500163208E+03 0.  0.
          2    1    1    2  501    0 -0.27520945779E+02 -0.16313840483E+02 -0.46152391834E+02  0.56156808313E+02  0.00000000000E+00 0. -1.
          1    1    1    2  502    0 -0.43923019451E+02 -0.10396182941E+02  0.39066132412E+03  0.39326019684E+03  0.00000000000E+00 0. -1.
         22    1    3    3    0    0  0.37047032938E+02  0.67712122200E+02 -0.42435771663E+01  0.77300854391E+02  0.00000000000E+00 0.  1.
         22    1    3    3    0    0  0.34396932292E+02 -0.41002098775E+02  0.57408739942E+02  0.78486205646E+02  0.00000000000E+00 0.  1.
</event>
<event>
 7    1  0.5950675E-006  0.8435044E+02  0.7818608E-02  0.1387757E+00
          2   -1    0    0  502    0  0.00000000000E+00  0.00000000000E+00  0.13508717465E+04  0.13508717465E+04  0.00000000000E+00 0. -1.
          1   -1    0    0  501    0 -0.00000000000E+00 -0.00000000000E+00 -0.21573609969E+03  0.21573609969E+03  0.00000000000E+00 0. -1.
         25    2    1    2    0    0  0.77746211905E+02 -0.91595123590E+02  0.28605278707E+02  0.17572723197E+03  0.12501063137E+03 0.  0.
          2    1    1    2  501    0 -0.77433687979E+01  0.45609820445E+02 -0.13696536483E+03  0.14456737752E+03  0.00000000000E+00 0. -1.
          1    1    1    2  502    0 -0.70002843108E+02  0.45985303146E+02  0.12434957329E+04  0.12463132366E+04  0.00000000000E+00 0. -1.
         22    1    3    3    0    0 -0.16035264342E+02  0.18358653704E+02  0.18975944922E+02  0.30891040028E+02  0.00000000000E+00 0.  1.
         22    1    3    3    0    0  0.93781476247E+02 -0.10995377729E+03  0.96293337848E+01  0.14483619195E+03  0.00000000000E+00 0.  1.
</event>
<event>
 7    1  0.5950675E-006  0.9795546E+02  0.7818608E-02  0.1360957E+00
          2   -1    0    0  502    0  0.00000000000E+00  0.00000000000E+00  0.20705873897E+04  0.20705873897E+04  0.00000000000E+00 0. -1.
          1   -1    0    0  501    0 -0.00000000000E+00 -0.00000000000E+00 -0.16816841814E+03  0.16816841814E+03  0.00000000000E+00 0. -1.
         25    2    1    2    0    0 -0.50186463742E+02  0.12903653453E+02  0.99416068216E+02  0.16790886908E+03  0.12499859312E+03 0.  0.
          2    1    1    2  501    0 -0.40281042449E+02  0.29046342490E+02 -0.12798687499E+03  0.13728398509E+03  0.00000000000E+00 0. -1.
          1    1    1    2  502    0  0.90467506191E+02 -0.41949995943E+02  0.19309897784E+04  0.19335629537E+04  0.00000000000E+00 0. -1.
         22    1    3    3    0    0 -0.79445808139E+02  0.22641771357E+02  0.10793167481E+03  0.13591737442E+03  0.00000000000E+00 0.  1.
         22    1    3    3    0    0  0.29259344397E+02 -0.97381179043E+01 -0.85156065980E+01  0.31991494660E+02  0.00000000000E+00 0.  1.
</event>
<event>
 7    1  0.5950675E-006  0.4901649E+02  0.7818608E-02  0.1508203E+00
          2   -1    0    0  502    0  0.00000000000E+00  0.00000000000E+00  0.66695566546E+02  0.66695566546E+02  0.00000000000E+00 0. -1.
          1   -1    0    0  501    0 -0.00000000000E+00 -0.00000000000E+00 -0.13901983828E+04  0.13901983828E+04  0.00000000000E+00 0. -1.
         25    2    1    2    0    0  0.51445378472E+02  0.58299380517E+02 -0.95510913443E+03  0.96638720868E+03  0.12500133477E+03 0.  0.
          2    1    1    2  501    0 -0.28970725352E+02 -0.15044060987E+02 -0.41898387131E+03  0.42025362713E+03  0.00000000000E+00 0. -1.
          1    1    1    2  502    0 -0.22474653120E+02 -0.43255319530E+02  0.50590189439E+02  0.70253113582E+02  0.00000000000E+00 0. -1.
         22    1    3    3    0    0  0.92077025046E+02  0.28605416028E+02 -0.59010925770E+03  0.59793426427E+03  0.00000000000E+00 0. -1.
         22    1    3    3    0    0 -0.40631646574E+02  0.29693964489E+02 -0.36499987673E+03  0.36845294441E+03  0.00000000000E+00 0. -1.
</event>
<event>
 7    1  0.5950675E-006  0.1650333E+03  0.7818608E-02  0.1309870E+00
          2   -1    0    0  502    0  0.00000000000E+00  0.00000000000E+00  0.47294435852E+03  0.47294435852E+03  0.00000000000E+00 0. -1.
          1   -1    0    0  501    0 -0.00000000000E+00 -0.00000000000E+00 -0.13352072429E+04  0.13352072429E+04  0.00000000000E+00 0. -1.
         25    2    1    2    0    0  0.12753019984E+03 -0.16387172945E+02 -0.21381229342E+03  0.27905734971E+03  0.12499926519E+03 0.  0.
          2    1    1    2  501    0  0.39840220523E+02  0.23066551267E+02 -0.10723305787E+04  0.10733183027E+04  0.00000000000E+00 0. -1.
          1    1    1    2  502    0 -0.16737042036E+03 -0.66793783217E+01  0.42387998771E+03  0.45577594900E+03  0.00000000000E+00 0. -1.
         22    1    3    3    0    0  0.67230759277E+02 -0.58086813074E+02 -0.17462347351E+03  0.19592705363E+03  0.00000000000E+00 0.  1.
         22    1    3    3    0    0  0.60299440559E+02  0.41699640129E+02 -0.39188819917E+02  0.83130296073E+02  0.00000000000E+00 0.  1.
</event>
<event>
 7    1  0.5950675E-006  0.7123693E+02  0.7818608E-02  0.1505282E+00
          2   -1    0    0  502    0  0.00000000000E+00  0.00000000000E+00  0.29476106252E+04  0.29476106252E+04  0.00000000000E+00 0. -1.
          1   -1    0    0  501    0 -0.00000000000E+00 -0.00000000000E+00 -0.16349293909E+02  0.16349293909E+02  0.00000000000E+00 0. -1.
         25    2    1    2    0    0 -0.61099264828E+02 -0.27658198748E+02  0.22602461865E+04  0.22646933771E+04  0.12500069030E+03 0.  0.
          2    1    1    2  501    0  0.52304071453E+02  0.48815577788E+02  0.78128913111E+02  0.10593773449E+03  0.00000000000E+00 0. -1.
          1    1    1    2  502    0  0.87951933751E+01 -0.21157379039E+02  0.59288623159E+03  0.59332880743E+03  0.00000000000E+00 0. -1.
         22    1    3    3    0    0 -0.88061729429E+02 -0.25264440830E+02  0.21126577152E+04  0.21146431807E+04  0.00000000000E+00 0.  1.
         22    1    3    3    0    0  0.26962464601E+02 -0.23937579182E+01  0.14758847138E+03  0.15005019646E+03  0.00000000000E+00 0.  1.
</event>
<event>
 7    1  0.6238909E-006  0.4690963E+02  0.7818608E-02  0.1478746E+00
          2   -1    0    0  502    0  0.00000000000E+00  0.00000000000E+00  0.10553366018E+04  0.10553366018E+04  0.00000000000E+00 0. -1.
          1   -1    0    0  501    0 -0.00000000000E+00 -0.00000000000E+00 -0.73018495291E+03  0.73018495291E+03  0.00000000000E+00 0. -1.
         25    2    1    2    0    0  0.76177234510E+02 -0.41256870340E+02 -0.53855940223E+02  0.16133991650E+03  0.12500002381E+03 0.  0.
          2    1    1    2  501    0 -0.40261928980E+02  0.11381242525E+02 -0.62133834258E+03  0.62274544684E+03  0.00000000000E+00 0. -1.
          1    1    1    2  502    0 -0.35915305530E+02  0.29875627815E+02  0.10003459317E+04  0.10014361913E+04  0.00000000000E+00 0. -1.
         22    1    3    3    0    0 -0.31354025238E+02 -0.16202913074E+02  0.59193018701E+01  0.35786134540E+02  0.00000000000E+00 0. -1.
         22    1    3    3    0    0  0.10753125975E+03 -0.25053957266E+02 -0.59775242093E+02  0.12555378196E+03  0.00000000000E+00 0. -1.
</event>
<event>
 7    1  0.5950675E-006  0.5890393E+02  0.7818608E-02  0.1415169E+00
          2   -1    0    0  502    0  0.00000000000E+00  0.00000000000E+00  0.28242068167E+04  0.28242068167E+04  0.00000000000E+00 0. -1.
          1   -1    0    0  501    0 -0.00000000000E+00 -0.00000000000E+00 -0.20767112304E+02  0.20767112304E+02  0.00000000000E+00 0. -1.
         25    2    1    2    0    0  0.13920425280E+02 -0.65150789448E+01  0.62968353365E+03  0.64215461759E+03  0.12499990338E+03 0.  0.
          2    1    1    2  501    0  0.43702998249E+02  0.30592116444E+02  0.36470472138E+02  0.64621397249E+02  0.00000000000E+00 0. -1.
          1    1    1    2  502    0 -0.57623423529E+02 -0.24077037499E+02  0.21372856986E+04  0.21381979142E+04  0.00000000000E+00 0. -1.
         22    1    3    3    0    0 -0.31179330687E+02  0.20083338842E+02  0.63364960797E+02  0.73420769663E+02  0.00000000000E+00 0. -1.
         22    1    3    3    0    0  0.45099755967E+02 -0.26598417786E+02  0.56631857285E+03  0.56873384792E+03  0.00000000000E+00 0. -1.
</event>
<event>
 7    1  0.5950675E-006  0.6936165E+02  0.7818608E-02  0.1442471E+00
          2   -1    0    0  502    0  0.00000000000E+00  0.00000000000E+00  0.61118709067E+02  0.61118709067E+02  0.00000000000E+00 0. -1.
          1   -1    0    0  501    0 -0.00000000000E+00 -0.00000000000E+00 -0.34690046594E+03  0.34690046594E+03  0.00000000000E+00 0. -1.
         25    2    1    2    0    0 -0.16306533204E+02  0.56321808804E+02 -0.77328016287E+02  0.15824342478E+03  0.12499324066E+03 0.  0.
          2    1    1    2  501    0  0.52496253581E+02 -0.49537692292E+02 -0.19910921171E+03  0.21178837972E+03  0.00000000000E+00 0. -1.
          1    1    1    2  502    0 -0.36189720377E+02 -0.67841165120E+01 -0.93445288731E+01  0.37987370502E+02  0.00000000000E+00 0. -1.
         22    1    3    3    0    0 -0.27976718590E+02  0.41666102231E+02 -0.10981602189E+03  0.12074071194E+03  0.00000000000E+00 0.  1.
         22    1    3    3    0    0  0.11670185386E+02  0.14655706574E+02  0.32488005599E+02  0.37502712834E+02  0.00000000000E+00 0.  1.
</event>
<event>
 7    1  0.5950675E-006  0.1261837E+03  0.7818608E-02  0.1311656E+00
          2   -1    0    0  502    0  0.00000000000E+00  0.00000000000E+00  0.14734716130E+03  0.14734716130E+03  0.00000000000E+00 0. -1.
          1   -1    0    0  501    0 -0.00000000000E+00 -0.00000000000E+00 -0.64152177663E+03  0.64152177663E+03  0.00000000000E+00 0. -1.
         25    2    1    2    0    0  0.15920433164E+03 -0.86229354156E+02 -0.38642810019E+03  0.44467489047E+03  0.12501024305E+03 0.  0.
          2    1    1    2  501    0 -0.53089855752E+02  0.26290423552E+02 -0.18876864587E+03  0.19784671040E+03  0.00000000000E+00 0. -1.
          1    1    1    2  502    0 -0.10611447589E+03  0.59938930604E+02  0.81022130728E+02  0.14634733706E+03  0.00000000000E+00 0. -1.
         22    1    3    3    0    0  0.18315179624E+02 -0.30525111309E+02 -0.72203204028E+01  0.36323012702E+02  0.00000000000E+00 0.  1.
         22    1    3    3    0    0  0.14088915202E+03 -0.55704242847E+02 -0.37920777978E+03  0.40835187777E+03  0.00000000000E+00 0.  1.
</event>
<event>
 7    1  0.5950675E-006  0.3020636E+02  0.7818608E-02  0.1629516E+00
          2   -1    0    0  502    0  0.00000000000E+00  0.00000000000E+00  0.14081554868E+04  0.14081554868E+04  0.00000000000E+00 0. -1.
          1   -1    0    0  501    0 -0.00000000000E+00 -0.00000000000E+00 -0.24570519556E+03  0.24570519556E+03  0.00000000000E+00 0. -1.
         25    2    1    2    0    0 -0.43423253070E+02  0.27338163362E+02  0.70236171619E+03  0.71523874905E+03  0.12498613400E+03 0.  0.
          2    1    1    2  501    0  0.29364239901E+02 -0.69767326197E+01 -0.23809485077E+03  0.24000019030E+03  0.00000000000E+00 0. -1.
          1    1    1    2  502    0  0.14059013168E+02 -0.20361430742E+02  0.69818342581E+03  0.69862174299E+03  0.00000000000E+00 0. -1.
         22    1    3    3    0    0 -0.57806239395E+02  0.46398902025E+02  0.21739588610E+03  0.22968541685E+03  0.00000000000E+00 0. -1.
         22    1    3    3    0    0  0.14382986325E+02 -0.19060738663E+02  0.48496583009E+03  0.48555333220E+03  0.00000000000E+00 0. -1.
</event>
<event>
 7    1  0.5950675E-006  0.1432018E+03  0.7818608E-02  0.1366800E+00
          2   -1    0    0  502    0  0.00000000000E+00  0.00000000000E+00  0.38753402812E+03  0.38753402812E+03  0.00000000000E+00 0. -1.
          1   -1    0    0  501    0 -0.00000000000E+00 -0.00000000000E+00 -0.59522408253E+03  0.59522408253E+03  0.00000000000E+00 0. -1.
         25    2    1    2    0    0  0.90791414219E+02  0.72768071355E+02 -0.14661214861E+02  0.17140283822E+03  0.12500283447E+03 0.  0.
          2    1    1    2  501    0 -0.10687322139E+03 -0.10083967760E+03 -0.49054822638E+03  0.51208211102E+03  0.00000000000E+00 0. -1.
          1    1    1    2  502    0  0.16081807173E+02  0.28071606244E+02  0.29751938683E+03  0.29927316141E+03  0.00000000000E+00 0. -1.
         22    1    3    3    0    0  0.72414225636E+02  0.64355679760E+02 -0.65332478738E+02  0.11684950308E+03  0.00000000000E+00 0.  1.
         22    1    3    3    0    0  0.18377188583E+02  0.84123915951E+01  0.50671263877E+02  0.54553335145E+02  0.00000000000E+00 0.  1.
</event>
<event>
 7    1  0.5950675E-006  0.5938963E+02  0.7818608E-02  0.1493437E+00
          2   -1    0    0  502    0  0.00000000000E+00  0.00000000000E+00  0.50747677100E+02  0.50747677100E+02  0.00000000000E+00 0. -1.
          1   -1    0    0  501    0 -0.00000000000E+00 -0.00000000000E+00 -0.99911649052E+03  0.99911649052E+03  0.00000000000E+00 0. -1.
         25    2    1    2    0    0  0.85717548674E+02  0.14736342253E+02 -0.18519590756E+03  0.23976606993E+03  0.12500234469E+03 0.  0.
          2    1    1    2  501    0 -0.55948571094E+02 -0.16408717716E+02 -0.77560551910E+03  0.77779393793E+03  0.00000000000E+00 0. -1.
          1    1    1    2  502    0 -0.29768977580E+02  0.16723754627E+01  0.12432613241E+02  0.32304159761E+02  0.00000000000E+00 0. -1.
         22    1    3    3    0    0  0.10425794601E+03  0.47545546765E+02 -0.14057162677E+03  0.18135787983E+03  0.00000000000E+00 0.  1.
         22    1    3    3    0    0 -0.18540397339E+02 -0.32809204511E+02 -0.44624280787E+02  0.58408190093E+02  0.00000000000E+00 0.  1.
</event>
<event>
 7    1  0.5950675E-006  0.9407560E+02  0.7818608E-02  0.1422507E+00
          2   -1    0    0  502    0  0.00000000000E+00  0.00000000000E+00  0.96891423188E+03  0.96891423188E+03  0.00000000000E+00 0. -1.
          1   -1    0    0  501    0 -0.00000000000E+00 -0.00000000000E+00 -0.50593336454E+03  0.50593336454E+03  0.00000000000E+00 0. -1.
         25    2    1    2    0    0  0.12021248141E+03  0.25371386461E+02 -0.58669242322E+02  0.18483059622E+03  0.12500208544E+03 0.  0.
          2    1    1    2  501    0 -0.90311343777E+02 -0.15254959524E+02 -0.37844395707E+03  0.38936959467E+03  0.00000000000E+00 0. -1.
          1    1    1    2  502    0 -0.29901137637E+02 -0.10116426937E+02  0.90009406674E+03  0.90064740554E+03  0.00000000000E+00 0. -1.
         22    1    3    3    0    0 -0.10422606941E+02  0.41227647189E+02 -0.23641688846E+02  0.48654692268E+02  0.00000000000E+00 0.  1.
         22    1    3    3    0    0  0.13063508836E+03 -0.15856260728E+02 -0.35027553476E+02  0.13617590395E+03  0.00000000000E+00 0.  1.
</event>
<event>
 7    1  0.5950675E-006  0.6530569E+02  0.7818608E-02  0.1472554E+00
          2   -1    0    0  502    0  0.00000000000E+00  0.00000000000E+00  0.53926531453E+03  0.53926531453E+03  0.00000000000E+00 0. -1.
          1   -1    0    0  501    0 -0.00000000000E+00 -0.00000000000E+00 -0.91960928060E+02  0.91960928060E+02  0.00000000000E+00 0. -1.
         25    2    1    2    0    0 -0.12843420616E+02 -0.40022319718E+02  0.26293872802E+03  0.29415965444E+03  0.12500555217E+03 0.  0.
          2    1    1    2  501    0 -0.39392905231E+01  0.66567621514E+02 -0.60593857068E+02  0.90102063007E+02  0.00000000000E+00 0. -1.
          1    1    1    2  502    0  0.16782711139E+02 -0.26545301796E+02  0.24495951552E+03  0.24696452515E+03  0.00000000000E+00 0. -1.
         22    1    3    3    0    0 -0.47094831231E+02  0.16651770403E+02  0.48095240074E+02  0.69342315392E+02  0.00000000000E+00 0. -1.
         22    1    3    3    0    0  0.34251410615E+02 -0.56674090121E+02  0.21484348795E+03  0.22481733904E+03  0.00000000000E+00 0. -1.
</event>
<event>
 7    1  0.5950675E-006  0.7718275E+02  0.7818608E-02  0.1385191E+00
          2   -1    0    0  502    0  0.00000000000E+00  0.00000000000E+00  0.19173277409E+03  0.19173277409E+03  0.00000000000E+00 0. -1.
          1   -1    0    0  501    0 -0.00000000000E+00 -0.00000000000E+00 -0.14271566446E+04  0.14271566446E+04  0.00000000000E+00 0. -1.
         25    2    1    2    0    0  0.14295368297E+02  0.55864359936E+02 -0.87118252086E+02  0.16291030781E+03  0.12499997712E+03 0.  0.
          2    1    1    2  501    0  0.35419721640E+02 -0.69748640871E+02 -0.12966002468E+04  0.12989579013E+04  0.00000000000E+00 0. -1.
          1    1    1    2  502    0 -0.49715089937E+02  0.13884280934E+02  0.14829462837E+03  0.15702120948E+03  0.00000000000E+00 0. -1.
         22    1    3    3    0    0 -0.54897898160E+01  0.72606589051E+02 -0.10756861755E+03  0.12989558133E+03  0.00000000000E+00 0. -1.
         22    1    3    3    0    0  0.19785158113E+02 -0.16742229114E+02  0.20450365468E+02  0.33014726487E+02  0.00000000000E+00 0. -1.
</event>
<event>
 7    1  0.5950675E-006  0.1224088E+03  0.7818608E-02  0.1438151E+00
          2   -1    0    0  502    0  0.00000000000E+00  0.00000000000E+00  0.23387129009E+03  0.23387129009E+03  0.00000000000E+00 0. -1.
          1   -1    0    0  501    0 -0.00000000000E+00 -0.00000000000E+00 -0.12342970079E+04  0.12342970079E+04  0.00000000000E+00 0. -1.
         25    2    1    2    0    0  0.13117365956E+03 -0.53499142372E+02 -0.37085468290E+03  0.41620513446E+03  0.12499932370E+03 0.  0.
          2    1    1    2  501    0 -0.21523893607E+02  0.10164304638E+01 -0.82312177669E+03  0.82340377118E+03  0.00000000000E+00 0. -1.
          1    1    1    2  502    0 -0.10964976595E+03  0.52482711908E+02  0.19355074174E+03  0.22855939240E+03  0.00000000000E+00 0. -1.
         22    1    3    3    0    0  0.85850371578E+02 -0.66272569112E+02 -0.34673015517E+03  0.36329621553E+03  0.00000000000E+00 0.  1.
         22    1    3    3    0    0  0.45323287981E+02  0.12773426740E+02 -0.24124527733E+02  0.52908918931E+02  0.00000000000E+00 0.  1.
</event>
<event>
 7    1  0.5950675E-006  0.3739984E+02  0.7818608E-02  0.1574426E+00
          2   -1    0    0  502    0  0.00000000000E+00  0.00000000000E+00  0.24981704431E+03  0.24981704431E+03  0.00000000000E+00 0. -1.
          1   -1    0    0  501    0 -0.00000000000E+00 -0.00000000000E+00 -0.50313417046E+03  0.50313417046E+03  0.00000000000E+00 0. -1.
         25    2    1    2    0    0  0.61446054812E+02  0.39084687802E+01  0.39967775399E+02  0.14496000726E+03  0.12500034742E+03 0.  0.
          2    1    1    2  501    0 -0.26782350451E+02  0.75167321936E+01 -0.44808449862E+03  0.44894711655E+03  0.00000000000E+00 0. -1.
          1    1    1    2  502    0 -0.34663704361E+02 -0.11425200974E+02  0.15479959707E+03  0.15904409096E+03  0.00000000000E+00 0. -1.
         22    1    3    3    0    0  0.38512452118E+02 -0.28504828126E+01  0.85341593144E+02  0.93672417183E+02  0.00000000000E+00 0. -1.
         22    1    3    3    0    0  0.22933602694E+02  0.67589515927E+01 -0.45373817745E+02  0.51287590077E+02  0.00000000000E+00 0. -1.
</event>
<event>
 7    1  0.5950675E-006  0.9098566E+02  0.7818608E-02  0.1452905E+00
          2   -1    0    0  502    0  0.00000000000E+00  0.00000000000E+00  0.21154774691E+04  0.21154774691E+04  0.00000000000E+00 0. -1.
          1   -1    0    0  501    0 -0.00000000000E+00 -0.00000000000E+00 -0.28452187427E+03  0.28452187427E+03  0.00000000000E+00 0. -1.
         25    2    1    2    0    0  0.10520858046E+03  0.37752342979E+02  0.10250778640E+04  0.10387027386E+04  0.12499866869E+03 0.  0.
          2    1    1    2  501    0 -0.24651131106E+02 -0.82212947934E+01 -0.27539841479E+03  0.27662168176E+03  0.00000000000E+00 0. -1.
          1    1    1    2  502    0 -0.80557449351E+02 -0.29531048185E+02  0.10812761457E+04  0.10846749230E+04  0.00000000000E+00 0. -1.
         22    1    3    3    0    0  0.26091806002E+02  0.36345042232E+02  0.92274585177E+02  0.10254922479E+03  0.00000000000E+00 0.  1.
         22    1    3    3    0    0  0.79116774454E+02  0.14073007470E+01  0.93280327878E+03  0.93615351380E+03  0.00000000000E+00 0.  1.
</event>
<event>
 7    1  0.5950675E-006  0.5847233E+02  0.7818608E-02  0.1474025E+00
          2   -1    0    0  502    0  0.00000000000E+00  0.00000000000E+00  0.47256972976E+03  0.47256972976E+03  0.00000000000E+00 0. -1.
          1   -1    0    0  501    0 -0.00000000000E+00 -0.00000000000E+00 -0.52717898786E+03  0.52717898786E+03  0.00000000000E+00 0. -1.
         25    2    1    2    0    0 -0.71138469310E+02  0.15827615551E+02 -0.18622861029E+03  0.23583358724E+03  0.12500076140E+03 0.  0.
          2    1    1    2  501    0  0.55684918023E+02  0.15252509965E+02 -0.31282959104E+03  0.31811287648E+03  0.00000000000E+00 0. -1.
          1    1    1    2  502    0  0.15453551288E+02 -0.31080125516E+02  0.44444894322E+03  0.44580225390E+03  0.00000000000E+00 0. -1.
         22    1    3    3    0    0 -0.87555221190E+02  0.44872225138E+02 -0.87658923196E+02  0.13177071056E+03  0.00000000000E+00 0. -1.
         22    1    3    3    0    0  0.16416751879E+02 -0.29044609587E+02 -0.98569687091E+02  0.10406287667E+03  0.00000000000E+00 0. -1.
</event>
<event>
 7    1  0.5950675E-006  0.1528894E+03  0.7818608E-02  0.1312032E+00
          2   -1    0    0  502    0  0.00000000000E+00  0.00000000000E+00  0.60956030754E+02  0.60956030754E+02  0.00000000000E+00 0. -1.
          1   -1    0    0  501    0 -0.00000000000E+00 -0.00000000000E+00 -0.97682209136E+03  0.97682209136E+03  0.00000000000E+00 0. -1.
         25    2    1    2    0    0  0.13392476367E+03 -0.70033164973E+02 -0.39418683662E+03  0.44028522154E+03  0.12500931015E+03 0.  0.
          2    1    1    2  501    0 -0.25314077921E+02 -0.41637382205E+02 -0.39139063977E+03  0.39441235660E+03  0.00000000000E+00 0. -1.
          1    1    1    2  502    0 -0.10861068575E+03  0.11167054718E+03 -0.13028858423E+03  0.20308054398E+03  0.00000000000E+00 0. -1.
         22    1    3    3    0    0  0.10763208135E+03  0.10498752221E+02 -0.26001079889E+03  0.28160345217E+03  0.00000000000E+00 0. -1.
         22    1    3    3    0    0  0.26292682313E+02 -0.80531917194E+02 -0.13417603773E+03  0.15868176937E+03  0.00000000000E+00 0. -1.
</event>
<event>
 7    1  0.5950675E-006  0.4685832E+02  0.7818608E-02  0.1523302E+00
          2   -1    0    0  502    0  0.00000000000E+00  0.00000000000E+00  0.68241665717E+03  0.68241665717E+03  0.00000000000E+00 0. -1.
          1   -1    0    0  501    0 -0.00000000000E+00 -0.00000000000E+00 -0.13705698622E+04  0.13705698622E+04  0.00000000000E+00 0. -1.
         25    2    1    2    0    0  0.28778965629E+02  0.13651625155E+02  0.36968607293E+03  0.39154128821E+03  0.12498876798E+03 0.  0.
          2    1    1    2  501    0 -0.38081725461E+01  0.30614328383E+02 -0.13573260836E+04  0.13576766318E+04  0.00000000000E+00 0. -1.
          1    1    1    2  502    0 -0.24970793083E+02 -0.44265953537E+02  0.29948680569E+03  0.30376859932E+03  0.00000000000E+00 0. -1.
         22    1    3    3    0    0  0.36919227507E+02 -0.13029283990E+02  0.26621381869E+02  0.47344372143E+02  0.00000000000E+00 0. -1.
         22    1    3    3    0    0 -0.81402618784E+01  0.26680909145E+02  0.34306469106E+03  0.34419691607E+03  0.00000000000E+00 0. -1.
</event>
<event>
 7    1  0.5950675E-006  0.5308599E+02  0.7818608E-02  0.1433233E+00
          2   -1    0    0  502    0  0.00000000000E+00  0.00000000000E+00  0.91916214729E+03  0.91916214729E+03  0.00000000000E+00 0. -1.
          1   -1    0    0  501    0 -0.00000000000E+00 -0.00000000000E+00 -0.50486305807E+03  0.50486305807E+03  0.00000000000E+00 0. -1.
         25    2    1    2    0    0 -0.22672607465E+02  0.48656864954E+02 -0.15535567106E+03  0.20650845478E+03  0.12501527798E+03 0.  0.
          2    1    1    2  501    0 -0.28856959177E+02 -0.46937471331E+02 -0.32083694982E+03  0.32553371358E+03  0.00000000000E+00 0. -1.
          1    1    1    2  502    0  0.51529566642E+02 -0.17193936229E+01  0.89049171010E+03  0.89198303700E+03  0.00000000000E+00 0. -1.
         22    1    3    3    0    0 -0.60748201912E+02 -0.76317990399E+01 -0.10638522031E+03  0.12274527890E+03  0.00000000000E+00 0. -1.
         22    1    3    3    0    0  0.38075594446E+02  0.56288663994E+02 -0.48970450746E+02  0.83763175876E+02  0.00000000000E+00 0. -1.
</event>
<event>
 7    1  0.1084624E-005  0.7032193E+02  0.7818608E-02  0.1375933E+00
          2   -1    0    0  502    0  0.00000000000E+00  0.00000000000E+00  0.10088024908E+04  0.10088024908E+04  0.00000000000E+00 0. -1.
          1   -1    0    0  501    0 -0.00000000000E+00 -0.00000000000E+00 -0.13722312570E+04  0.13722312570E+04  0.00000000000E+00 0. -1.
         25    2    1    2    0    0 -0.91221094898E+02 -0.93958713033E+02 -0.43456580448E+03  0.47076767491E+03  0.12500094963E+03 0.  0.
          2    1    1    2  501    0  0.45582278456E+02  0.40676682506E+02 -0.91730514830E+03  0.91933730029E+03  0.00000000000E+00 0. -1.
          1    1    1    2  502    0  0.45638816442E+02  0.53282030527E+02  0.98844218655E+03  0.99092877266E+03  0.00000000000E+00 0. -1.
         22    1    3    3    0    0 -0.10784158549E+03 -0.30949007215E+02 -0.22699362493E+03  0.25320693981E+03  0.00000000000E+00 0. -1.
         22    1    3    3    0    0  0.16620490593E+02 -0.63009705819E+02 -0.20757217955E+03  0.21756073510E+03  0.00000000000E+00 0. -1.
</event>
<event>
 7    1  0.5950675E-006  0.3612263E+02  0.7818608E-02  0.1558621E+00
          2   -1    0    0  502    0  0.00000000000E+00  0.00000000000E+00  0.11390353963E+04  0.11390353963E+04  0.00000000000E+00 0. -1.
          1   -1    0    0  501    0 -0.00000000000E+00 -0.00000000000E+00 -0.13834306209E+03  0.13834306209E+03  0.00000000000E+00 0. -1.
         25    2    1    2    0    0 -0.12996724879E+02  0.98484587794E+01  0.26351117702E+03  0.29211166224E+03  0.12500070321E+03 0.  0.
          2    1    1    2  501    0 -0.21182163312E+02 -0.23729318608E+02 -0.12160116380E+03  0.12569251227E+03  0.00000000000E+00 0. -1.
          1    1    1    2  502    0  0.34178888192E+02  0.13880859829E+02  0.85878232103E+03  0.85957428392E+03  0.00000000000E+00 0. -1.
         22    1    3    3    0    0 -0.43079074216E+02 -0.21529571110E+02  0.23555839197E+03  0.24043104021E+03  0.00000000000E+00 0. -1.
         22    1    3    3    0    0  0.30082349336E+02  0.31378029890E+02  0.27952785046E+02  0.51680622028E+02  0.00000000000E+00 0. -1.
</event>
<event>
 7    1  0.5950675E-006  0.1057456E+03  0.7818608E-02  0.1421767E+00
          2   -1    0    0  502    0  0.00000000000E+00  0.00000000000E+00  0.17769101251E+03  0.17769101251E+03  0.00000000000E+00 0. -1.
          1   -1    0    0  501    0 -0.00000000000E+00 -0.00000000000E+00 -0.70398905114E+03  0.70398905114E+03  0.00000000000E+00 0. -1.
         25    2    1    2    0    0 -0.10914228232E+03  0.42247760878E+02  0.45932040736E+02  0.17728838458E+03  0.12499803138E+03 0.  0.
          2    1    1    2  501    0  0.25340764430E+02  0.12468668051E+02 -0.59989197605E+03  0.60055641280E+03  0.00000000000E+00 0. -1.
          1    1    1    2  502    0  0.83801517892E+02 -0.54716428929E+02  0.27661896682E+02  0.10383526628E+03  0.00000000000E+00 0. -1.
         22    1    3    3    0    0 -0.43274789154E+02  0.23160592998E+01  0.81608151621E+02  0.92401092623E+02  0.00000000000E+00 0. -1.
         22    1    3    3    0    0 -0.65867493169E+02  0.39931701578E+02 -0.35676110886E+02  0.84887291953E+02  0.00000000000E+00 0. -1.
</event>
<event>
 7    1  0.5950675E-006  0.7547344E+02  0.7818608E-02  0.1413735E+00
          2   -1    0    0  502    0  0.00000000000E+00  0.00000000000E+00  0.21369996412E+03  0.21369996412E+03  0.00000000000E+00 0. -1.
          1   -1    0    0  501    0 -0.00000000000E+00 -0.00000000000E+00 -0.34256604331E+03  0.34256604331E+03  0.00000000000E+00 0. -1.
         25    2    1    2    0    0  0.66350045043E+02 -0.54023285763E+01 -0.48072516654E+02  0.14955834212E+03  0.12500086883E+03 0.  0.
          2    1    1    2  501    0  0.16372158437E+01  0.42068141334E+02 -0.23259986121E+03  0.23637915396E+03  0.00000000000E+00 0. -1.
          1    1    1    2  502    0 -0.67987260886E+02 -0.36665812758E+02  0.15180629867E+03  0.17032851136E+03  0.00000000000E+00 0. -1.
         22    1    3    3    0    0  0.46646432302E+02 -0.11986876489E+02  0.37790118899E+02  0.61218199426E+02  0.00000000000E+00 0. -1.
         22    1    3    3    0    0  0.19703612740E+02  0.65845479130E+01 -0.85862635553E+02  0.88340142690E+02  0.00000000000E+00 0. -1.
</event>
<event>
 7    1  0.5950675E-006  0.1075477E+03  0.7818608E-02  0.1339611E+00
          2   -1    0    0  502    0  0.00000000000E+00  0.00000000000E+00  0.52541469492E+03  0.52541469492E+03  0.00000000000E+00 0. -1.
          1   -1    0    0  501    0 -0.00000000000E+00 -0.00000000000E+00 -0.15648543699E+03  0.15648543699E+03  0.00000000000E+00 0. -1.
         25    2    1    2    0    0 -0.65261899899E+02  0.60819092365E+02  0.58118609216E+02  0.16419589847E+03  0.12499777103E+03 0.  0.
          2    1    1    2  501    0  0.30130103604E+02  0.45129675422E+02 -0.88100392712E+02  0.10347072022E+03  0.00000000000E+00 0. -1.
          1    1    1    2  502    0  0.35131796295E+02 -0.10594876779E+03  0.39891104143E+03  0.41423351323E+03  0.00000000000E+00 0. -1.
         22    1    3    3    0    0 -0.50628769476E+02  0.89584482332E+02  0.62302453921E+01  0.10308961020E+03  0.00000000000E+00 0. -1.
         22    1    3    3    0    0 -0.14633130424E+02 -0.28765389967E+02  0.51888363824E+02  0.61106288271E+02  0.00000000000E+00 0. -1.
</event>
<event>
 7    1  0.5950675E-006  0.3842181E+02  0.7818608E-02  0.1558211E+00
          2   -1    0    0  502    0  0.00000000000E+00  0.00000000000E+00  0.71669101610E+03  0.71669101610E+03  0.00000000000E+00 0. -1.
          1   -1    0    0  501    0 -0.00000000000E+00 -0.00000000000E+00 -0.45397811404E+02  0.45397811404E+02  0.00000000000E+00 0. -1.
         25    2    1    2    0    0  0.76782799491E+01  0.11921302540E+02  0.14391561488E+03  0.19115176626E+03  0.12500488032E+03 0.  0.
          2    1    1    2  501    0 -0.13121789842E+02  0.26958941300E+02 -0.10394789967E+02  0.31733539720E+02  0.00000000000E+00 0. -1.
          1    1    1    2  502    0  0.54435098929E+01 -0.38880243840E+02  0.53777237979E+03  0.53920352152E+03  0.00000000000E+00 0. -1.
         22    1    3    3    0    0 -0.15621195252E+02  0.52982214043E+02  0.13105579094E+03  0.14222080398E+03  0.00000000000E+00 0. -1.
         22    1    3    3    0    0  0.23299475201E+02 -0.41060911503E+02  0.12859823936E+02  0.48930962281E+02  0.00000000000E+00 0. -1.
</event>
<event>
 7    1  0.5950675E-006  0.5358220E+02  0.7818608E-02  0.1508974E+00
          2   -1    0    0  502    0  0.00000000000E+00  0.00000000000E+00  0.14884163979E+04  0.14884163979E+04  0.00000000000E+00 0. -1.
          1   -1    0    0  501    0 -0.00000000000E+00 -0.00000000000E+00 -0.10309311239E+03  0.10309311239E+03  0.00000000000E+00 0. -1.
         25    2    1    2    0    0 -0.61247908195E+02 -0.20325362126E+02  0.17360774099E+03  0.22341924997E+03  0.12494833701E+03 0.  0.
          2    1    1    2  501    0  0.83835169430E+01  0.28498990685E+02 -0.74789674144E+02  0.80473419120E+02  0.00000000000E+00 0. -1.
          1    1    1    2  502    0  0.52864391252E+02 -0.81736285589E+01  0.12865052187E+04  0.12876168412E+04  0.00000000000E+00 0. -1.
         22    1    3    3    0    0  0.59736385143E+01 -0.57096343020E+02  0.10900349429E+03  0.12319674716E+03  0.00000000000E+00 0.  1.
         22    1    3    3    0    0 -0.67221546709E+02  0.36770980893E+02  0.64604246697E+02  0.10022250281E+03  0.00000000000E+00 0.  1.
</event>
<event>
 7    1  0.5950675E-006  0.9824411E+02  0.7818608E-02  0.1398379E+00
          2   -1    0    0  502    0  0.00000000000E+00  0.00000000000E+00  0.70961710930E+03  0.70961710930E+03  0.00000000000E+00 0. -1.
          1   -1    0    0  501    0 -0.00000000000E+00 -0.00000000000E+00 -0.15493284586E+03  0.15493284586E+03  0.00000000000E+00 0. -1.
         25    2    1    2    0    0  0.12045225503E+03 -0.51800426435E+02  0.15670731887E+03  0.23953578276E+03  0.12501270941E+03 0.  0.
          2    1    1    2  501    0 -0.34397206472E+02  0.12163977342E+02 -0.10605479034E+03  0.11215502090E+03  0.00000000000E+00 0. -1.
          1    1    1    2  502    0 -0.86055048560E+02  0.39636449093E+02  0.50403173491E+03  0.51285915150E+03  0.00000000000E+00 0. -1.
         22    1    3    3    0    0  0.47151078083E+02 -0.61226582036E+02  0.14555080415E+03  0.16479367433E+03  0.00000000000E+00 0.  1.
         22    1    3    3    0    0  0.73301176949E+02  0.94261556009E+01  0.11156514721E+02  0.74742108428E+02  0.00000000000E+00 0.  1.
</event>
<event>
 7    1  0.5950675E-006  0.6360121E+02  0.7818608E-02  0.1489113E+00
          2   -1    0    0  502    0  0.00000000000E+00  0.00000000000E+00  0.14106524524E+04  0.14106524524E+04  0.00000000000E+00 0. -1.
          1   -1    0    0  501    0 -0.00000000000E+00 -0.00000000000E+00 -0.18289041522E+03  0.18289041522E+03  0.00000000000E+00 0. -1.
         25    2    1    2    0    0 -0.61748449252E+02 -0.55661205712E+02 -0.10030851013E+03  0.18058729429E+03  0.12505571898E+03 0.  0.
          2    1    1    2  501    0  0.44026749111E+01  0.28351650252E+02 -0.36769150062E+02  0.46638717978E+02  0.00000000000E+00 0. -1.
          1    1    1    2  502    0  0.57345774341E+02  0.27309555460E+02  0.13648396974E+04  0.13663168554E+04  0.00000000000E+00 0. -1.
         22    1    3    3    0    0 -0.66083974276E+02  0.20605307436E+02 -0.69878084032E+02  0.98359630838E+02  0.00000000000E+00 0.  1.
         22    1    3    3    0    0  0.43355250241E+01 -0.76266513148E+02 -0.30430426099E+02  0.82227663456E+02  0.00000000000E+00 0.  1.
</event>
<event>
 7    1  0.5950675E-006  0.7712703E+02  0.7818608E-02  0.1381077E+00
          2   -1    0    0  502    0  0.00000000000E+00  0.00000000000E+00  0.15290973714E+04  0.15290973714E+04  0.00000000000E+00 0. -1.
          1   -1    0    0  501    0 -0.00000000000E+00 -0.00000000000E+00 -0.53403839361E+03  0.53403839361E+03  0.00000000000E+00 0. -1.
         25    2    1    2    0    0  0.64684877305E+02  0.10393063047E+03  0.21770325418E+03  0.27929913207E+03  0.12501035554E+03 0.  0.
          2    1    1    2  501    0 -0.20556946790E+02 -0.73843598983E+02 -0.49976025398E+03  0.50560436769E+03  0.00000000000E+00 0. -1.
          1    1    1    2  502    0 -0.44127930515E+02 -0.30087031482E+02  0.12771159776E+04  0.12782322652E+04  0.00000000000E+00 0. -1.
         22    1    3    3    0    0  0.52696385703E+02 -0.40956257304E+01  0.12761591201E+03  0.13812857856E+03  0.00000000000E+00 0.  1.
         22    1    3    3    0    0  0.11988491602E+02  0.10802625620E+03  0.90087342172E+02  0.14117055351E+03  0.00000000000E+00 0.  1.
</event>
<event>
 7    1  0.5950675E-006  0.5681207E+02  0.7818608E-02  0.1427048E+00
          2   -1    0    0  502    0  0.00000000000E+00  0.00000000000E+00  0.11883951593E+03  0.11883951593E+03  0.00000000000E+00 0. -1.
          1   -1    0    0  501    0 -0.00000000000E+00 -0.00000000000E+00 -0.12587955748E+04  0.12587955748E+04  0.00000000000E+00 0. -1.
         25    2    1    2    0    0  0.10385573977E+03  0.22390566533E+02 -0.38788075615E+03  0.42114534883E+03  0.12499828676E+03 0.  0.
          2    1    1    2  501    0 -0.48759545009E+02 -0.13099878303E+02 -0.84583688802E+03  0.84734239902E+03  0.00000000000E+00 0. -1.
          1    1    1    2  502    0 -0.55096194763E+02 -0.92906882307E+01  0.93761585336E+02  0.10914734284E+03  0.00000000000E+00 0. -1.
         22    1    3    3    0    0  0.27794420857E+01 -0.41148245102E+02 -0.65881895061E+02  0.77725976804E+02  0.00000000000E+00 0. -1.
         22    1    3    3    0    0  0.10107629769E+03  0.63538811636E+02 -0.32199886109E+03  0.34341937202E+03  0.00000000000E+00 0. -1.
</event>
<event>
 7    1  0.5950675E-006  0.1343615E+03  0.7818608E-02  0.1342614E+00
          2   -1    0    0  502    0  0.00000000000E+00  0.00000000000E+00  0.41675999373E+03  0.41675999373E+03  0.00000000000E+00 0. -1.
          1   -1    0    0  501    0 -0.00000000000E+00 -0.00000000000E+00 -0.32997765927E+03  0.32997765927E+03  0.00000000000E+00 0. -1.
         25    2    1    2    0    0  0.14860956968E+03 -0.68305345339E+02  0.14951674395E+03  0.25441966908E+03  0.12499474746E+03 0.  0.
          2    1    1    2  501    0 -0.30305044068E+02  0.29540657707E+02 -0.25761431315E+03  0.26106738688E+03  0.00000000000E+00 0. -1.
          1    1    1    2  502    0 -0.11830452561E+03  0.38764687632E+02  0.19487990365E+03  0.23125059704E+03  0.00000000000E+00 0. -1.
         22    1    3    3    0    0  0.13704635248E+03 -0.10013574504E+03  0.13765916811E+03  0.21853813564E+03  0.00000000000E+00 0.  1.
         22    1    3    3    0    0  0.11563217193E+02  0.31830399705E+02  0.11857575846E+02  0.35881533443E+02  0.00000000000E+00 0.  1.
</event>
<event>
 7    1  0.5950675E-006  0.2099050E+03  0.7818608E-02  0.1152808E+00
          2   -1    0    0  502    0  0.00000000000E+00  0.00000000000E+00  0.61367583227E+03  0.61367583227E+03  0.00000000000E+00 0. -1.
          1   -1    0    0  501    0 -0.00000000000E+00 -0.00000000000E+00 -0.20521972854E+04  0.20521972854E+04  0.00000000000E+00 0. -1.
         25    2    1    2    0    0 -0.31730921160E+02 -0.13361552791E+02 -0.19681981375E+02  0.13114673877E+03  0.12500681681E+03 0.  0.
          2    1    1    2  501    0 -0.83863706980E+02 -0.19242393909E+03 -0.19459215166E+04  0.19572099127E+04  0.00000000000E+00 0. -1.
          1    1    1    2  502    0  0.11559462814E+03  0.20578549188E+03  0.52708204484E+03  0.57751646619E+03  0.00000000000E+00 0. -1.
         22    1    3    3    0    0 -0.15097728571E+02 -0.14138458301E+02 -0.72694852322E+02  0.75580281590E+02  0.00000000000E+00 0.  1.
         22    1    3    3    0    0 -0.16633192589E+02  0.77690550992E+00  0.53012870947E+02  0.55566457184E+02  0.00000000000E+00 0.  1.
</event>
<event>
 7    1  0.5950675E-006  0.7229117E+02  0.7818608E-02  0.1496790E+00
          2   -1    0    0  502    0  0.00000000000E+00  0.00000000000E+00  0.14003164929E+03  0.14003164929E+03  0.00000000000E+00 0. -1.
          1   -1    0    0  501    0 -0.00000000000E+00 -0.00000000000E+00 -0.28404900289E+03  0.28404900289E+03  0.00000000000E+00 0. -1.
         25    2    1    2    0    0  0.33697017752E+02  0.42727969936E+02 -0.96875917792E+02  0.16724745949E+03  0.12500240333E+03 0.  0.
          2    1    1    2  501    0  0.23498642979E+02  0.45405488042E+01 -0.13769657055E+03  0.13976104016E+03  0.00000000000E+00 0. -1.
          1    1    1    2  502    0 -0.57195660731E+02 -0.47268518740E+02  0.90555134737E+02  0.11707215253E+03  0.00000000000E+00 0. -1.
         22    1    3    3    0    0  0.41360782249E+02 -0.23107656429E+02 -0.88574290884E+02  0.10044940567E+03  0.00000000000E+00 0. -1.
         22    1    3    3    0    0 -0.76637644965E+01  0.65835626364E+02 -0.83016269075E+01  0.66798053821E+02  0.00000000000E+00 0. -1.
</event>
<event>
 7    1  0.5950675E-006  0.3902345E+02  0.7818608E-02  0.1563238E+00
          2   -1    0    0  502    0  0.00000000000E+00  0.00000000000E+00  0.62656511195E+03  0.62656511195E+03  0.00000000000E+00 0. -1.
          1   -1    0    0  501    0 -0.00000000000E+00 -0.00000000000E+00 -0.10633348981E+03  0.10633348981E+03  0.00000000000E+00 0. -1.
         25    2    1    2    0    0  0.36781857850E+02 -0.53367264749E+02  0.10990676725E+03  0.17864879452E+03  0.12503969083E+03 0.  0.
          2    1    1    2  501    0 -0.22512685718E+02  0.17631789291E+02 -0.68318843748E+02  0.74061902642E+02  0.00000000000E+00 0. -1.
          1    1    1    2  502    0 -0.14269172131E+02  0.35735475458E+02  0.47864369864E+03  0.48018790461E+03  0.00000000000E+00 0. -1.
         22    1    3    3    0    0  0.69123535032E+02 -0.14497402045E+02  0.16646977422E+02  0.72562797759E+02  0.00000000000E+00 0.  1.
         22    1    3    3    0    0 -0.32341677182E+02 -0.38869862705E+02  0.93259789827E+02  0.10608599676E+03  0.00000000000E+00 0.  1.
</event>
<event>
 7    1  0.5950675E-006  0.4679558E+02  0.7818608E-02  0.1468239E+00
          2   -1    0    0  502    0  0.00000000000E+00  0.00000000000E+00  0.92470477286E+02  0.92470477286E+02  0.00000000000E+00 0. -1.
          1   -1    0    0  501    0 -0.00000000000E+00 -0.00000000000E+00 -0.34391513773E+03  0.34391513773E+03  0.00000000000E+00 0. -1.
         25    2    1    2    0    0 -0.23548724795E+02  0.17694988641E+02 -0.12914599135E+03  0.18213230651E+03  0.12500333968E+03 0.  0.
          2    1    1    2  501    0 -0.19515734718E+02 -0.40773507879E+02 -0.17596452937E+03  0.18167789750E+03  0.00000000000E+00 0. -1.
          1    1    1    2  502    0  0.43064459513E+02  0.23078519238E+02  0.53665860270E+02  0.72575411001E+02  0.00000000000E+00 0. -1.
         22    1    3    3    0    0 -0.44318566961E+02 -0.44410645021E+02 -0.58124272644E+02  0.85527024028E+02  0.00000000000E+00 0. -1.
         22    1    3    3    0    0  0.20769842166E+02  0.62105633662E+02 -0.71021718706E+02  0.96605282486E+02  0.00000000000E+00 0. -1.
</event>
<event>
 7    1  0.5950675E-006  0.9293335E+02  0.7818608E-02  0.1391885E+00
          2   -1    0    0  502    0  0.00000000000E+00  0.00000000000E+00  0.16188919383E+04  0.16188919383E+04  0.00000000000E+00 0. -1.
          1   -1    0    0  501    0 -0.00000000000E+00 -0.00000000000E+00 -0.29589888066E+03  0.29589888066E+03  0.00000000000E+00 0. -1.
         25    2    1    2    0    0  0.31101862574E+02 -0.11876870017E+03 -0.13682610720E+03  0.22230390087E+03  0.12499724290E+03 0.  0.
          2    1    1    2  501    0 -0.15600231347E+02  0.81223325801E+02 -0.10133589058E+03  0.13080351139E+03  0.00000000000E+00 0. -1.
          1    1    1    2  502    0 -0.15501631227E+02  0.37545374368E+02  0.15611550554E+04  0.15616834067E+04  0.00000000000E+00 0. -1.
         22    1    3    3    0    0  0.32685301749E+02 -0.13270962365E+03 -0.15009047351E+03  0.20299587040E+03  0.00000000000E+00 0.  1.
         22    1    3    3    0    0 -0.15834391753E+01  0.13940923479E+02  0.13264366308E+02  0.19308030470E+02  0.00000000000E+00 0.  1.
</event>
<event>
 7    1  0.5950675E-006  0.1810249E+03  0.7818608E-02  0.1335905E+00
          2   -1    0    0  502    0  0.00000000000E+00  0.00000000000E+00  0.10249260348E+04  0.10249260348E+04  0.00000000000E+00 0. -1.
          1   -1    0    0  501    0 -0.00000000000E+00 -0.00000000000E+00 -0.25013673007E+03  0.25013673007E+03  0.00000000000E+00 0. -1.
         25    2    1    2    0    0 -0.42698784195E+02  0.19611743780E+03  0.21221485951E+03  0.31771785180E+03  0.12499700467E+03 0.  0.
          2    1    1    2  501    0  0.15019767703E+02 -0.17761536906E+03 -0.15667936529E+03  0.23732095621E+03  0.00000000000E+00 0. -1.
          1    1    1    2  502    0  0.27679016492E+02 -0.18502068739E+02  0.71925381056E+03  0.72002395690E+03  0.00000000000E+00 0. -1.
         22    1    3    3    0    0  0.29248213517E+02  0.13382176498E+03  0.15421961854E+03  0.20627024390E+03  0.00000000000E+00 0. -1.
         22    1    3    3    0    0 -0.71946997712E+02  0.62295672823E+02  0.57995240970E+02  0.11144760790E+03  0.00000000000E+00 0. -1.
</event>
<event>
 7    1  0.5950675E-006  0.1423685E+03  0.7818608E-02  0.1259143E+00
          2   -1    0    0  502    0  0.00000000000E+00  0.00000000000E+00  0.12234042467E+04  0.12234042467E+04  0.00000000000E+00 0. -1.
          1   -1    0    0  501    0 -0.00000000000E+00 -0.00000000000E+00 -0.18700384726E+03  0.18700384726E+03  0.00000000000E+00 0. -1.
         25    2    1    2    0    0 -0.46099704824E+02 -0.20278822306E+03  0.63261751527E+02  0.25074806800E+03  0.12499719279E+03 0.  0.
          2    1    1    2  501    0  0.44872255411E+02  0.11660548416E+03 -0.48770272980E+02  0.13412269669E+03  0.00000000000E+00 0. -1.
          1    1    1    2  502    0  0.12274494137E+01  0.86182738901E+02  0.10219089209E+04  0.10255373293E+04  0.00000000000E+00 0. -1.
         22    1    3    3    0    0 -0.22218596578E+01 -0.18579317392E+03  0.20089556294E+02  0.18688935338E+03  0.00000000000E+00 0.  1.
         22    1    3    3    0    0 -0.43877845167E+02 -0.16995049138E+02  0.43172195233E+02  0.63858714620E+02  0.00000000000E+00 0.  1.
</event>
<event>
 7    1  0.5950675E-006  0.2606916E+03  0.7818608E-02  0.1269366E+00
          2   -1    0    0  502    0  0.00000000000E+00  0.00000000000E+00  0.60683834890E+03  0.60683834890E+03  0.00000000000E+00 0. -1.
          1   -1    0    0  501    0 -0.00000000000E+00 -0.00000000000E+00 -0.18137677406E+04  0.18137677406E+04  0.00000000000E+00 0. -1.
         25    2    1    2    0    0  0.76296186865E+02  0.22761416523E+03  0.26288230160E+03  0.37730870675E+03  0.12500175742E+03 0.  0.
          2    1    1    2  501    0 -0.11855991153E+03 -0.23296209805E+03 -0.17451828991E+04  0.17646504308E+04  0.00000000000E+00 0. -1.
          1    1    1    2  502    0  0.42263724662E+02  0.53479328258E+01  0.27537120582E+03  0.27864695190E+03  0.00000000000E+00 0. -1.
         22    1    3    3    0    0 -0.24734470086E+02  0.62865207668E+01  0.13363322008E+02  0.28807858804E+02  0.00000000000E+00 0. -1.
         22    1    3    3    0    0  0.10103065695E+03  0.22132764446E+03  0.24951897959E+03  0.34850084795E+03  0.00000000000E+00 0. -1.
</event>
<event>
 7    1  0.5950675E-006  0.1087535E+03  0.7818608E-02  0.1338559E+00
          2   -1    0    0  502    0  0.00000000000E+00  0.00000000000E+00  0.76442290216E+03  0.76442290216E+03  0.00000000000E+00 0. -1.
          1   -1    0    0  501    0 -0.00000000000E+00 -0.00000000000E+00 -0.38799255870E+03  0.38799255870E+03  0.00000000000E+00 0. -1.
         25    2    1    2    0    0  0.79184063258E+02  0.41430770290E+01  0.90286584922E+02  0.17338902957E+03  0.12499922879E+03 0.  0.
          2    1    1    2  501    0  0.25271594369E+02 -0.47895014202E+02 -0.33920774476E+03  0.34350324595E+03  0.00000000000E+00 0. -1.
          1    1    1    2  502    0 -0.10445565763E+03  0.43751937173E+02  0.62535150331E+03  0.63552318534E+03  0.00000000000E+00 0. -1.
         22    1    3    3    0    0  0.73038267300E+02 -0.38916864203E+02  0.11719182530E+02  0.83584986982E+02  0.00000000000E+00 0. -1.
         22    1    3    3    0    0  0.61457959583E+01  0.43059941232E+02  0.78567402393E+02  0.89804042590E+02  0.00000000000E+00 0. -1.
</event>
<event>
 7    1  0.5950675E-006  0.8405101E+02  0.7818608E-02  0.1397792E+00
          2   -1    0    0  502    0  0.00000000000E+00  0.00000000000E+00  0.15355656219E+04  0.15355656219E+04  0.00000000000E+00 0. -1.
          1   -1    0    0  501    0 -0.00000000000E+00 -0.00000000000E+00 -0.84481903083E+03  0.84481903083E+03  0.00000000000E+00 0. -1.
         25    2    1    2    0    0  0.46690616605E+02 -0.34077051678E+01  0.21396416166E+02  0.13517676847E+03  0.12499330372E+03 0.  0.
          2    1    1    2  501    0 -0.82977079751E+02 -0.19373169931E+02 -0.78530884737E+03  0.78991803451E+03  0.00000000000E+00 0. -1.
          1    1    1    2  502    0  0.36286463145E+02  0.22780875099E+02  0.14546590222E+04  0.14552898497E+04  0.00000000000E+00 0. -1.
         22    1    3    3    0    0 -0.33256158353E+02 -0.11209891794E+00 -0.25968410465E+02  0.42194110686E+02  0.00000000000E+00 0. -1.
         22    1    3    3    0    0  0.79946774958E+02 -0.32956062498E+01  0.47364826631E+02  0.92982657784E+02  0.00000000000E+00 0. -1.
</event>
<event>
 7    1  0.5950675E-006  0.8283893E+02  0.7818608E-02  0.1418434E+00
          2   -1    0    0  502    0  0.00000000000E+00  0.00000000000E+00  0.92908269264E+02  0.92908269264E+02  0.00000000000E+00 0. -1.
          1   -1    0    0  501    0 -0.00000000000E+00 -0.00000000000E+00 -0.17075753547E+04  0.17075753547E+04  0.00000000000E+00 0. -1.
         25    2    1    2    0    0 -0.92391725384E+02  0.66400853544E+02 -0.22722281571E+03  0.28319596698E+03  0.12499777385E+03 0.  0.
          2    1    1    2  501    0  0.56085645673E+02 -0.59333252300E+02 -0.14458509196E+04  0.14481543137E+04  0.00000000000E+00 0. -1.
          1    1    1    2  502    0  0.36306079711E+02 -0.70676012443E+01  0.58406649861E+02  0.69133343325E+02  0.00000000000E+00 0. -1.
         22    1    3    3    0    0 -0.65231114882E+02 -0.26074107246E+02 -0.72826524780E+02  0.10118626453E+03  0.00000000000E+00 0.  1.
         22    1    3    3    0    0 -0.27160610502E+02  0.92474960791E+02 -0.15439629093E+03  0.18200970245E+03  0.00000000000E+00 0.  1.
</event>
<event>
 7    1  0.5950675E-006  0.2338138E+03  0.7818608E-02  0.1250963E+00
          2   -1    0    0  502    0  0.00000000000E+00  0.00000000000E+00  0.35614422845E+04  0.35614422845E+04  0.00000000000E+00 0. -1.
          1   -1    0    0  501    0 -0.00000000000E+00 -0.00000000000E+00 -0.10094434326E+04  0.10094434326E+04  0.00000000000E+00 0. -1.
         25    2    1    2    0    0  0.96041781351E+02 -0.20537439644E+03 -0.32011091753E+02  0.26087081297E+03  0.12500481825E+03 0.  0.
          2    1    1    2  501    0 -0.51363114554E+02 -0.24510621730E+02 -0.85808117291E+03  0.85996641761E+03  0.00000000000E+00 0. -1.
          1    1    1    2  502    0 -0.44678666797E+02  0.22988501817E+03  0.34420911166E+04  0.34500484866E+04  0.00000000000E+00 0. -1.
         22    1    3    3    0    0  0.12504183011E+03 -0.14442563071E+03 -0.17519081764E+02  0.19183623304E+03  0.00000000000E+00 0. -1.
         22    1    3    3    0    0 -0.29000048758E+02 -0.60948765729E+02 -0.14492009989E+02  0.69034579925E+02  0.00000000000E+00 0. -1.
</event>
<event>
 7    1  0.5950675E-006  0.4531397E+02  0.7818608E-02  0.1497821E+00
          2   -1    0    0  502    0  0.00000000000E+00  0.00000000000E+00  0.72076462569E+02  0.72076462569E+02  0.00000000000E+00 0. -1.
          1   -1    0    0  501    0 -0.00000000000E+00 -0.00000000000E+00 -0.14340869207E+04  0.14340869207E+04  0.00000000000E+00 0. -1.
         25    2    1    2    0    0 -0.42305312937E+02  0.28226964597E+02 -0.36094078267E+03  0.38534521201E+03  0.12500473107E+03 0.  0.
          2    1    1    2  501    0  0.44669723786E+02  0.96104315300E+01 -0.10543979858E+04  0.10553875388E+04  0.00000000000E+00 0. -1.
          1    1    1    2  502    0 -0.23644108488E+01 -0.37837396127E+02  0.53328310317E+02  0.65430632471E+02  0.00000000000E+00 0. -1.
         22    1    3    3    0    0 -0.41826774935E+02  0.47358403736E+02 -0.36071438337E+03  0.36620644980E+03  0.00000000000E+00 0. -1.
         22    1    3    3    0    0 -0.47853800213E+00 -0.19131439139E+02 -0.22639929915E+00  0.19138762207E+02  0.00000000000E+00 0. -1.
</event>
<event>
 7    1  0.5950675E-006  0.5256096E+02  0.7818608E-02  0.1468241E+00
          2   -1    0    0  502    0  0.00000000000E+00  0.00000000000E+00  0.30581806282E+04  0.30581806282E+04  0.00000000000E+00 0. -1.
          1   -1    0    0  501    0 -0.00000000000E+00 -0.00000000000E+00 -0.11996873605E+04  0.11996873605E+04  0.00000000000E+00 0. -1.
         25    2    1    2    0    0  0.94972349668E+00  0.66554891480E+02  0.56382639856E+02  0.15242894195E+03  0.12500049885E+03 0.  0.
          2    1    1    2  501    0  0.31174776103E+02 -0.42313809155E+02 -0.11509273926E+04  0.11521268108E+04  0.00000000000E+00 0. -1.
          1    1    1    2  502    0 -0.32124499600E+02 -0.24241082325E+02  0.29530380204E+04  0.29533122361E+04  0.00000000000E+00 0. -1.
         22    1    3    3    0    0 -0.58761711940E+02  0.34044350182E+02  0.67382039877E+01  0.68244853011E+02  0.00000000000E+00 0. -1.
         22    1    3    3    0    0  0.59711435437E+02  0.32510541298E+02  0.49644435869E+02  0.84184088937E+02  0.00000000000E+00 0. -1.
</event>
<event>
 7    1  0.5950675E-006  0.1235262E+03  0.7818608E-02  0.1245360E+00
          2   -1    0    0  502    0  0.00000000000E+00  0.00000000000E+00  0.15893739631E+04  0.15893739631E+04  0.00000000000E+00 0. -1.
          1   -1    0    0  501    0 -0.00000000000E+00 -0.00000000000E+00 -0.52497988926E+03  0.52497988926E+03  0.00000000000E+00 0. -1.
         25    2    1    2    0    0  0.20265974209E+02 -0.21238880525E+02  0.80260830695E+02  0.15143219036E+03  0.12501242969E+03 0.  0.
          2    1    1    2  501    0 -0.26759109067E+02 -0.11075730703E+03 -0.47974469248E+03  0.49309045919E+03  0.00000000000E+00 0. -1.
          1    1    1    2  502    0  0.64931348586E+01  0.13199618756E+03  0.14638779357E+04  0.14698312028E+04  0.00000000000E+00 0. -1.
         22    1    3    3    0    0  0.25441725346E+02 -0.26463075556E+02  0.11251410148E+03  0.11835116725E+03  0.00000000000E+00 0. -1.
         22    1    3    3    0    0 -0.51757511375E+01  0.52241950302E+01 -0.32253270790E+02  0.33081023113E+02  0.00000000000E+00 0. -1.
</event>
<event>
 7    1  0.5950675E-006  0.6536085E+02  0.7818608E-02  0.1525396E+00
          2   -1    0    0  502    0  0.00000000000E+00  0.00000000000E+00  0.13312398838E+03  0.13312398838E+03  0.00000000000E+00 0. -1.
          1   -1    0    0  501    0 -0.00000000000E+00 -0.00000000000E+00 -0.29435672235E+03  0.29435672235E+03  0.00000000000E+00 0. -1.
         25    2    1    2    0    0 -0.51049610655E+02 -0.68423982044E+02 -0.23045125382E+02  0.15311473746E+03  0.12500056383E+03 0.  0.
          2    1    1    2  501    0  0.40526635055E+02  0.49319073663E+02 -0.19940809532E+03  0.20937613917E+03  0.00000000000E+00 0. -1.
          1    1    1    2  502    0  0.10522975600E+02  0.19104908381E+02  0.61220486734E+02  0.64989834095E+02  0.00000000000E+00 0. -1.
         22    1    3    3    0    0  0.36218610261E+01 -0.30935211056E+02 -0.66787590234E+02  0.73693197580E+02  0.00000000000E+00 0.  1.
         22    1    3    3    0    0 -0.54671471682E+02 -0.37488770987E+02  0.43742464852E+02  0.79421539882E+02  0.00000000000E+00 0.  1.
</event>
<event>
 7    1  0.5950675E-006  0.9684091E+02  0.7818608E-02  0.1387318E+00
          2   -1    0    0  502    0  0.00000000000E+00  0.00000000000E+00  0.16902785514E+04  0.16902785514E+04  0.00000000000E+00 0. -1.
          1   -1    0    0  501    0 -0.00000000000E+00 -0.00000000000E+00 -0.14912512173E+02  0.14912512173E+02  0.00000000000E+00 0. -1.
         25    2    1    2    0    0  0.70647318281E+02 -0.55955991909E+02  0.95527802055E+03  0.96762782297E+03  0.12500156248E+03 0.  0.
          2    1    1    2  501    0 -0.47653902273E+02  0.89221007379E+02  0.32414092085E+03  0.33955650359E+03  0.00000000000E+00 0. -1.
          1    1    1    2  502    0 -0.22993416008E+02 -0.33265015470E+02  0.39594709785E+03  0.39800673704E+03  0.00000000000E+00 0. -1.
         22    1    3    3    0    0 -0.27549116435E+02  0.12159154938E+02  0.11427367460E+03  0.11817475015E+03  0.00000000000E+00 0. -1.
         22    1    3    3    0    0  0.98196434716E+02 -0.68115146847E+02  0.84100434595E+03  0.84945307282E+03  0.00000000000E+00 0. -1.
</event>
<event>
 7    1  0.5950675E-006  0.3590595E+02  0.7818608E-02  0.1599084E+00
          2   -1    0    0  502    0  0.00000000000E+00  0.00000000000E+00  0.13007691418E+04  0.13007691418E+04  0.00000000000E+00 0. -1.
          1   -1    0    0  501    0 -0.00000000000E+00 -0.00000000000E+00 -0.25360602833E+03  0.25360602833E+03  0.00000000000E+00 0. -1.
         25    2    1    2    0    0  0.35622206974E+02 -0.47088011410E+02  0.18855835967E+03  0.23380536918E+03  0.12499789281E+03 0.  0.
          2    1    1    2  501    0 -0.26653309713E+02  0.23842706547E+02 -0.22945488420E+03  0.23222492859E+03  0.00000000000E+00 0. -1.
          1    1    1    2  502    0 -0.89688972604E+01  0.23245304863E+02  0.10880596381E+04  0.10883448724E+04  0.00000000000E+00 0. -1.
         22    1    3    3    0    0  0.90993750013E+00 -0.48974684528E+02  0.19267043489E+03  0.19879950752E+03  0.00000000000E+00 0.  1.
         22    1    3    3    0    0  0.34712269474E+02  0.18866731175E+01 -0.41120752222E+01  0.35005861653E+02  0.00000000000E+00 0.  1.
</event>
<event>
 7    1  0.5950675E-006  0.1912041E+03  0.7818608E-02  0.1293759E+00
          2   -1    0    0  502    0  0.00000000000E+00  0.00000000000E+00  0.58414295340E+03  0.58414295340E+03  0.00000000000E+00 0. -1.
          1   -1    0    0  501    0 -0.00000000000E+00 -0.00000000000E+00 -0.92131708346E+03  0.92131708346E+03  0.00000000000E+00 0. -1.
         25    2    1    2    0    0  0.11451175987E+03  0.13108921614E+03 -0.14957993288E+02  0.21480046457E+03  0.12497268613E+03 0.  0.
          2    1    1    2  501    0 -0.22157606582E+02  0.40399664023E+02 -0.78614899255E+03  0.78749814658E+03  0.00000000000E+00 0. -1.
          1    1    1    2  502    0 -0.92354153289E+02 -0.17148888017E+03  0.46393285578E+03  0.50316142571E+03  0.00000000000E+00 0. -1.
         22    1    3    3    0    0  0.93600594017E+02  0.11097428335E+03 -0.63333689208E+02  0.15839040045E+03  0.00000000000E+00 0.  1.
         22    1    3    3    0    0  0.20911165854E+02  0.20114932791E+02  0.48375695920E+02  0.56410064123E+02  0.00000000000E+00 0.  1.
</event>
<event>
 7    1  0.5950675E-006  0.1415359E+03  0.7818608E-02  0.1397452E+00
          2   -1    0    0  502    0  0.00000000000E+00  0.00000000000E+00  0.62849910990E+03  0.62849910990E+03  0.00000000000E+00 0. -1.
          1   -1    0    0  501    0 -0.00000000000E+00 -0.00000000000E+00 -0.95041702536E+03  0.95041702536E+03  0.00000000000E+00 0. -1.
         25    2    1    2    0    0 -0.10105923665E+03 -0.77675688023E+02 -0.80045767566E+03  0.82012416431E+03  0.12499869018E+03 0.  0.
          2    1    1    2  501    0 -0.23451487384E+02  0.10044830973E+02 -0.13076420581E+03  0.13322968292E+03  0.00000000000E+00 0. -1.
          1    1    1    2  502    0  0.12451072403E+03  0.67630857050E+02  0.60930396600E+03  0.62556228804E+03  0.00000000000E+00 0. -1.
         22    1    3    3    0    0 -0.11904967903E+03 -0.89853477110E+02 -0.59050776347E+03  0.60905327529E+03  0.00000000000E+00 0.  1.
         22    1    3    3    0    0  0.17990442381E+02  0.12177789087E+02 -0.20994991219E+03  0.21107088902E+03  0.00000000000E+00 0.  1.
</event>
<event>
 7    1  0.5950675E-006  0.6851711E+02  0.7818608E-02  0.1403060E+00
          2   -1    0    0  502    0  0.00000000000E+00  0.00000000000E+00  0.17917067522E+03  0.17917067522E+03  0.00000000000E+00 0. -1.
          1   -1    0    0  501    0 -0.00000000000E+00 -0.00000000000E+00 -0.35466771395E+04  0.35466771395E+04  0.00000000000E+00 0. -1.
         25    2    1    2    0    0  0.51248484707E+02  0.63570985426E+02 -0.24148859060E+03  0.28391796260E+03  0.12499997089E+03 0.  0.
          2    1    1    2  501    0  0.15569583251E+02 -0.47947670923E+02 -0.32763181756E+04  0.32767059952E+04  0.00000000000E+00 0. -1.
          1    1    1    2  502    0 -0.66818067958E+02 -0.15623314503E+02  0.15030030189E+03  0.16522385697E+03  0.00000000000E+00 0. -1.
         22    1    3    3    0    0  0.42024508429E+02 -0.28584972797E+02 -0.50449669132E+02  0.71612352943E+02  0.00000000000E+00 0.  1.
         22    1    3    3    0    0  0.92239762783E+01  0.92155958223E+02 -0.19103892147E+03  0.21230560965E+03  0.00000000000E+00 0.  1.
</event>
<event>
 7    1  0.5950675E-006  0.8402786E+02  0.7818608E-02  0.1363464E+00
          2   -1    0    0  502    0  0.00000000000E+00  0.00000000000E+00  0.25516395454E+03  0.25516395454E+03  0.00000000000E+00 0. -1.
          1   -1    0    0  501    0 -0.00000000000E+00 -0.00000000000E+00 -0.34904391440E+03  0.34904391440E+03  0.00000000000E+00 0. -1.
         25    2    1    2    0    0  0.18993665375E+01  0.12804035218E+03 -0.14643458236E+03  0.23123544600E+03  0.12501521986E+03 0.  0.
          2    1    1    2  501    0 -0.16476769929E+02 -0.73256985411E+02 -0.14724554899E+03  0.16528557576E+03  0.00000000000E+00 0. -1.
          1    1    1    2  502    0  0.14577403392E+02 -0.54783366771E+02  0.19980017148E+03  0.20768684717E+03  0.00000000000E+00 0. -1.
         22    1    3    3    0    0  0.46769129454E+02  0.65318122509E+01 -0.56039328846E+02  0.73283165998E+02  0.00000000000E+00 0. -1.
         22    1    3    3    0    0 -0.44869762916E+02  0.12150853993E+03 -0.90395253517E+02  0.15795228000E+03  0.00000000000E+00 0. -1.
</event>
<event>
 7    1  0.5950675E-006  0.2057712E+03  0.7818608E-02  0.1197532E+00
          2   -1    0    0  502    0  0.00000000000E+00  0.00000000000E+00  0.12416301498E+03  0.12416301498E+03  0.00000000000E+00 0. -1.
          1   -1    0    0  501    0 -0.00000000000E+00 -0.00000000000E+00 -0.17387830402E+04  0.17387830402E+04  0.00000000000E+00 0. -1.
         25    2    1    2    0    0  0.10131476498E+03  0.98172714812E+02 -0.33396150215E+03  0.38348129001E+03  0.12500020532E+03 0.  0.
          2    1    1    2  501    0 -0.21421293552E+03 -0.97692231301E+02 -0.13339870887E+04  0.13546041882E+04  0.00000000000E+00 0. -1.
          1    1    1    2  502    0  0.11289817054E+03 -0.48048351031E+00  0.53328565636E+02  0.12486057700E+03  0.00000000000E+00 0. -1.
         22    1    3    3    0    0  0.50467255925E+02  0.84086038814E+01 -0.23507092528E+03  0.24057428884E+03  0.00000000000E+00 0.  1.
         22    1    3    3    0    0  0.50847509057E+02  0.89764110930E+02 -0.98890576874E+02  0.14290700117E+03  0.00000000000E+00 0.  1.
</event>
<event>
 7    1  0.5950675E-006  0.9770087E+02  0.7818608E-02  0.1419035E+00
          2   -1    0    0  502    0  0.00000000000E+00  0.00000000000E+00  0.52959343834E+03  0.52959343834E+03  0.00000000000E+00 0. -1.
          1   -1    0    0  501    0 -0.00000000000E+00 -0.00000000000E+00 -0.14131429866E+04  0.14131429866E+04  0.00000000000E+00 0. -1.
         25    2    1    2    0    0 -0.70614488601E+02  0.58623458697E+02 -0.61187128089E+02  0.16671027538E+03  0.12500134145E+03 0.  0.
          2    1    1    2  501    0 -0.20924340478E+02 -0.23165374031E+02 -0.12939516172E+04  0.12943281076E+04  0.00000000000E+00 0. -1.
          1    1    1    2  502    0  0.91538829079E+02 -0.35458084666E+02  0.47158919695E+03  0.48169804201E+03  0.00000000000E+00 0. -1.
         22    1    3    3    0    0 -0.42874082015E+02  0.97198586242E+02 -0.52151090018E+02  0.11834478555E+03  0.00000000000E+00 0.  1.
         22    1    3    3    0    0 -0.27740406586E+02 -0.38575127545E+02 -0.90360380713E+01  0.48365489832E+02  0.00000000000E+00 0.  1.
</event>
<event>
 7    1  0.5950675E-006  0.1376995E+03  0.7818608E-02  0.1363758E+00
          2   -1    0    0  502    0  0.00000000000E+00  0.00000000000E+00  0.10701899812E+04  0.10701899812E+04  0.00000000000E+00 0. -1.
          1   -1    0    0  501    0 -0.00000000000E+00 -0.00000000000E+00 -0.68976958146E+03  0.68976958146E+03  0.00000000000E+00 0. -1.
         25    2    1    2    0    0  0.10611682002E+03 -0.68786426264E+02  0.65105262105E+02  0.18935096747E+03  0.12499096687E+03 0.  0.
          2    1    1    2  501    0 -0.94573695680E+02  0.10130720947E+03 -0.61967400822E+03  0.63498284313E+03  0.00000000000E+00 0. -1.
          1    1    1    2  502    0 -0.11543124342E+02 -0.32520783207E+02  0.93498914585E+03  0.93562575206E+03  0.00000000000E+00 0. -1.
         22    1    3    3    0    0  0.24205240188E+02 -0.28641003484E+02 -0.36828885936E+02  0.52560132919E+02  0.00000000000E+00 0.  1.
         22    1    3    3    0    0  0.81911579833E+02 -0.40145422779E+02  0.10193414804E+03  0.13679083455E+03  0.00000000000E+00 0.  1.
</event>
<event>
 7    1  0.5950675E-006  0.1000982E+03  0.7818608E-02  0.1440334E+00
          2   -1    0    0  502    0  0.00000000000E+00  0.00000000000E+00  0.13241990215E+04  0.13241990215E+04  0.00000000000E+00 0. -1.
          1   -1    0    0  501    0 -0.00000000000E+00 -0.00000000000E+00 -0.27871058449E+03  0.27871058449E+03  0.00000000000E+00 0. -1.
         25    2    1    2    0    0 -0.11629472561E+03 -0.30852365285E+02  0.80911814149E+03  0.82751064278E+03  0.12500146151E+03 0.  0.
          2    1    1    2  501    0  0.99238839791E+02  0.11329397834E+02 -0.25991005600E+03  0.27844198640E+03  0.00000000000E+00 0. -1.
          1    1    1    2  502    0  0.17055885819E+02  0.19522967451E+02  0.49628035152E+03  0.49695697681E+03  0.00000000000E+00 0. -1.
         22    1    3    3    0    0 -0.83146940872E+02 -0.27336407718E+02  0.21058299776E+03  0.22804800352E+03  0.00000000000E+00 0.  1.
         22    1    3    3    0    0 -0.33147784738E+02 -0.35159575667E+01  0.59853514373E+03  0.59946263926E+03  0.00000000000E+00 0.  1.
</event>
<event>
 7    1  0.5950675E-006  0.1152176E+03  0.7818608E-02  0.1420909E+00
          2   -1    0    0  502    0  0.00000000000E+00  0.00000000000E+00  0.30773153023E+04  0.30773153023E+04  0.00000000000E+00 0. -1.
          1   -1    0    0  501    0 -0.00000000000E+00 -0.00000000000E+00 -0.43156926443E+03  0.43156926443E+03  0.00000000000E+00 0. -1.
         25    2    1    2    0    0  0.11104755061E+02  0.99157196760E+02  0.45939820759E+03  0.48644206488E+03  0.12499481625E+03 0.  0.
          2    1    1    2  501    0 -0.19434162015E+02  0.17409526651E+02 -0.41632775708E+03  0.41714455478E+03  0.00000000000E+00 0. -1.
          1    1    1    2  502    0  0.83294069536E+01 -0.11656672341E+03  0.26026755873E+04  0.26052979470E+04  0.00000000000E+00 0. -1.
         22    1    3    3    0    0 -0.55567280108E+02  0.63214299177E+02  0.23737766191E+03  0.25185695268E+03  0.00000000000E+00 0. -1.
         22    1    3    3    0    0  0.66672035169E+02  0.35942897584E+02  0.22202054568E+03  0.23458511220E+03  0.00000000000E+00 0. -1.
</event>
<event>
 7    1  0.5950675E-006  0.1811050E+03  0.7818608E-02  0.1309298E+00
          2   -1    0    0  502    0  0.00000000000E+00  0.00000000000E+00  0.12477713614E+04  0.12477713614E+04  0.00000000000E+00 0. -1.
          1   -1    0    0  501    0 -0.00000000000E+00 -0.00000000000E+00 -0.88562977242E+03  0.88562977242E+03  0.00000000000E+00 0. -1.
         25    2    1    2    0    0 -0.88916875109E+02 -0.11239901540E+03 -0.21221373588E+01  0.19018210134E+03  0.12499991544E+03 0.  0.
          2    1    1    2  501    0 -0.34795123609E+02 -0.23823096994E+02 -0.78156840198E+03  0.78270518559E+03  0.00000000000E+00 0. -1.
          1    1    1    2  502    0  0.12371199872E+03  0.13622211240E+03  0.11458321283E+04  0.11605138469E+04  0.00000000000E+00 0. -1.
         22    1    3    3    0    0 -0.18018612401E+02 -0.98117162412E+02  0.38854994648E+02  0.10705773471E+03  0.00000000000E+00 0. -1.
         22    1    3    3    0    0 -0.70898262708E+02 -0.14281852992E+02 -0.40977132007E+02  0.83124366629E+02  0.00000000000E+00 0. -1.
</event>
<event>
 7    1  0.5950675E-006  0.1002673E+03  0.7818608E-02  0.1438849E+00
          2   -1    0    0  502    0  0.00000000000E+00  0.00000000000E+00  0.84937481048E+03  0.84937481048E+03  0.00000000000E+00 0. -1.
          1   -1    0    0  501    0 -0.00000000000E+00 -0.00000000000E+00 -0.90849170224E+03  0.90849170224E+03  0.00000000000E+00 0. -1.
         25    2    1    2    0    0 -0.59121132717E+02  0.94944781961E+02 -0.25933754090E+03  0.30885008445E+03  0.12499037800E+03 0.  0.
          2    1    1    2  501    0 -0.11231943355E+02 -0.23636109985E+02 -0.62107917803E+03  0.62163024993E+03  0.00000000000E+00 0. -1.
          1    1    1    2  502    0  0.70353076072E+02 -0.71308671975E+02  0.82129982716E+03  0.82738617834E+03  0.00000000000E+00 0. -1.
         22    1    3    3    0    0  0.20335437507E+02  0.59860010796E+02 -0.18158331933E+03  0.19227390039E+03  0.00000000000E+00 0.  1.
         22    1    3    3    0    0 -0.79456570224E+02  0.35084771164E+02 -0.77754221565E+02  0.11657618406E+03  0.00000000000E+00 0.  1.
</event>
<event>
 7    1  0.5950675E-006  0.2145343E+03  0.7818608E-02  0.1213704E+00
          2   -1    0    0  502    0  0.00000000000E+00  0.00000000000E+00  0.36089506540E+04  0.36089506540E+04  0.00000000000E+00 0. -1.
          1   -1    0    0  501    0 -0.00000000000E+00 -0.00000000000E+00 -0.11806451476E+03  0.11806451476E+03  0.00000000000E+00 0. -1.
         25    2    1    2    0    0 -0.49641549360E+02 -0.23767746161E+03  0.60506730986E+03  0.66384159212E+03  0.12499740314E+03 0.  0.
          2    1    1    2  501    0 -0.36556101378E+02  0.20851186383E+03  0.39432943648E+02  0.21533346919E+03  0.00000000000E+00 0. -1.
          1    1    1    2  502    0  0.86197650738E+02  0.29165597780E+02  0.28463858857E+04  0.28478401074E+04  0.00000000000E+00 0. -1.
         22    1    3    3    0    0 -0.57013375926E+02 -0.14064512331E+03  0.22416754228E+03  0.27070770724E+03  0.00000000000E+00 0.  1.
         22    1    3    3    0    0  0.73718265655E+01 -0.97032338299E+02  0.38089976758E+03  0.39313388489E+03  0.00000000000E+00 0.  1.
</event>
<event>
 7    1  0.5950675E-006  0.5884393E+02  0.7818608E-02  0.1456558E+00
          2   -1    0    0  502    0  0.00000000000E+00  0.00000000000E+00  0.18670632856E+03  0.18670632856E+03  0.00000000000E+00 0. -1.
          1   -1    0    0  501    0 -0.00000000000E+00 -0.00000000000E+00 -0.24107366809E+03  0.24107366809E+03  0.00000000000E+00 0. -1.
         25    2    1    2    0    0 -0.18704523213E+02 -0.41338065147E+02  0.16384444725E+02  0.13398095962E+03  0.12499501068E+03 0.  0.
          2    1    1    2  501    0 -0.16628158022E+02  0.58130044424E+02 -0.17356519029E+03  0.18379464896E+03  0.00000000000E+00 0. -1.
          1    1    1    2  502    0  0.35332681235E+02 -0.16791979277E+02  0.10281340604E+03  0.11000438807E+03  0.00000000000E+00 0. -1.
         22    1    3    3    0    0  0.28517782675E+02  0.33337926054E+02 -0.12286516141E+01  0.43888390573E+02  0.00000000000E+00 0.  1.
         22    1    3    3    0    0 -0.47222305888E+02 -0.74675991201E+02  0.17613096339E+02  0.90092569049E+02  0.00000000000E+00 0.  1.
</event>
<event>
 7    1  0.5950675E-006  0.1638619E+03  0.7818608E-02  0.1267352E+00
          2   -1    0    0  502    0  0.00000000000E+00  0.00000000000E+00  0.12852923437E+03  0.12852923437E+03  0.00000000000E+00 0. -1.
          1   -1    0    0  501    0 -0.00000000000E+00 -0.00000000000E+00 -0.13504125942E+04  0.13504125942E+04  0.00000000000E+00 0. -1.
         25    2    1    2    0    0 -0.11367802988E+03  0.20148644188E+02 -0.73560863553E+03  0.75503215347E+03  0.12499930302E+03 0.  0.
          2    1    1    2  501    0 -0.34252729708E+02  0.60025584119E+02 -0.54220935885E+03  0.54659611146E+03  0.00000000000E+00 0. -1.
          1    1    1    2  502    0  0.14793075959E+03 -0.80174228308E+02  0.55934634544E+02  0.17731356366E+03  0.00000000000E+00 0. -1.
         22    1    3    3    0    0 -0.53834509064E+02  0.70005543595E+02 -0.30903701212E+03  0.32140753781E+03  0.00000000000E+00 0.  1.
         22    1    3    3    0    0 -0.59843520813E+02 -0.49856899406E+02 -0.42657162342E+03  0.43362461566E+03  0.00000000000E+00 0.  1.
</event>
<event>
 7    1  0.5950675E-006  0.8224236E+02  0.7818608E-02  0.1417591E+00
          2   -1    0    0  502    0  0.00000000000E+00  0.00000000000E+00  0.20710746060E+03  0.20710746060E+03  0.00000000000E+00 0. -1.
          1   -1    0    0  501    0 -0.00000000000E+00 -0.00000000000E+00 -0.13332859552E+03  0.13332859552E+03  0.00000000000E+00 0. -1.
         25    2    1    2    0    0  0.74984343770E+02  0.19325252608E+01  0.84170959166E+02  0.16832672130E+03  0.12499099277E+03 0.  0.
          2    1    1    2  501    0  0.56815991767E+01  0.37066174635E+02 -0.59201631039E+02  0.70078634325E+02  0.00000000000E+00 0. -1.
          1    1    1    2  502    0 -0.80665942946E+02 -0.38998699896E+02  0.48809536953E+02  0.10203070049E+03  0.00000000000E+00 0. -1.
         22    1    3    3    0    0  0.10114877461E+03  0.20513694835E+02  0.88485456485E+02  0.13594690982E+03  0.00000000000E+00 0. -1.
         22    1    3    3    0    0 -0.26164430843E+02 -0.18581169574E+02 -0.43144973195E+01  0.32379811476E+02  0.00000000000E+00 0. -1.
</event>
<event>
 7    1  0.5950675E-006  0.6732964E+02  0.7818608E-02  0.1459355E+00
          2   -1    0    0  502    0  0.00000000000E+00  0.00000000000E+00  0.10695460613E+04  0.10695460613E+04  0.00000000000E+00 0. -1.
          1   -1    0    0  501    0 -0.00000000000E+00 -0.00000000000E+00 -0.81058409325E+03  0.81058409325E+03  0.00000000000E+00 0. -1.
         25    2    1    2    0    0 -0.73757491478E+02  0.21371641443E+02  0.41190976462E+03  0.43725549610E+03  0.12500320025E+03 0.  0.
          2    1    1    2  501    0  0.66367888560E+02  0.11303243830E+02 -0.79605438216E+03  0.79889613800E+03  0.00000000000E+00 0. -1.
          1    1    1    2  502    0  0.73896029179E+01 -0.32674885273E+02  0.64310658559E+03  0.64397852044E+03  0.00000000000E+00 0. -1.
         22    1    3    3    0    0  0.12272606481E+02  0.51067727515E+02  0.10944766815E+03  0.12139737117E+03  0.00000000000E+00 0.  1.
         22    1    3    3    0    0 -0.86030097959E+02 -0.29696086073E+02  0.30246209647E+03  0.31585812493E+03  0.00000000000E+00 0.  1.
</event>
<event>
 7    1  0.5950675E-006  0.6361799E+02  0.7818608E-02  0.1433113E+00
          2   -1    0    0  502    0  0.00000000000E+00  0.00000000000E+00  0.65436751202E+03  0.65436751202E+03  0.00000000000E+00 0. -1.
          1   -1    0    0  501    0 -0.00000000000E+00 -0.00000000000E+00 -0.93425046213E+02  0.93425046213E+02  0.00000000000E+00 0. -1.
         25    2    1    2    0    0  0.35840773168E+02 -0.94645323681E+01  0.62279244083E+02  0.14449865579E+03  0.12500807529E+03 0.  0.
          2    1    1    2  501    0 -0.68464017950E+02 -0.18642874444E+02 -0.26962756842E+02  0.75906974501E+02  0.00000000000E+00 0. -1.
          1    1    1    2  502    0  0.32623244782E+02  0.28107406812E+02  0.52562597856E+03  0.52738692794E+03  0.00000000000E+00 0. -1.
         22    1    3    3    0    0 -0.45902788217E+02  0.78984777614E+01  0.26557457113E+02  0.53616699315E+02  0.00000000000E+00 0.  1.
         22    1    3    3    0    0  0.81743561386E+02 -0.17363010129E+02  0.35721786969E+02  0.90881956477E+02  0.00000000000E+00 0.  1.
</event>
<event>
 7    1  0.5950675E-006  0.6963779E+02  0.7818608E-02  0.1406756E+00
          2   -1    0    0  502    0  0.00000000000E+00  0.00000000000E+00  0.15366246620E+03  0.15366246620E+03  0.00000000000E+00 0. -1.
          1   -1    0    0  501    0 -0.00000000000E+00 -0.00000000000E+00 -0.23255132022E+03  0.23255132022E+03  0.00000000000E+00 0. -1.
         25    2    1    2    0    0  0.73888324720E+02 -0.25388450628E+02 -0.60971929142E+02  0.15952039913E+03  0.12500049455E+03 0.  0.
          2    1    1    2  501    0 -0.67037463159E+02 -0.22302724336E+02 -0.10536015292E+03  0.12685501489E+03  0.00000000000E+00 0. -1.
          1    1    1    2  502    0 -0.68508615609E+01  0.47691174964E+02  0.87443228045E+02  0.99838372405E+02  0.00000000000E+00 0. -1.
         22    1    3    3    0    0  0.59219701074E+02 -0.74710422605E+02 -0.46481574531E+02  0.10606204322E+03  0.00000000000E+00 0. -1.
         22    1    3    3    0    0  0.14668623646E+02  0.49321971978E+02 -0.14490354612E+02  0.53458355906E+02  0.00000000000E+00 0. -1.
</event>
<event>
 7    1  0.5950675E-006  0.1163011E+03  0.7818608E-02  0.1382779E+00
          2   -1    0    0  502    0  0.00000000000E+00  0.00000000000E+00  0.11458833325E+04  0.11458833325E+04  0.00000000000E+00 0. -1.
          1   -1    0    0  501    0 -0.00000000000E+00 -0.00000000000E+00 -0.19755756206E+04  0.19755756206E+04  0.00000000000E+00 0. -1.
         25    2    1    2    0    0  0.88925272448E+02  0.11545010179E+03  0.36539453520E+03  0.41276426005E+03  0.12499895174E+03 0.  0.
          2    1    1    2  501    0 -0.24959003489E+02 -0.24439849050E+02 -0.19476455261E+04  0.19479587659E+04  0.00000000000E+00 0. -1.
          1    1    1    2  502    0 -0.63966268960E+02 -0.91010252741E+02  0.75255870285E+03  0.76073592718E+03  0.00000000000E+00 0. -1.
         22    1    3    3    0    0  0.52666034256E+02  0.95971841938E+02  0.11410948611E+03  0.15813058031E+03  0.00000000000E+00 0.  1.
         22    1    3    3    0    0  0.36259238193E+02  0.19478259852E+02  0.25128504909E+03  0.25463367974E+03  0.00000000000E+00 0.  1.
</event>
<event>
 7    1  0.5950675E-006  0.4414300E+02  0.7818608E-02  0.1493603E+00
          2   -1    0    0  502    0  0.00000000000E+00  0.00000000000E+00  0.22496542233E+03  0.22496542233E+03  0.00000000000E+00 0. -1.
          1   -1    0    0  501    0 -0.00000000000E+00 -0.00000000000E+00 -0.62052983455E+03  0.62052983455E+03  0.00000000000E+00 0. -1.
         25    2    1    2    0    0  0.76975578172E+01  0.23157937808E+02  0.15042502039E+03  0.19709318645E+03  0.12498997923E+03 0.  0.
          2    1    1    2  501    0  0.31581459323E+02 -0.31070214254E+02 -0.58839529084E+03  0.59006081472E+03  0.00000000000E+00 0. -1.
          1    1    1    2  502    0 -0.39279017140E+02  0.79122764468E+01  0.42405858227E+02  0.58341255712E+02  0.00000000000E+00 0. -1.
         22    1    3    3    0    0  0.24175556642E+02 -0.44366230657E+02  0.97206184799E+02  0.10955301148E+03  0.00000000000E+00 0. -1.
         22    1    3    3    0    0 -0.16477998825E+02  0.67524168464E+02  0.53218835588E+02  0.87540174968E+02  0.00000000000E+00 0. -1.
</event>
<event>
 7    1  0.5950675E-006  0.6963764E+02  0.7818608E-02  0.1370741E+00
          2   -1    0    0  502    0  0.00000000000E+00  0.00000000000E+00  0.30044261493E+03  0.30044261493E+03  0.00000000000E+00 0. -1.
          1   -1    0    0  501    0 -0.00000000000E+00 -0.00000000000E+00 -0.15206297471E+04  0.15206297471E+04  0.00000000000E+00 0. -1.
         25    2    1    2    0    0 -0.28901917058E+02 -0.97136326273E+02 -0.32138760706E+03  0.35942426191E+03  0.12500007755E+03 0.  0.
          2    1    1    2  501    0 -0.28404732043E+02  0.57784612420E+02 -0.11750359161E+04  0.11767987485E+04  0.00000000000E+00 0. -1.
          1    1    1    2  502    0  0.57306649101E+02  0.39351713853E+02  0.27623639101E+03  0.28484935164E+03  0.00000000000E+00 0. -1.
         22    1    3    3    0    0 -0.11509992739E+02 -0.58474376012E+02 -0.33369088607E+02  0.68302479145E+02  0.00000000000E+00 0. -1.
         22    1    3    3    0    0 -0.17391924319E+02 -0.38661950261E+02 -0.28801851845E+03  0.29112178277E+03  0.00000000000E+00 0. -1.
</event>
<event>
 7    1  0.5950675E-006  0.6158766E+02  0.7818608E-02  0.1418169E+00
          2   -1    0    0  502    0  0.00000000000E+00  0.00000000000E+00  0.26677929568E+03  0.26677929568E+03  0.00000000000E+00 0. -1.
          1   -1    0    0  501    0 -0.00000000000E+00 -0.00000000000E+00 -0.10451577444E+03  0.10451577444E+03  0.00000000000E+00 0. -1.
         25    2    1    2    0    0  0.57838354412E+02  0.16947261934E+02  0.30170517357E+02  0.14201285275E+03  0.12499962121E+03 0.  0.
          2    1    1    2  501    0 -0.32542285224E+01 -0.49745826309E+02 -0.27867263862E+02  0.57112359727E+02  0.00000000000E+00 0. -1.
          1    1    1    2  502    0 -0.54584125889E+02  0.32798564375E+02  0.15996026774E+03  0.17216985764E+03  0.00000000000E+00 0. -1.
         22    1    3    3    0    0 -0.23312512661E+02  0.46581811700E+02  0.69279228684E+01  0.52548401908E+02  0.00000000000E+00 0. -1.
         22    1    3    3    0    0  0.81150867073E+02 -0.29634549766E+02  0.23242594489E+02  0.89464450846E+02  0.00000000000E+00 0. -1.
</event>
<event>
 7    1  0.5950675E-006  0.4199156E+02  0.7818608E-02  0.1506363E+00
          2   -1    0    0  502    0  0.00000000000E+00  0.00000000000E+00  0.10011295106E+03  0.10011295106E+03  0.00000000000E+00 0. -1.
          1   -1    0    0  501    0 -0.00000000000E+00 -0.00000000000E+00 -0.29687336490E+03  0.29687336490E+03  0.00000000000E+00 0. -1.
         25    2    1    2    0    0 -0.55037667917E+02 -0.46121184298E+02 -0.33381652028E+02  0.14797732520E+03  0.12500658203E+03 0.  0.
          2    1    1    2  501    0  0.17451877976E+02  0.34412672330E+02 -0.19483427657E+03  0.19861821515E+03  0.00000000000E+00 0. -1.
          1    1    1    2  502    0  0.37585789940E+02  0.11708511968E+02  0.31455514764E+02  0.50390775614E+02  0.00000000000E+00 0. -1.
         22    1    3    3    0    0  0.12923211292E+02 -0.22872906059E+02  0.38337125223E+02  0.46474879150E+02  0.00000000000E+00 0. -1.
         22    1    3    3    0    0 -0.67960879208E+02 -0.23248278240E+02 -0.71718777251E+02  0.10150244605E+03  0.00000000000E+00 0. -1.
</event>
<event>
 7    1  0.5950675E-006  0.1545558E+03  0.7818608E-02  0.1395459E+00
          2   -1    0    0  502    0  0.00000000000E+00  0.00000000000E+00  0.11310396170E+04  0.11310396170E+04  0.00000000000E+00 0. -1.
          1   -1    0    0  501    0 -0.00000000000E+00 -0.00000000000E+00 -0.10435824304E+04  0.10435824304E+04  0.00000000000E+00 0. -1.
         25    2    1    2    0    0 -0.13879561909E+03  0.68565270379E+02  0.27738346417E+03  0.34136741785E+03  0.12499883037E+03 0.  0.
          2    1    1    2  501    0  0.12649067793E+03 -0.88863216233E+02 -0.10055110871E+04  0.10173244856E+04  0.00000000000E+00 0. -1.
          1    1    1    2  502    0  0.12304941154E+02  0.20297945854E+02  0.81558480954E+03  0.81593014391E+03  0.00000000000E+00 0. -1.
         22    1    3    3    0    0 -0.16034701316E+03  0.72060374931E+02  0.25783299620E+03  0.31206043676E+03  0.00000000000E+00 0. -1.
         22    1    3    3    0    0  0.21551394073E+02 -0.34951045523E+01  0.19550467969E+02  0.29306981082E+02  0.00000000000E+00 0. -1.
</event>
<event>
 7    1  0.5950675E-006  0.9563498E+02  0.7818608E-02  0.1347023E+00
          2   -1    0    0  502    0  0.00000000000E+00  0.00000000000E+00  0.21469831157E+03  0.21469831157E+03  0.00000000000E+00 0. -1.
          1   -1    0    0  501    0 -0.00000000000E+00 -0.00000000000E+00 -0.26265320002E+03  0.26265320002E+03  0.00000000000E+00 0. -1.
         25    2    1    2    0    0 -0.13528508102E+03 -0.37211729392E+02 -0.83825398449E+02  0.20576319500E+03  0.12500011617E+03 0.  0.
          2    1    1    2  501    0  0.56454987275E+02 -0.94829342398E+01 -0.95547731193E+02  0.11138429228E+03  0.00000000000E+00 0. -1.
          1    1    1    2  502    0  0.78830093741E+02  0.46694663632E+02  0.13141824119E+03  0.16020402432E+03  0.00000000000E+00 0. -1.
         22    1    3    3    0    0 -0.13411110811E+03 -0.46974060878E+02 -0.22759681673E+02  0.14391092670E+03  0.00000000000E+00 0. -1.
         22    1    3    3    0    0 -0.11739729059E+01  0.97623314867E+01 -0.61065716776E+02  0.61852268299E+02  0.00000000000E+00 0. -1.
</event>
<event>
 7    1  0.5950675E-006  0.1076786E+03  0.7818608E-02  0.1333238E+00
          2   -1    0    0  502    0  0.00000000000E+00  0.00000000000E+00  0.23958036105E+04  0.23958036105E+04  0.00000000000E+00 0. -1.
          1   -1    0    0  501    0 -0.00000000000E+00 -0.00000000000E+00 -0.20762793495E+03  0.20762793495E+03  0.00000000000E+00 0. -1.
         25    2    1    2    0    0 -0.51933400065E+02  0.98237430362E+02  0.26758429851E+02  0.16937350794E+03  0.12499480332E+03 0.  0.
          2    1    1    2  501    0  0.56489482091E+02  0.95491182218E+01 -0.12897476399E+03  0.14112667003E+03  0.00000000000E+00 0. -1.
          1    1    1    2  502    0 -0.45560820261E+01 -0.10778654858E+03  0.22903920097E+04  0.22929313675E+04  0.00000000000E+00 0. -1.
         22    1    3    3    0    0 -0.15437313448E+02 -0.21787822914E+02 -0.22181980510E+02  0.34713976050E+02  0.00000000000E+00 0.  1.
         22    1    3    3    0    0 -0.36496086617E+02  0.12002525328E+03  0.48940410361E+02  0.13465953189E+03  0.00000000000E+00 0.  1.
</event>
<event>
 7    1  0.5950675E-006  0.1086697E+03  0.7818608E-02  0.1400062E+00
          2   -1    0    0  502    0  0.00000000000E+00  0.00000000000E+00  0.11353560896E+04  0.11353560896E+04  0.00000000000E+00 0. -1.
          1   -1    0    0  501    0 -0.00000000000E+00 -0.00000000000E+00 -0.19931304681E+04  0.19931304681E+04  0.00000000000E+00 0. -1.
         25    2    1    2    0    0  0.13163469591E+03 -0.82694438630E+00 -0.16339427083E+02  0.18226396524E+03  0.12499919657E+03 0.  0.
          2    1    1    2  501    0 -0.25591011238E+02 -0.20110261351E+02 -0.18909128696E+04  0.18911929576E+04  0.00000000000E+00 0. -1.
          1    1    1    2  502    0 -0.10604368467E+03  0.20937205737E+02  0.10494779182E+04  0.10550296348E+04  0.00000000000E+00 0. -1.
         22    1    3    3    0    0 -0.14825271695E+02 -0.23077332822E+02 -0.20213990487E+02  0.34072824690E+02  0.00000000000E+00 0. -1.
         22    1    3    3    0    0  0.14645996761E+03  0.22250388435E+02  0.38745634036E+01  0.14819114055E+03  0.00000000000E+00 0. -1.
</event>
<event>
 7    1  0.5950675E-006  0.6304164E+02  0.7818608E-02  0.1421670E+00
          2   -1    0    0  502    0  0.00000000000E+00  0.00000000000E+00  0.25895670284E+02  0.25895670284E+02  0.00000000000E+00 0. -1.
          1   -1    0    0  501    0 -0.00000000000E+00 -0.00000000000E+00 -0.13259193963E+04  0.13259193963E+04  0.00000000000E+00 0. -1.
         25    2    1    2    0    0  0.57466047402E+02 -0.14174043960E+02 -0.57772925839E+03  0.59405802998E+03  0.12502238539E+03 0.  0.
          2    1    1    2  501    0 -0.57642248510E+02 -0.33234407905E+02 -0.70368968540E+03  0.70682835825E+03  0.00000000000E+00 0. -1.
          1    1    1    2  502    0  0.17620110836E+00  0.47408451864E+02 -0.18604782172E+02  0.50928678313E+02  0.00000000000E+00 0. -1.
         22    1    3    3    0    0 -0.36181859708E+02  0.16643895807E+01 -0.87281812073E+02  0.94498740115E+02  0.00000000000E+00 0. -1.
         22    1    3    3    0    0  0.93647907110E+02 -0.15838433541E+02 -0.49044744632E+03  0.49955928986E+03  0.00000000000E+00 0. -1.
</event>
<event>
 7    1  0.5950675E-006  0.2429008E+03  0.7818608E-02  0.1143151E+00
          2   -1    0    0  502    0  0.00000000000E+00  0.00000000000E+00  0.80722273026E+03  0.80722273026E+03  0.00000000000E+00 0. -1.
          1   -1    0    0  501    0 -0.00000000000E+00 -0.00000000000E+00 -0.98489715956E+03  0.98489715956E+03  0.00000000000E+00 0. -1.
         25    2    1    2    0    0  0.29055786170E+02 -0.39179337595E+03  0.23182855868E+03  0.47298614311E+03  0.12500049124E+03 0.  0.
          2    1    1    2  501    0  0.48617241801E+02  0.23148798186E+03 -0.82968941992E+03  0.86274843117E+03  0.00000000000E+00 0. -1.
          1    1    1    2  502    0 -0.77673027971E+02  0.16030539409E+03  0.42018643195E+03  0.45638531554E+03  0.00000000000E+00 0. -1.
         22    1    3    3    0    0  0.64313829387E+02 -0.11627228043E+03  0.55645332771E+02  0.14405524949E+03  0.00000000000E+00 0. -1.
         22    1    3    3    0    0 -0.35258043217E+02 -0.27552109552E+03  0.17618322591E+03  0.32893089362E+03  0.00000000000E+00 0. -1.
</event>
<event>
 7    1  0.5950675E-006  0.1107650E+03  0.7818608E-02  0.1378182E+00
          2   -1    0    0  502    0  0.00000000000E+00  0.00000000000E+00  0.56812282214E+03  0.56812282214E+03  0.00000000000E+00 0. -1.
          1   -1    0    0  501    0 -0.00000000000E+00 -0.00000000000E+00 -0.25103987722E+04  0.25103987722E+04  0.00000000000E+00 0. -1.
         25    2    1    2    0    0 -0.11693314832E+03  0.73752054790E+02 -0.10826391679E+04  0.10985653050E+04  0.12500173836E+03 0.  0.
          2    1    1    2  501    0  0.79307142061E+02 -0.67901795121E+02 -0.14172269829E+04  0.14210674149E+04  0.00000000000E+00 0. -1.
          1    1    1    2  502    0  0.37626006260E+02 -0.58502596682E+01  0.55759020084E+03  0.55888887442E+03  0.00000000000E+00 0. -1.
         22    1    3    3    0    0 -0.60515828297E+02  0.87475213573E+02 -0.41530746531E+03  0.42871245516E+03  0.00000000000E+00 0.  1.
         22    1    3    3    0    0 -0.56417320024E+02 -0.13723158784E+02 -0.66733170261E+03  0.66985284980E+03  0.00000000000E+00 0.  1.
</event>
<event>
 7    1  0.5950675E-006  0.2641978E+03  0.7818608E-02  0.1185185E+00
          2   -1    0    0  502    0  0.00000000000E+00  0.00000000000E+00  0.15995520534E+04  0.15995520534E+04  0.00000000000E+00 0. -1.
          1   -1    0    0  501    0 -0.00000000000E+00 -0.00000000000E+00 -0.55724674472E+03  0.55724674472E+03  0.00000000000E+00 0. -1.
         25    2    1    2    0    0 -0.17813082282E+03  0.51600570303E+02  0.12873171150E+03  0.25804721040E+03  0.12499320125E+03 0.  0.
          2    1    1    2  501    0 -0.10035940319E+03 -0.88696330699E+01 -0.47311794368E+03  0.48372644008E+03  0.00000000000E+00 0. -1.
          1    1    1    2  502    0  0.27849022601E+03 -0.42730937233E+02  0.13866915408E+04  0.14150251476E+04  0.00000000000E+00 0. -1.
         22    1    3    3    0    0 -0.64570189201E+01 -0.12552698165E+02 -0.18283193410E+02  0.23098452022E+02  0.00000000000E+00 0.  1.
         22    1    3    3    0    0 -0.17167380390E+03  0.64153268468E+02  0.14701490491E+03  0.23494875838E+03  0.00000000000E+00 0.  1.
</event>
<event>
 7    1  0.5950675E-006  0.8921093E+02  0.7818608E-02  0.1436336E+00
          2   -1    0    0  502    0  0.00000000000E+00  0.00000000000E+00  0.16095148454E+04  0.16095148454E+04  0.00000000000E+00 0. -1.
          1   -1    0    0  501    0 -0.00000000000E+00 -0.00000000000E+00 -0.30966071793E+02  0.30966071793E+02  0.00000000000E+00 0. -1.
         25    2    1    2    0    0  0.21379326686E+02 -0.98222417335E+02  0.69465690203E+03  0.71293608072E+03  0.12499969912E+03 0.  0.
          2    1    1    2  501    0 -0.42736514577E+02  0.77194222690E+02  0.68761857396E+02  0.11186398316E+03  0.00000000000E+00 0. -1.
          1    1    1    2  502    0  0.21357187892E+02  0.21028194645E+02  0.81513001415E+03  0.81568085328E+03  0.00000000000E+00 0. -1.
         22    1    3    3    0    0  0.30850650388E+02 -0.36259371240E+02  0.67194593368E+02  0.82350579901E+02  0.00000000000E+00 0. -1.
         22    1    3    3    0    0 -0.94713237018E+01 -0.61963046095E+02  0.62746230866E+03  0.63058550082E+03  0.00000000000E+00 0. -1.
</event>
<event>
 7    1  0.5950675E-006  0.7920106E+02  0.7818608E-02  0.1471048E+00
          2   -1    0    0  502    0  0.00000000000E+00  0.00000000000E+00  0.87931613237E+02  0.87931613237E+02  0.00000000000E+00 0. -1.
          1   -1    0    0  501    0 -0.00000000000E+00 -0.00000000000E+00 -0.73374883766E+03  0.73374883766E+03  0.00000000000E+00 0. -1.
         25    2    1    2    0    0  0.95009868405E+02 -0.16316468828E+02 -0.10355256130E+03  0.18879557847E+03  0.12501014059E+03 0.  0.
          2    1    1    2  501    0 -0.19280016980E+02  0.17704743765E+02 -0.55539596000E+03  0.55601245435E+03  0.00000000000E+00 0. -1.
          1    1    1    2  502    0 -0.75729851424E+02 -0.13882749379E+01  0.13131296870E+02  0.76872418081E+02  0.00000000000E+00 0. -1.
         22    1    3    3    0    0 -0.19286564203E+02 -0.33367307671E+02 -0.92367099510E+01  0.39631623619E+02  0.00000000000E+00 0. -1.
         22    1    3    3    0    0  0.11429643261E+03  0.17050838843E+02 -0.94315851345E+02  0.14916395485E+03  0.00000000000E+00 0. -1.
</event>
<event>
 7    1  0.5950675E-006  0.6879942E+02  0.7818608E-02  0.1378572E+00
          2   -1    0    0  502    0  0.00000000000E+00  0.00000000000E+00  0.79466914788E+03  0.79466914788E+03  0.00000000000E+00 0. -1.
          1   -1    0    0  501    0 -0.00000000000E+00 -0.00000000000E+00 -0.60088980646E+02  0.60088980646E+02  0.00000000000E+00 0. -1.
         25    2    1    2    0    0 -0.22228669618E+02 -0.10883567521E+02  0.19460450023E+03  0.23261420608E+03  0.12500356621E+03 0.  0.
          2    1    1    2  501    0  0.75245188178E+02 -0.19507522752E+02 -0.98856605488E+00  0.77739044570E+02  0.00000000000E+00 0. -1.
          1    1    1    2  502    0 -0.53016518560E+02  0.30391090273E+02  0.54096423306E+03  0.54440487788E+03  0.00000000000E+00 0. -1.
         22    1    3    3    0    0 -0.20148537123E+02 -0.30113904428E+02  0.20666670467E+03  0.20981882091E+03  0.00000000000E+00 0. -1.
         22    1    3    3    0    0 -0.20801324944E+01  0.19230336908E+02 -0.12062204445E+02  0.22795385166E+02  0.00000000000E+00 0. -1.
</event>
<event>
 7    1  0.5950675E-006  0.7167784E+02  0.7818608E-02  0.1393448E+00
          2   -1    0    0  502    0  0.00000000000E+00  0.00000000000E+00  0.85861725872E+03  0.85861725872E+03  0.00000000000E+00 0. -1.
          1   -1    0    0  501    0 -0.00000000000E+00 -0.00000000000E+00 -0.12186689237E+04  0.12186689237E+04  0.00000000000E+00 0. -1.
         25    2    1    2    0    0  0.94067245616E+02 -0.26777355192E+02 -0.19319475972E+03  0.25002842548E+03  0.12499729962E+03 0.  0.
          2    1    1    2  501    0 -0.24995526771E+02  0.45610066429E+02 -0.99483328046E+03  0.99619190442E+03  0.00000000000E+00 0. -1.
          1    1    1    2  502    0 -0.69071718844E+02 -0.18832711237E+02  0.82797637520E+03  0.83106585253E+03  0.00000000000E+00 0. -1.
         22    1    3    3    0    0  0.35193246382E+02  0.26729786126E+02 -0.35060667196E+01  0.44332139144E+02  0.00000000000E+00 0.  1.
         22    1    3    3    0    0  0.58873999234E+02 -0.53507141318E+02 -0.18968869300E+03  0.20569628633E+03  0.00000000000E+00 0.  1.
</event>
<event>
 7    1  0.5950675E-006  0.1240199E+03  0.7818608E-02  0.1308439E+00
          2   -1    0    0  502    0  0.00000000000E+00  0.00000000000E+00  0.55201721430E+03  0.55201721430E+03  0.00000000000E+00 0. -1.
          1   -1    0    0  501    0 -0.00000000000E+00 -0.00000000000E+00 -0.31460955519E+04  0.31460955519E+04  0.00000000000E+00 0. -1.
         25    2    1    2    0    0  0.18124493651E+03 -0.24013162746E+02  0.22920726559E+03  0.31872810816E+03  0.12500110934E+03 0.  0.
          2    1    1    2  501    0 -0.11965190855E+03  0.31626734792E+02 -0.30966204707E+04  0.30990926364E+04  0.00000000000E+00 0. -1.
          1    1    1    2  502    0 -0.61593027960E+02 -0.76135720453E+01  0.27333486752E+03  0.28029202161E+03  0.00000000000E+00 0. -1.
         22    1    3    3    0    0  0.88001311268E+02  0.37222494037E+02  0.50533172486E+02  0.10808952941E+03  0.00000000000E+00 0.  1.
         22    1    3    3    0    0  0.93243625241E+02 -0.61235656783E+02  0.17867409311E+03  0.21063857875E+03  0.00000000000E+00 0.  1.
</event>
<event>
 7    1  0.5950675E-006  0.6048593E+02  0.7818608E-02  0.1467177E+00
          2   -1    0    0  502    0  0.00000000000E+00  0.00000000000E+00  0.17183803966E+04  0.17183803966E+04  0.00000000000E+00 0. -1.
          1   -1    0    0  501    0 -0.00000000000E+00 -0.00000000000E+00 -0.83509482486E+02  0.83509482486E+02  0.00000000000E+00 0. -1.
         25    2    1    2    0    0 -0.25998086447E+01 -0.60702790741E+02  0.18362853950E+03  0.23029627096E+03  0.12500137636E+03 0.  0.
          2    1    1    2  501    0  0.36000812283E+02  0.49467837148E+02 -0.44363400122E+02  0.75572724363E+02  0.00000000000E+00 0. -1.
          1    1    1    2  502    0 -0.33401003639E+02  0.11234953592E+02  0.14956057747E+04  0.14960208838E+04  0.00000000000E+00 0. -1.
         22    1    3    3    0    0 -0.57850501053E+01 -0.97921845973E+02  0.15413554870E+03  0.18270172987E+03  0.00000000000E+00 0.  1.
         22    1    3    3    0    0  0.31852414606E+01  0.37219055232E+02  0.29492990794E+02  0.47594541089E+02  0.00000000000E+00 0.  1.
</event>
<event>
 7    1  0.5950675E-006  0.4039783E+02  0.7818608E-02  0.1572343E+00
          2   -1    0    0  502    0  0.00000000000E+00  0.00000000000E+00  0.11731273698E+03  0.11731273698E+03  0.00000000000E+00 0. -1.
          1   -1    0    0  501    0 -0.00000000000E+00 -0.00000000000E+00 -0.60692866701E+03  0.60692866701E+03  0.00000000000E+00 0. -1.
         25    2    1    2    0    0  0.44293983213E+02  0.45728688134E+02  0.47899203033E+02  0.14823119913E+03  0.12500033950E+03 0.  0.
          2    1    1    2  501    0 -0.20762175158E+02 -0.34463907271E+02 -0.54682990898E+03  0.54830810515E+03  0.00000000000E+00 0. -1.
          1    1    1    2  502    0 -0.23531808055E+02 -0.11264780863E+02  0.93147759112E+01  0.27702099713E+02  0.00000000000E+00 0. -1.
         22    1    3    3    0    0  0.85974445886E+02  0.32575879712E+02  0.49651600701E+02  0.10448959152E+03  0.00000000000E+00 0.  1.
         22    1    3    3    0    0 -0.41680462674E+02  0.13152808422E+02 -0.17523976681E+01  0.43741607603E+02  0.00000000000E+00 0.  1.
</event>
<event>
 7    1  0.5950675E-006  0.1033180E+03  0.7818608E-02  0.1324241E+00
          2   -1    0    0  502    0  0.00000000000E+00  0.00000000000E+00  0.30307309286E+02  0.30307309286E+02  0.00000000000E+00 0. -1.
          1   -1    0    0  501    0 -0.00000000000E+00 -0.00000000000E+00 -0.11564679296E+04  0.11564679296E+04  0.00000000000E+00 0. -1.
         25    2    1    2    0    0  0.64353963241E+02  0.78401593658E+02 -0.72076635845E+03  0.73852304522E+03  0.12499560941E+03 0.  0.
          2    1    1    2  501    0  0.39526663344E+02 -0.51142239411E+02 -0.25742514352E+03  0.26541588175E+03  0.00000000000E+00 0. -1.
          1    1    1    2  502    0 -0.10388062659E+03 -0.27259354247E+02 -0.14796911835E+03  0.18283631192E+03  0.00000000000E+00 0. -1.
         22    1    3    3    0    0  0.25469225976E+01 -0.10565314049E+02 -0.39632916849E+03  0.39647814880E+03  0.00000000000E+00 0. -1.
         22    1    3    3    0    0  0.61807040644E+02  0.88966907707E+02 -0.32443718996E+03  0.34204489642E+03  0.00000000000E+00 0. -1.
</event>
<event>
 7    1  0.5950675E-006  0.1300668E+03  0.7818608E-02  0.1261002E+00
          2   -1    0    0  502    0  0.00000000000E+00  0.00000000000E+00  0.23553109606E+04  0.23553109606E+04  0.00000000000E+00 0. -1.
          1   -1    0    0  501    0 -0.00000000000E+00 -0.00000000000E+00 -0.11705340683E+04  0.11705340683E+04  0.00000000000E+00 0. -1.
         25    2    1    2    0    0 -0.16776857956E+03 -0.24836451161E+01  0.77846764978E+03  0.80609541711E+03  0.12500189979E+03 0.  0.
          2    1    1    2  501    0  0.62311978203E+02 -0.68545419890E+02 -0.11522725735E+04  0.11559901993E+04  0.00000000000E+00 0. -1.
          1    1    1    2  502    0  0.10545660136E+03  0.71029065006E+02  0.15585818161E+04  0.15637594125E+04  0.00000000000E+00 0. -1.
         22    1    3    3    0    0 -0.15814228351E+03  0.15293139602E+01  0.77971474913E+03  0.79559186186E+03  0.00000000000E+00 0.  1.
         22    1    3    3    0    0 -0.96262960491E+01 -0.40129590763E+01 -0.12470993533E+01  0.10503555254E+02  0.00000000000E+00 0.  1.
</event>
<event>
 7    1  0.5950675E-006  0.3757628E+02  0.7818608E-02  0.1590623E+00
          2   -1    0    0  502    0  0.00000000000E+00  0.00000000000E+00  0.10797693859E+04  0.10797693859E+04  0.00000000000E+00 0. -1.
          1   -1    0    0  501    0 -0.00000000000E+00 -0.00000000000E+00 -0.51671169648E+02  0.51671169648E+02  0.00000000000E+00 0. -1.
         25    2    1    2    0    0 -0.59349531075E+02  0.12897383778E+02  0.56847164400E+03  0.58521271003E+03  0.12500078641E+03 0.  0.
          2    1    1    2  501    0  0.37250504740E+02 -0.10810131275E+01 -0.34906011823E+02  0.51060732017E+02  0.00000000000E+00 0. -1.
          1    1    1    2  502    0  0.22099026335E+02 -0.11816370650E+02  0.49453258412E+03  0.49516711354E+03  0.00000000000E+00 0. -1.
         22    1    3    3    0    0 -0.65918880799E+02 -0.28324685923E+02  0.16944508691E+03  0.18400876108E+03  0.00000000000E+00 0.  1.
         22    1    3    3    0    0  0.65693497237E+01  0.41222069701E+02  0.39902655709E+03  0.40120394895E+03  0.00000000000E+00 0.  1.
</event>
<event>
 7    1  0.5950675E-006  0.4446267E+02  0.7818608E-02  0.1552237E+00
          2   -1    0    0  502    0  0.00000000000E+00  0.00000000000E+00  0.78548086650E+02  0.78548086650E+02  0.00000000000E+00 0. -1.
          1   -1    0    0  501    0 -0.00000000000E+00 -0.00000000000E+00 -0.38002631480E+03  0.38002631480E+03  0.00000000000E+00 0. -1.
         25    2    1    2    0    0 -0.39724017011E+02  0.24553220905E+02 -0.16145326442E+03  0.20945949326E+03  0.12500105816E+03 0.  0.
          2    1    1    2  501    0 -0.49726203693E+01 -0.26452136292E+02 -0.18425159137E+03  0.18620711960E+03  0.00000000000E+00 0. -1.
          1    1    1    2  502    0  0.44696637380E+02  0.18989153867E+01  0.44226627638E+02  0.62907788587E+02  0.00000000000E+00 0. -1.
         22    1    3    3    0    0  0.30082145496E+02  0.47608499448E+02 -0.46614152059E+02  0.73105293033E+02  0.00000000000E+00 0. -1.
         22    1    3    3    0    0 -0.69806162507E+02 -0.23055278542E+02 -0.11483911236E+03  0.13635420023E+03  0.00000000000E+00 0. -1.
</event>
<event>
 7    1  0.5950675E-006  0.5825289E+02  0.7818608E-02  0.1461218E+00
          2   -1    0    0  502    0  0.00000000000E+00  0.00000000000E+00  0.69962540313E+03  0.69962540313E+03  0.00000000000E+00 0. -1.
          1   -1    0    0  501    0 -0.00000000000E+00 -0.00000000000E+00 -0.50819574495E+02  0.50819574495E+02  0.00000000000E+00 0. -1.
         25    2    1    2    0    0  0.37964638640E+01 -0.44766197154E+02  0.72933991147E+02  0.15153408505E+03  0.12499914529E+03 0.  0.
          2    1    1    2  501    0 -0.38035002986E+02 -0.35412479442E+01  0.26817490595E+02  0.46673115291E+02  0.00000000000E+00 0. -1.
          1    1    1    2  502    0  0.34238539122E+02  0.48307445098E+02  0.54905434689E+03  0.55223777728E+03  0.00000000000E+00 0. -1.
         22    1    3    3    0    0  0.24461488919E+02 -0.47180411137E+02 -0.19634935349E+02  0.56655858667E+02  0.00000000000E+00 0.  1.
         22    1    3    3    0    0 -0.20665025055E+02  0.24142139827E+01  0.92568926496E+02  0.94878226387E+02  0.00000000000E+00 0.  1.
</event>
<event>
 7    1  0.5950675E-006  0.7186618E+02  0.7818608E-02  0.1444614E+00
          2   -1    0    0  502    0  0.00000000000E+00  0.00000000000E+00  0.35917233435E+03  0.35917233435E+03  0.00000000000E+00 0. -1.
          1   -1    0    0  501    0 -0.00000000000E+00 -0.00000000000E+00 -0.33840086047E+03  0.33840086047E+03  0.00000000000E+00 0. -1.
         25    2    1    2    0    0 -0.81104455006E+02  0.40685169572E+02  0.11479323164E+03  0.19244925755E+03  0.12500406016E+03 0.  0.
          2    1    1    2  501    0  0.48274013846E+02 -0.52744038851E+02 -0.29376528924E+03  0.30234146128E+03  0.00000000000E+00 0. -1.
          1    1    1    2  502    0  0.32830441160E+02  0.12058869279E+02  0.19974353149E+03  0.20278247598E+03  0.00000000000E+00 0. -1.
         22    1    3    3    0    0 -0.96886396605E+02  0.56410938361E+02  0.12502754721E+03  0.16793169854E+03  0.00000000000E+00 0. -1.
         22    1    3    3    0    0  0.15781941599E+02 -0.15725768789E+02 -0.10234315570E+02  0.24517559011E+02  0.00000000000E+00 0. -1.
</event>
<event>
 7    1  0.5950675E-006  0.8203378E+02  0.7818608E-02  0.1362946E+00
          2   -1    0    0  502    0  0.00000000000E+00  0.00000000000E+00  0.21000378042E+04  0.21000378042E+04  0.00000000000E+00 0. -1.
          1   -1    0    0  501    0 -0.00000000000E+00 -0.00000000000E+00 -0.52822814889E+02  0.52822814889E+02  0.00000000000E+00 0. -1.
         25    2    1    2    0    0  0.97457949367E+02  0.96173613024E+02  0.43754046616E+03  0.47519913013E+03  0.12500055203E+03 0.  0.
          2    1    1    2  501    0 -0.45806555134E+02 -0.36096736295E+02 -0.72751446764E+01  0.58771954149E+02  0.00000000000E+00 0. -1.
          1    1    1    2  502    0 -0.51651394233E+02 -0.60076876729E+02  0.16169496678E+04  0.16188895348E+04  0.00000000000E+00 0. -1.
         22    1    3    3    0    0  0.74646199564E+02  0.12031486725E+03  0.40357924373E+03  0.42769607008E+03  0.00000000000E+00 0.  1.
         22    1    3    3    0    0  0.22811749803E+02 -0.24141254230E+02  0.33961222435E+02  0.47503060051E+02  0.00000000000E+00 0.  1.
</event>
<event>
 7    1  0.5950675E-006  0.8779905E+02  0.7818608E-02  0.1421557E+00
          2   -1    0    0  502    0  0.00000000000E+00  0.00000000000E+00  0.11072834544E+03  0.11072834544E+03  0.00000000000E+00 0. -1.
          1   -1    0    0  501    0 -0.00000000000E+00 -0.00000000000E+00 -0.20158455734E+04  0.20158455734E+04  0.00000000000E+00 0. -1.
         25    2    1    2    0    0 -0.79304408976E+02  0.14221110838E+02 -0.12340936683E+04  0.12430221207E+04  0.12500152450E+03 0.  0.
          2    1    1    2  501    0  0.81406608965E+02 -0.48226218864E+02 -0.77159054357E+03  0.77737042077E+03  0.00000000000E+00 0. -1.
          1    1    1    2  502    0 -0.21021999885E+01  0.34005108027E+02  0.10056698399E+03  0.10618137730E+03  0.00000000000E+00 0. -1.
         22    1    3    3    0    0 -0.96955043677E+02 -0.28499054258E+02 -0.92249253223E+03  0.92801128689E+03  0.00000000000E+00 0.  1.
         22    1    3    3    0    0  0.17650634700E+02  0.42720165096E+02 -0.31160113611E+03  0.31501083384E+03  0.00000000000E+00 0.  1.
</event>
<event>
 7    1  0.5950675E-006  0.4039390E+02  0.7818608E-02  0.1555595E+00
          2   -1    0    0  502    0  0.00000000000E+00  0.00000000000E+00  0.41844931996E+03  0.41844931996E+03  0.00000000000E+00 0. -1.
          1   -1    0    0  501    0 -0.00000000000E+00 -0.00000000000E+00 -0.59474981341E+03  0.59474981341E+03  0.00000000000E+00 0. -1.
         25    2    1    2    0    0  0.64821122801E+02 -0.13459697671E+02  0.12414386925E+03  0.18819639401E+03  0.12499296390E+03 0.  0.
          2    1    1    2  501    0 -0.36147345176E+02  0.17781627614E+02 -0.56119784436E+03  0.56264183754E+03  0.00000000000E+00 0. -1.
          1    1    1    2  502    0 -0.28673777625E+02 -0.43219299433E+01  0.26075348166E+03  0.26236090181E+03  0.00000000000E+00 0. -1.
         22    1    3    3    0    0  0.73106711982E+02  0.14548441472E+02  0.13724806242E+03  0.15618347904E+03  0.00000000000E+00 0. -1.
         22    1    3    3    0    0 -0.82855891810E+01 -0.28008139143E+02 -0.13104193177E+02  0.32012914974E+02  0.00000000000E+00 0. -1.
</event>
<event>
 7    1  0.5950675E-006  0.7361277E+03  0.7818608E-02  0.1130139E+00
          2   -1    0    0  502    0  0.00000000000E+00  0.00000000000E+00  0.24108885750E+04  0.24108885750E+04  0.00000000000E+00 0. -1.
          1   -1    0    0  501    0 -0.00000000000E+00 -0.00000000000E+00 -0.28626961849E+04  0.28626961849E+04  0.00000000000E+00 0. -1.
         25    2    1    2    0    0  0.63281424227E+03  0.22946736548E+03  0.77601868190E+03  0.10348614503E+04  0.12499635862E+03 0.  0.
          2    1    1    2  501    0 -0.68873333532E+03 -0.26960294839E+03 -0.26824109055E+04  0.27825110283E+04  0.00000000000E+00 0. -1.
          1    1    1    2  502    0  0.55919093054E+02  0.40135582905E+02  0.14545846136E+04  0.14562122813E+04  0.00000000000E+00 0. -1.
         22    1    3    3    0    0  0.12142667163E+03  0.27498626341E+02  0.80480688456E+02  0.14824895362E+03  0.00000000000E+00 0. -1.
         22    1    3    3    0    0  0.51138757063E+03  0.20196873914E+03  0.69553799344E+03  0.88661249670E+03  0.00000000000E+00 0. -1.
</event>
<event>
 7    1  0.5950675E-006  0.4042922E+02  0.7818608E-02  0.1533915E+00
          2   -1    0    0  502    0  0.00000000000E+00  0.00000000000E+00  0.33969610683E+04  0.33969610683E+04  0.00000000000E+00 0. -1.
          1   -1    0    0  501    0 -0.00000000000E+00 -0.00000000000E+00 -0.70019453665E+03  0.70019453665E+03  0.00000000000E+00 0. -1.
         25    2    1    2    0    0 -0.24898686172E+02  0.55793760610E+01  0.16673906074E+04  0.16722650897E+04  0.12501207344E+03 0.  0.
          2    1    1    2  501    0  0.29739423127E+02  0.27401155140E+02 -0.69701037138E+03  0.69818243633E+03  0.00000000000E+00 0. -1.
          1    1    1    2  502    0 -0.48407369547E+01 -0.32980531201E+02  0.17263862956E+04  0.17267080789E+04  0.00000000000E+00 0. -1.
         22    1    3    3    0    0 -0.26011335432E+02 -0.57599047555E+02  0.94824074142E+03  0.95034453938E+03  0.00000000000E+00 0. -1.
         22    1    3    3    0    0  0.11126492599E+01  0.63178423616E+02  0.71914986602E+03  0.72192055033E+03  0.00000000000E+00 0. -1.
</event>
<event>
 7    1  0.5950675E-006  0.8116964E+02  0.7818608E-02  0.1443693E+00
          2   -1    0    0  502    0  0.00000000000E+00  0.00000000000E+00  0.15943096236E+03  0.15943096236E+03  0.00000000000E+00 0. -1.
          1   -1    0    0  501    0 -0.00000000000E+00 -0.00000000000E+00 -0.79898568413E+03  0.79898568413E+03  0.00000000000E+00 0. -1.
         25    2    1    2    0    0 -0.65152392061E+02 -0.51391571208E+02 -0.17652512207E+03  0.23167536065E+03  0.12500570478E+03 0.  0.
          2    1    1    2  501    0  0.24580231474E+02 -0.19181685375E+02 -0.58186390706E+03  0.58269866240E+03  0.00000000000E+00 0. -1.
          1    1    1    2  502    0  0.40572160587E+02  0.70573256582E+02  0.11883430737E+03  0.14404262344E+03  0.00000000000E+00 0. -1.
         22    1    3    3    0    0  0.15827294469E+01 -0.48970580899E+02 -0.15335347295E+03  0.16099040497E+03  0.00000000000E+00 0. -1.
         22    1    3    3    0    0 -0.66735121508E+02 -0.24209903084E+01 -0.23171649126E+02  0.70684955683E+02  0.00000000000E+00 0. -1.
</event>
<event>
 7    1  0.5950675E-006  0.6354225E+02  0.7818608E-02  0.1453307E+00
          2   -1    0    0  502    0  0.00000000000E+00  0.00000000000E+00  0.80596612112E+03  0.80596612112E+03  0.00000000000E+00 0. -1.
          1   -1    0    0  501    0 -0.00000000000E+00 -0.00000000000E+00 -0.21284065702E+04  0.21284065702E+04  0.00000000000E+00 0. -1.
         25    2    1    2    0    0  0.94447004282E+01  0.99586751067E+02 -0.28340958839E+02  0.16258955658E+03  0.12500172241E+03 0.  0.
          2    1    1    2  501    0 -0.14022091909E+01 -0.37072890957E+02 -0.20314274142E+04  0.20317661540E+04  0.00000000000E+00 0. -1.
          1    1    1    2  502    0 -0.80424912373E+01 -0.62513860110E+02  0.73732792394E+03  0.74001698075E+03  0.00000000000E+00 0. -1.
         22    1    3    3    0    0 -0.25110384094E+02  0.11784468525E+03 -0.15670908873E+02  0.12150505593E+03  0.00000000000E+00 0. -1.
         22    1    3    3    0    0  0.34555084523E+02 -0.18257934187E+02 -0.12670049966E+02  0.41084500646E+02  0.00000000000E+00 0. -1.
</event>
<event>
 7    1  0.5950675E-006  0.1009224E+03  0.7818608E-02  0.1351215E+00
          2   -1    0    0  502    0  0.00000000000E+00  0.00000000000E+00  0.27848081072E+03  0.27848081072E+03  0.00000000000E+00 0. -1.
          1   -1    0    0  501    0 -0.00000000000E+00 -0.00000000000E+00 -0.24816871402E+03  0.24816871402E+03  0.00000000000E+00 0. -1.
         25    2    1    2    0    0 -0.39511174720E+02  0.71851463873E+02 -0.12615830955E+03  0.19561355791E+03  0.12499991672E+03 0.  0.
          2    1    1    2  501    0  0.42087756193E+02  0.31112225476E+02 -0.66972227558E+02  0.84997817969E+02  0.00000000000E+00 0. -1.
          1    1    1    2  502    0 -0.25765814731E+01 -0.10296368935E+03  0.22344263380E+03  0.24603814887E+03  0.00000000000E+00 0. -1.
         22    1    3    3    0    0 -0.40535707637E+02  0.67294468879E+02 -0.98085099835E+01  0.79170044862E+02  0.00000000000E+00 0.  1.
         22    1    3    3    0    0  0.10245329174E+01  0.45569949945E+01 -0.11634979957E+03  0.11644351304E+03  0.00000000000E+00 0.  1.
</event>
<event>
 7    1  0.5950675E-006  0.2102725E+03  0.7818608E-02  0.1318120E+00
          2   -1    0    0  502    0  0.00000000000E+00  0.00000000000E+00  0.19880509705E+04  0.19880509705E+04  0.00000000000E+00 0. -1.
          1   -1    0    0  501    0 -0.00000000000E+00 -0.00000000000E+00 -0.84485261538E+03  0.84485261538E+03  0.00000000000E+00 0. -1.
         25    2    1    2    0    0 -0.10644601132E+03  0.17700834533E+03  0.59044628328E+03  0.63789871522E+03  0.12500099918E+03 0.  0.
          2    1    1    2  501    0  0.27064482973E+02  0.19811781052E+02 -0.81258266481E+03  0.81327460310E+03  0.00000000000E+00 0. -1.
          1    1    1    2  502    0  0.79381528348E+02 -0.19682012638E+03  0.13653347367E+04  0.13817302676E+04  0.00000000000E+00 0. -1.
         22    1    3    3    0    0 -0.10911085900E+03  0.14349276392E+03  0.33655833093E+03  0.38179426785E+03  0.00000000000E+00 0. -1.
         22    1    3    3    0    0  0.26648476804E+01  0.33515581414E+02  0.25388795235E+03  0.25610444736E+03  0.00000000000E+00 0. -1.
</event>
<event>
 7    1  0.5950675E-006  0.1493645E+03  0.7818608E-02  0.1384406E+00
          2   -1    0    0  502    0  0.00000000000E+00  0.00000000000E+00  0.33741597698E+03  0.33741597698E+03  0.00000000000E+00 0. -1.
          1   -1    0    0  501    0 -0.00000000000E+00 -0.00000000000E+00 -0.13026922461E+04  0.13026922461E+04  0.00000000000E+00 0. -1.
         25    2    1    2    0    0  0.13807760747E+03 -0.57389894043E+02  0.17068775278E+02  0.19564067960E+03  0.12499962720E+03 0.  0.
          2    1    1    2  501    0 -0.12213062624E+02 -0.23903672486E+02 -0.11889482013E+04  0.11892511803E+04  0.00000000000E+00 0. -1.
          1    1    1    2  502    0 -0.12586454485E+03  0.81293566529E+02  0.20660315689E+03  0.25521636320E+03  0.00000000000E+00 0. -1.
         22    1    3    3    0    0  0.10369612901E+03  0.19988450154E+02  0.30472215204E+02  0.10991351696E+03  0.00000000000E+00 0. -1.
         22    1    3    3    0    0  0.34381478462E+02 -0.77378344197E+02 -0.13403439926E+02  0.85727162637E+02  0.00000000000E+00 0. -1.
</event>
<event>
 7    1  0.5950675E-006  0.2442339E+03  0.7818608E-02  0.1211390E+00
          2   -1    0    0  502    0  0.00000000000E+00  0.00000000000E+00  0.54104798209E+03  0.54104798209E+03  0.00000000000E+00 0. -1.
          1   -1    0    0  501    0 -0.00000000000E+00 -0.00000000000E+00 -0.11813996163E+04  0.11813996163E+04  0.00000000000E+00 0. -1.
         25    2    1    2    0    0  0.10734446206E+03 -0.14628919662E+03  0.10275414546E+03  0.24311738126E+03  0.12499713627E+03 0.  0.
          2    1    1    2  501    0 -0.18700312483E+03  0.16541461182E+03 -0.10923953242E+04  0.11205622280E+04  0.00000000000E+00 0. -1.
          1    1    1    2  502    0  0.79658662766E+02 -0.19125415196E+02  0.34928954456E+03  0.35876798909E+03  0.00000000000E+00 0. -1.
         22    1    3    3    0    0  0.12382771786E+03 -0.10767752189E+03  0.11381273228E+03  0.19970250489E+03  0.00000000000E+00 0.  1.
         22    1    3    3    0    0 -0.16483255794E+02 -0.38611674731E+02 -0.11058586824E+02  0.43414876363E+02  0.00000000000E+00 0.  1.
</event>
<event>
 7    1  0.5950675E-006  0.1079104E+03  0.7818608E-02  0.1318439E+00
          2   -1    0    0  502    0  0.00000000000E+00  0.00000000000E+00  0.26451380719E+04  0.26451380719E+04  0.00000000000E+00 0. -1.
          1   -1    0    0  501    0 -0.00000000000E+00 -0.00000000000E+00 -0.14821901799E+03  0.14821901799E+03  0.00000000000E+00 0. -1.
         25    2    1    2    0    0  0.45884130053E+02  0.14132163721E+03  0.25790990711E+03  0.32283134530E+03  0.12500159514E+03 0.  0.
          2    1    1    2  501    0 -0.55032682681E+02 -0.34909549721E+02 -0.10527234844E+03  0.12381252025E+03  0.00000000000E+00 0. -1.
          1    1    1    2  502    0  0.91485526280E+01 -0.10641208749E+03  0.23442814952E+04  0.23467132243E+04  0.00000000000E+00 0. -1.
         22    1    3    3    0    0  0.78489193728E+00  0.14583200103E+03  0.21890647650E+03  0.26303542354E+03  0.00000000000E+00 0.  1.
         22    1    3    3    0    0  0.45099238116E+02 -0.45103638202E+01  0.39003430603E+02  0.59795921761E+02  0.00000000000E+00 0.  1.
</event>
<event>
 7    1  0.5950675E-006  0.1406440E+03  0.7818608E-02  0.1358954E+00
          2   -1    0    0  502    0  0.00000000000E+00  0.00000000000E+00  0.29006932702E+03  0.29006932702E+03  0.00000000000E+00 0. -1.
          1   -1    0    0  501    0 -0.00000000000E+00 -0.00000000000E+00 -0.69632542530E+03  0.69632542530E+03  0.00000000000E+00 0. -1.
         25    2    1    2    0    0  0.13894701402E+03  0.68135287859E+02 -0.52272665845E+03  0.55929976287E+03  0.12499750053E+03 0.  0.
          2    1    1    2  501    0 -0.26103262456E+01 -0.35078074431E+02 -0.13480062954E+03  0.13931437411E+03  0.00000000000E+00 0. -1.
          1    1    1    2  502    0 -0.13633668777E+03 -0.33057213429E+02  0.25127118971E+03  0.28778061534E+03  0.00000000000E+00 0. -1.
         22    1    3    3    0    0  0.91496511471E+02  0.10090163796E+03 -0.41949792311E+03  0.44105698004E+03  0.00000000000E+00 0. -1.
         22    1    3    3    0    0  0.47450502545E+02 -0.32766350098E+02 -0.10322873535E+03  0.11824278283E+03  0.00000000000E+00 0. -1.
</event>
<event>
 7    1  0.5950675E-006  0.2816910E+02  0.7818608E-02  0.1635583E+00
          2   -1    0    0  502    0  0.00000000000E+00  0.00000000000E+00  0.12693532058E+04  0.12693532058E+04  0.00000000000E+00 0. -1.
          1   -1    0    0  501    0 -0.00000000000E+00 -0.00000000000E+00 -0.89962840440E+03  0.89962840440E+03  0.00000000000E+00 0. -1.
         25    2    1    2    0    0  0.37289109973E+01 -0.36909448164E+02  0.13322216816E+03  0.18641201154E+03  0.12500031927E+03 0.  0.
          2    1    1    2  501    0  0.17281135388E+02  0.22247781280E+02 -0.87265826328E+03  0.87311284831E+03  0.00000000000E+00 0. -1.
          1    1    1    2  502    0 -0.21010046385E+02  0.14661666884E+02  0.11091608965E+04  0.11094567503E+04  0.00000000000E+00 0. -1.
         22    1    3    3    0    0 -0.22692638451E+01 -0.83422062482E+02  0.83111814102E+02  0.11777930086E+03  0.00000000000E+00 0. -1.
         22    1    3    3    0    0  0.59981748424E+01  0.46512614318E+02  0.50110354061E+02  0.68632710687E+02  0.00000000000E+00 0. -1.
</event>
<event>
 7    1  0.5950675E-006  0.1153928E+03  0.7818608E-02  0.1412585E+00
          2   -1    0    0  502    0  0.00000000000E+00  0.00000000000E+00  0.47909580899E+03  0.47909580899E+03  0.00000000000E+00 0. -1.
          1   -1    0    0  501    0 -0.00000000000E+00 -0.00000000000E+00 -0.45788449414E+03  0.45788449414E+03  0.00000000000E+00 0. -1.
         25    2    1    2    0    0 -0.40128959561E+02 -0.12969162588E+03 -0.13742938055E+02  0.18505185877E+03  0.12500028347E+03 0.  0.
          2    1    1    2  501    0  0.18886052259E+02  0.11178572405E+03 -0.34900943418E+03  0.36696091919E+03  0.00000000000E+00 0. -1.
          1    1    1    2  502    0  0.21242907301E+02  0.17905901828E+02  0.38396368709E+03  0.38496752517E+03  0.00000000000E+00 0. -1.
         22    1    3    3    0    0 -0.65196217128E+01 -0.16969308014E+02  0.48626495360E+02  0.51913379130E+02  0.00000000000E+00 0. -1.
         22    1    3    3    0    0 -0.33609337848E+02 -0.11272231786E+03 -0.62369433415E+02  0.13313847964E+03  0.00000000000E+00 0. -1.
</event>
<event>
 7    1  0.5950675E-006  0.1222960E+03  0.7818608E-02  0.1362560E+00
          2   -1    0    0  502    0  0.00000000000E+00  0.00000000000E+00  0.16672891283E+04  0.16672891283E+04  0.00000000000E+00 0. -1.
          1   -1    0    0  501    0 -0.00000000000E+00 -0.00000000000E+00 -0.86241236124E+03  0.86241236124E+03  0.00000000000E+00 0. -1.
         25    2    1    2    0    0 -0.15409087156E+02  0.13432888446E+03  0.57613561743E+03  0.60484622437E+03  0.12500006520E+03 0.  0.
          2    1    1    2  501    0  0.47978791143E+02 -0.11243195885E+03 -0.84329107771E+03  0.85210489467E+03  0.00000000000E+00 0. -1.
          1    1    1    2  502    0 -0.32569703988E+02 -0.21896925609E+02  0.10720322274E+04  0.10727503705E+04  0.00000000000E+00 0. -1.
         22    1    3    3    0    0 -0.57988073750E+02  0.38899573586E+02  0.33238682353E+03  0.33964215578E+03  0.00000000000E+00 0.  1.
         22    1    3    3    0    0  0.42578986594E+02  0.95429310878E+02  0.24374879390E+03  0.26520406860E+03  0.00000000000E+00 0.  1.
</event>
<event>
 7    1  0.5950675E-006  0.4902307E+02  0.7818608E-02  0.1492584E+00
          2   -1    0    0  502    0  0.00000000000E+00  0.00000000000E+00  0.67324739323E+02  0.67324739323E+02  0.00000000000E+00 0. -1.
          1   -1    0    0  501    0 -0.00000000000E+00 -0.00000000000E+00 -0.37465913723E+03  0.37465913723E+03  0.00000000000E+00 0. -1.
         25    2    1    2    0    0  0.31821954564E+02 -0.32520683349E+02 -0.45485144740E+02  0.14059402662E+03  0.12501020075E+03 0.  0.
          2    1    1    2  501    0  0.22293853093E+02  0.28692345702E+02 -0.24027425780E+03  0.24300614302E+03  0.00000000000E+00 0. -1.
          1    1    1    2  502    0 -0.54115807657E+02  0.38283376470E+01 -0.21574995370E+02  0.58383706911E+02  0.00000000000E+00 0. -1.
         22    1    3    3    0    0 -0.23099915090E+01  0.15885327371E+02 -0.73386600939E+02  0.75121720453E+02  0.00000000000E+00 0.  1.
         22    1    3    3    0    0  0.34131946073E+02 -0.48406010720E+02  0.27901456199E+02  0.65472306165E+02  0.00000000000E+00 0.  1.
</event>
<event>
 7    1  0.1273665E-005  0.7171018E+02  0.7818608E-02  0.1425441E+00
          2   -1    0    0  502    0  0.00000000000E+00  0.00000000000E+00  0.96479246604E+03  0.96479246604E+03  0.00000000000E+00 0. -1.
          1   -1    0    0  501    0 -0.00000000000E+00 -0.00000000000E+00 -0.22132016092E+04  0.22132016092E+04  0.00000000000E+00 0. -1.
         25    2    1    2    0    0 -0.95076897382E+02 -0.56198404711E+02 -0.67230425080E+03  0.69268771675E+03  0.12500156070E+03 0.  0.
          2    1    1    2  501    0  0.38654642137E+02  0.12059930059E+02 -0.15290932913E+04  0.15296293396E+04  0.00000000000E+00 0. -1.
          1    1    1    2  502    0  0.56422255245E+02  0.44138474652E+02  0.95298839893E+03  0.95567701883E+03  0.00000000000E+00 0. -1.
         22    1    3    3    0    0 -0.10400244805E+03 -0.84880138466E+02 -0.49612816496E+03  0.51396916559E+03  0.00000000000E+00 0.  1.
         22    1    3    3    0    0  0.89255506717E+01  0.28681733756E+02 -0.17617608584E+03  0.17871855116E+03  0.00000000000E+00 0.  1.
</event>
<event>
 7    1  0.5950675E-006  0.1505680E+03  0.7818608E-02  0.1301081E+00
          2   -1    0    0  502    0  0.00000000000E+00  0.00000000000E+00  0.38179093950E+03  0.38179093950E+03  0.00000000000E+00 0. -1.
          1   -1    0    0  501    0 -0.00000000000E+00 -0.00000000000E+00 -0.15181607212E+03  0.15181607212E+03  0.00000000000E+00 0. -1.
         25    2    1    2    0    0 -0.11988461607E+03 -0.72027908136E+02  0.20424851145E+02  0.18868500479E+03  0.12499806306E+03 0.  0.
          2    1    1    2  501    0  0.16149117667E+03  0.36550133423E+02  0.45082585294E+02  0.17160347285E+03  0.00000000000E+00 0. -1.
          1    1    1    2  502    0 -0.41606560601E+02  0.35477774713E+02  0.16446743094E+03  0.17331853399E+03  0.00000000000E+00 0. -1.
         22    1    3    3    0    0 -0.10193354664E+03 -0.97831359298E+02 -0.14108988299E+02  0.14198762743E+03  0.00000000000E+00 0. -1.
         22    1    3    3    0    0 -0.17951069434E+02  0.25803451162E+02  0.34533839444E+02  0.46697377361E+02  0.00000000000E+00 0. -1.
</event>
<event>
 7    1  0.5950675E-006  0.1495996E+03  0.7818608E-02  0.1255339E+00
          2   -1    0    0  502    0  0.00000000000E+00  0.00000000000E+00  0.74351711957E+03  0.74351711957E+03  0.00000000000E+00 0. -1.
          1   -1    0    0  501    0 -0.00000000000E+00 -0.00000000000E+00 -0.96167711412E+03  0.96167711412E+03  0.00000000000E+00 0. -1.
         25    2    1    2    0    0  0.20380098160E+02  0.16216933300E+03 -0.74621989216E+02  0.21887424850E+03  0.12499301746E+03 0.  0.
          2    1    1    2  501    0  0.61090478597E+02 -0.13736071663E+03 -0.80524359378E+03  0.81915643095E+03  0.00000000000E+00 0. -1.
          1    1    1    2  502    0 -0.81470576757E+02 -0.24808616369E+02  0.66170558845E+03  0.66716355424E+03  0.00000000000E+00 0. -1.
         22    1    3    3    0    0  0.10074336824E+02 -0.10305226268E+02  0.17819147144E+02  0.22917503263E+02  0.00000000000E+00 0. -1.
         22    1    3    3    0    0  0.10305761337E+02  0.17247455927E+03 -0.92441136360E+02  0.19595674523E+03  0.00000000000E+00 0. -1.
</event>
<event>
 7    1  0.5950675E-006  0.1342878E+03  0.7818608E-02  0.1308088E+00
          2   -1    0    0  502    0  0.00000000000E+00  0.00000000000E+00  0.63899463741E+02  0.63899463741E+02  0.00000000000E+00 0. -1.
          1   -1    0    0  501    0 -0.00000000000E+00 -0.00000000000E+00 -0.13636844494E+04  0.13636844494E+04  0.00000000000E+00 0. -1.
         25    2    1    2    0    0  0.10281669135E+03 -0.43811548708E+02 -0.29771479773E+03  0.34168872867E+03  0.12500545065E+03 0.  0.
          2    1    1    2  501    0  0.42787243050E+02  0.38412170138E+02 -0.91365729195E+03  0.91546484920E+03  0.00000000000E+00 0. -1.
          1    1    1    2  502    0 -0.14560393440E+03  0.53993785703E+01 -0.88412895949E+02  0.17043033524E+03  0.00000000000E+00 0. -1.
         22    1    3    3    0    0  0.12880504982E+03 -0.34939393836E+02 -0.27637308143E+03  0.30690972979E+03  0.00000000000E+00 0. -1.
         22    1    3    3    0    0 -0.25988358475E+02 -0.88721548715E+01 -0.21341716301E+02  0.34778998878E+02  0.00000000000E+00 0. -1.
</event>
<event>
 7    1  0.5950675E-006  0.9791366E+02  0.7818608E-02  0.1304350E+00
          2   -1    0    0  502    0  0.00000000000E+00  0.00000000000E+00  0.17872498675E+04  0.17872498675E+04  0.00000000000E+00 0. -1.
          1   -1    0    0  501    0 -0.00000000000E+00 -0.00000000000E+00 -0.40231388915E+03  0.40231388915E+03  0.00000000000E+00 0. -1.
         25    2    1    2    0    0 -0.16273695511E+02 -0.73450669725E+02  0.17449977102E+03  0.22745393340E+03  0.12500115072E+03 0.  0.
          2    1    1    2  501    0  0.81513738267E+02 -0.37022488099E+01 -0.36977533988E+03  0.37867135904E+03  0.00000000000E+00 0. -1.
          1    1    1    2  502    0 -0.65240042756E+02  0.77152918535E+02  0.15802115472E+04  0.15834384642E+04  0.00000000000E+00 0. -1.
         22    1    3    3    0    0  0.41998518203E+02 -0.98455578504E+01  0.11455581857E+03  0.12240852139E+03  0.00000000000E+00 0.  1.
         22    1    3    3    0    0 -0.58272213714E+02 -0.63605111875E+02  0.59943952454E+02  0.10504541201E+03  0.00000000000E+00 0.  1.
</event>
<event>
 7    1  0.5950675E-006  0.6588989E+02  0.7818608E-02  0.1474335E+00
          2   -1    0    0  502    0  0.00000000000E+00  0.00000000000E+00  0.36490335454E+03  0.36490335454E+03  0.00000000000E+00 0. -1.
          1   -1    0    0  501    0 -0.00000000000E+00 -0.00000000000E+00 -0.16277362861E+04  0.16277362861E+04  0.00000000000E+00 0. -1.
         25    2    1    2    0    0  0.78888817750E+02  0.77207945458E+01  0.26789613378E+02  0.15042178463E+03  0.12500389463E+03 0.  0.
          2    1    1    2  501    0 -0.63128728414E+02  0.18665339360E+02 -0.15643711065E+04  0.15657555972E+04  0.00000000000E+00 0. -1.
          1    1    1    2  502    0 -0.15760089337E+02 -0.26386133906E+02  0.27474856156E+03  0.27646225883E+03  0.00000000000E+00 0. -1.
         22    1    3    3    0    0  0.99412370117E+02 -0.12183889712E+01 -0.17357222767E+02  0.10092361956E+03  0.00000000000E+00 0. -1.
         22    1    3    3    0    0 -0.20523552366E+02  0.89391835170E+01  0.44146836145E+02  0.49498165070E+02  0.00000000000E+00 0. -1.
</event>
<event>
 7    1  0.5950675E-006  0.9729675E+02  0.7818608E-02  0.1311961E+00
          2   -1    0    0  502    0  0.00000000000E+00  0.00000000000E+00  0.19355900624E+03  0.19355900624E+03  0.00000000000E+00 0. -1.
          1   -1    0    0  501    0 -0.00000000000E+00 -0.00000000000E+00 -0.27995479292E+03  0.27995479292E+03  0.00000000000E+00 0. -1.
         25    2    1    2    0    0 -0.17088952701E+01  0.57776249266E+02  0.18673424794E+01  0.13773250491E+03  0.12500296252E+03 0.  0.
          2    1    1    2  501    0  0.75611300439E+02 -0.78000454854E+02 -0.18368563527E+03  0.21340466798E+03  0.00000000000E+00 0. -1.
          1    1    1    2  502    0 -0.73902405169E+02  0.20224205588E+02  0.95422506112E+02  0.12237662626E+03  0.00000000000E+00 0. -1.
         22    1    3    3    0    0 -0.30364315504E+02 -0.28154338373E+02 -0.17746064597E+02  0.45050873842E+02  0.00000000000E+00 0. -1.
         22    1    3    3    0    0  0.28655420234E+02  0.85930587639E+02  0.19613407076E+02  0.92681631071E+02  0.00000000000E+00 0. -1.
</event>
<event>
 7    1  0.5950675E-006  0.2986146E+02  0.7818608E-02  0.1623787E+00
          2   -1    0    0  502    0  0.00000000000E+00  0.00000000000E+00  0.13129448360E+04  0.13129448360E+04  0.00000000000E+00 0. -1.
          1   -1    0    0  501    0 -0.00000000000E+00 -0.00000000000E+00 -0.15760511329E+02  0.15760511329E+02  0.00000000000E+00 0. -1.
         25    2    1    2    0    0 -0.39388059886E+02  0.19982467123E+02  0.51971850581E+03  0.53636074598E+03  0.12499922519E+03 0.  0.
          2    1    1    2  501    0  0.10020893388E+02 -0.23858114307E+02  0.16257909031E+02  0.30560555110E+02  0.00000000000E+00 0. -1.
          1    1    1    2  502    0  0.29367166497E+02  0.38756471836E+01  0.76120790979E+03  0.76178404619E+03  0.00000000000E+00 0. -1.
         22    1    3    3    0    0 -0.55085646730E+02  0.13211790703E+02  0.90271205615E+02  0.10657331023E+03  0.00000000000E+00 0.  1.
         22    1    3    3    0    0  0.15697586844E+02  0.67706764206E+01  0.42944730019E+03  0.42978743576E+03  0.00000000000E+00 0.  1.
</event>
<event>
 7    1  0.5950675E-006  0.8719504E+02  0.7818608E-02  0.1407633E+00
          2   -1    0    0  502    0  0.00000000000E+00  0.00000000000E+00  0.60175081393E+03  0.60175081393E+03  0.00000000000E+00 0. -1.
          1   -1    0    0  501    0 -0.00000000000E+00 -0.00000000000E+00 -0.28095814521E+03  0.28095814521E+03  0.00000000000E+00 0. -1.
         25    2    1    2    0    0  0.41031614849E+02  0.78480448842E+02  0.38604001816E+03  0.41532542999E+03  0.12500217160E+03 0.  0.
          2    1    1    2  501    0 -0.36587342142E+02  0.11036067920E+02 -0.25483152859E+03  0.25768107491E+03  0.00000000000E+00 0. -1.
          1    1    1    2  502    0 -0.44442727072E+01 -0.89516516763E+02  0.18958417915E+03  0.20970245425E+03  0.00000000000E+00 0. -1.
         22    1    3    3    0    0  0.53307237503E+02  0.89139894915E+02  0.17384444585E+03  0.20250795981E+03  0.00000000000E+00 0.  1.
         22    1    3    3    0    0 -0.12275622654E+02 -0.10659446072E+02  0.21219557231E+03  0.21281747017E+03  0.00000000000E+00 0.  1.
</event>
<event>
 7    1  0.5950675E-006  0.7835590E+02  0.7818608E-02  0.1457872E+00
          2   -1    0    0  502    0  0.00000000000E+00  0.00000000000E+00  0.82378602017E+03  0.82378602017E+03  0.00000000000E+00 0. -1.
          1   -1    0    0  501    0 -0.00000000000E+00 -0.00000000000E+00 -0.13488231603E+04  0.13488231603E+04  0.00000000000E+00 0. -1.
         25    2    1    2    0    0  0.22611234849E+02  0.73304974469E+02 -0.48631530362E+03  0.50794942913E+03  0.12500064318E+03 0.  0.
          2    1    1    2  501    0 -0.49475106035E+02 -0.62122818398E+02 -0.84957793027E+03  0.85328171801E+03  0.00000000000E+00 0. -1.
          1    1    1    2  502    0  0.26863871186E+02 -0.11182156071E+02  0.81085609376E+03  0.81137803333E+03  0.00000000000E+00 0. -1.
         22    1    3    3    0    0  0.10946777236E+02  0.88341370832E+02 -0.17771389604E+03  0.19876181369E+03  0.00000000000E+00 0.  1.
         22    1    3    3    0    0  0.11664457613E+02 -0.15036396363E+02 -0.30860140757E+03  0.30918761544E+03  0.00000000000E+00 0.  1.
</event>
<event>
 7    1  0.5950675E-006  0.2531578E+02  0.7818608E-02  0.1669771E+00
          2   -1    0    0  502    0  0.00000000000E+00  0.00000000000E+00  0.12656272460E+04  0.12656272460E+04  0.00000000000E+00 0. -1.
          1   -1    0    0  501    0 -0.00000000000E+00 -0.00000000000E+00 -0.84782036037E+03  0.84782036037E+03  0.00000000000E+00 0. -1.
         25    2    1    2    0    0 -0.22834264633E+01 -0.95728910288E+01  0.11817541872E+03  0.17230394164E+03  0.12500545763E+03 0.  0.
          2    1    1    2  501    0 -0.22837453639E+02  0.56149871481E+01 -0.82044327375E+03  0.82078026464E+03  0.00000000000E+00 0. -1.
          1    1    1    2  502    0  0.25120880102E+02  0.39579038808E+01  0.11200747407E+04  0.11203634001E+04  0.00000000000E+00 0. -1.
         22    1    3    3    0    0 -0.61917637328E+02 -0.13745735415E+02  0.44761370755E+02  0.77629371801E+02  0.00000000000E+00 0. -1.
         22    1    3    3    0    0  0.59634210865E+02  0.41728443864E+01  0.73414047961E+02  0.94674569837E+02  0.00000000000E+00 0. -1.
</event>
<event>
 7    1  0.5950675E-006  0.3332690E+02  0.7818608E-02  0.1613053E+00
          2   -1    0    0  502    0  0.00000000000E+00  0.00000000000E+00  0.47274096162E+03  0.47274096162E+03  0.00000000000E+00 0. -1.
          1   -1    0    0  501    0 -0.00000000000E+00 -0.00000000000E+00 -0.31944442692E+03  0.31944442692E+03  0.00000000000E+00 0. -1.
         25    2    1    2    0    0 -0.50152366299E+01  0.22455559546E+02 -0.20311208706E+03  0.23960009325E+03  0.12499712006E+03 0.  0.
          2    1    1    2  501    0  0.29656052703E+02 -0.20806583390E+02 -0.94393868779E+02  0.10110686345E+03  0.00000000000E+00 0. -1.
          1    1    1    2  502    0 -0.24640816073E+02 -0.16489761565E+01  0.45080249054E+03  0.45147843184E+03  0.00000000000E+00 0. -1.
         22    1    3    3    0    0 -0.26902718631E+01  0.57143810468E+01 -0.21738574822E+03  0.21747748215E+03  0.00000000000E+00 0.  1.
         22    1    3    3    0    0 -0.23249647669E+01  0.16741178500E+02  0.14273661163E+02  0.22122611096E+02  0.00000000000E+00 0.  1.
</event>
<event>
 7    1  0.5950675E-006  0.1400879E+03  0.7818608E-02  0.1268692E+00
          2   -1    0    0  502    0  0.00000000000E+00  0.00000000000E+00  0.16209941359E+04  0.16209941359E+04  0.00000000000E+00 0. -1.
          1   -1    0    0  501    0 -0.00000000000E+00 -0.00000000000E+00 -0.14161177274E+04  0.14161177274E+04  0.00000000000E+00 0. -1.
         25    2    1    2    0    0  0.62777462989E+01  0.18548808189E+03  0.62674130450E+03  0.66548802218E+03  0.12499762511E+03 0.  0.
          2    1    1    2  501    0 -0.59942421067E+02 -0.12643352106E+03 -0.13915971869E+04  0.13986140496E+04  0.00000000000E+00 0. -1.
          1    1    1    2  502    0  0.53664674768E+02 -0.59054560831E+02  0.96973229093E+03  0.97300979160E+03  0.00000000000E+00 0. -1.
         22    1    3    3    0    0 -0.29104840864E-01  0.14452110676E+03  0.26909646525E+03  0.30544927362E+03  0.00000000000E+00 0. -1.
         22    1    3    3    0    0  0.63068511398E+01  0.40966975123E+02  0.35764483925E+03  0.36003874855E+03  0.00000000000E+00 0. -1.
</event>
<event>
 7    1  0.5950675E-006  0.9241714E+02  0.7818608E-02  0.1344032E+00
          2   -1    0    0  502    0  0.00000000000E+00  0.00000000000E+00  0.30687845316E+04  0.30687845316E+04  0.00000000000E+00 0. -1.
          1   -1    0    0  501    0 -0.00000000000E+00 -0.00000000000E+00 -0.13974331113E+04  0.13974331113E+04  0.00000000000E+00 0. -1.
         25    2    1    2    0    0  0.34006119550E+02  0.53321418490E+02 -0.14299114313E+03  0.20018979120E+03  0.12501958107E+03 0.  0.
          2    1    1    2  501    0 -0.90240030029E+02 -0.30254041790E+02 -0.12236907905E+04  0.12273865409E+04  0.00000000000E+00 0. -1.
          1    1    1    2  502    0  0.56233910479E+02 -0.23067376699E+02  0.30380333539E+04  0.30386413108E+04  0.00000000000E+00 0. -1.
         22    1    3    3    0    0  0.71655279355E+02  0.51029346978E+02 -0.13578288635E+03  0.16178833561E+03  0.00000000000E+00 0. -1.
         22    1    3    3    0    0 -0.37649159805E+02  0.22920715119E+01 -0.72082567762E+01  0.38401455592E+02  0.00000000000E+00 0. -1.
</event>
<event>
 7    1  0.5950675E-006  0.1984474E+03  0.7818608E-02  0.1204914E+00
          2   -1    0    0  502    0  0.00000000000E+00  0.00000000000E+00  0.32648064377E+04  0.32648064377E+04  0.00000000000E+00 0. -1.
          1   -1    0    0  501    0 -0.00000000000E+00 -0.00000000000E+00 -0.32135916758E+04  0.32135916758E+04  0.00000000000E+00 0. -1.
         25    2    1    2    0    0  0.13473688012E+03  0.12227558920E+03  0.32745126400E+01  0.22077269443E+03  0.12499805436E+03 0.  0.
          2    1    1    2  501    0  0.62110467179E+02 -0.88433063693E+02 -0.31007369549E+04  0.31026195030E+04  0.00000000000E+00 0. -1.
          1    1    1    2  502    0 -0.19684734730E+03 -0.33842525507E+02  0.31486772041E+04  0.31550059161E+04  0.00000000000E+00 0. -1.
         22    1    3    3    0    0  0.73645402815E+02  0.13064499240E+03 -0.26504179925E+02  0.15229652310E+03  0.00000000000E+00 0.  1.
         22    1    3    3    0    0  0.61091477304E+02 -0.83694031973E+01  0.29778692565E+02  0.68476171329E+02  0.00000000000E+00 0.  1.
</event>
<event>
 7    1  0.5950675E-006  0.7422421E+02  0.7818608E-02  0.1389007E+00
          2   -1    0    0  502    0  0.00000000000E+00  0.00000000000E+00  0.12745563859E+04  0.12745563859E+04  0.00000000000E+00 0. -1.
          1   -1    0    0  501    0 -0.00000000000E+00 -0.00000000000E+00 -0.17252821913E+03  0.17252821913E+03  0.00000000000E+00 0. -1.
         25    2    1    2    0    0 -0.51595158314E+02 -0.50243437245E+02  0.88751758222E+03  0.89916610454E+03  0.12500304572E+03 0.  0.
          2    1    1    2  501    0  0.40667391809E+02 -0.32482078170E+02 -0.15790888800E+03  0.16626526717E+03  0.00000000000E+00 0. -1.
          1    1    1    2  502    0  0.10927766505E+02  0.82725515415E+02  0.37241947254E+03  0.38165323333E+03  0.00000000000E+00 0. -1.
         22    1    3    3    0    0 -0.25966672977E+02  0.38129471184E+02  0.18579096917E+03  0.19143251789E+03  0.00000000000E+00 0. -1.
         22    1    3    3    0    0 -0.25628485337E+02 -0.88372908429E+02  0.70172661305E+03  0.70773358665E+03  0.00000000000E+00 0. -1.
</event>
<event>
 7    1  0.5950675E-006  0.7811862E+02  0.7818608E-02  0.1436066E+00
          2   -1    0    0  502    0  0.00000000000E+00  0.00000000000E+00  0.88890834558E+02  0.88890834558E+02  0.00000000000E+00 0. -1.
          1   -1    0    0  501    0 -0.00000000000E+00 -0.00000000000E+00 -0.12477712996E+04  0.12477712996E+04  0.00000000000E+00 0. -1.
         25    2    1    2    0    0 -0.11607348681E+02 -0.54095178506E+02 -0.14517417340E+03  0.19939898716E+03  0.12499358615E+03 0.  0.
          2    1    1    2  501    0 -0.12406737576E+02  0.78582397116E+02 -0.10691299664E+04  0.10720858200E+04  0.00000000000E+00 0. -1.
          1    1    1    2  502    0  0.24014086257E+02 -0.24487218610E+02  0.55423674857E+02  0.65177326953E+02  0.00000000000E+00 0. -1.
         22    1    3    3    0    0 -0.64246090996E+02 -0.68394328256E+01 -0.83292985016E+02  0.10541375338E+03  0.00000000000E+00 0. -1.
         22    1    3    3    0    0  0.52638742315E+02 -0.47255745680E+02 -0.61881188387E+02  0.93985233779E+02  0.00000000000E+00 0. -1.
</event>
<event>
 7    1  0.5950675E-006  0.8251175E+02  0.7818608E-02  0.1495491E+00
          2   -1    0    0  502    0  0.00000000000E+00  0.00000000000E+00  0.19717073166E+03  0.19717073166E+03  0.00000000000E+00 0. -1.
          1   -1    0    0  501    0 -0.00000000000E+00 -0.00000000000E+00 -0.51924406436E+03  0.51924406436E+03  0.00000000000E+00 0. -1.
         25    2    1    2    0    0  0.38339732865E+02 -0.72909905765E+02 -0.15504676093E+03  0.21552331209E+03  0.12500004202E+03 0.  0.
          2    1    1    2  501    0 -0.55961893255E+02  0.61200646048E+02 -0.32810828463E+03  0.33842620912E+03  0.00000000000E+00 0. -1.
          1    1    1    2  502    0  0.17622160390E+02  0.11709259717E+02  0.16108171287E+03  0.16246527481E+03  0.00000000000E+00 0. -1.
         22    1    3    3    0    0 -0.30968618408E+02 -0.40579220183E+02 -0.12192740482E+03  0.13218177062E+03  0.00000000000E+00 0.  1.
         22    1    3    3    0    0  0.69308351274E+02 -0.32330685582E+02 -0.33119356112E+02  0.83341541477E+02  0.00000000000E+00 0.  1.
</event>
<event>
 7    1  0.5950675E-006  0.3341711E+02  0.7818608E-02  0.1578310E+00
          2   -1    0    0  502    0  0.00000000000E+00  0.00000000000E+00  0.77677060633E+02  0.77677060633E+02  0.00000000000E+00 0. -1.
          1   -1    0    0  501    0 -0.00000000000E+00 -0.00000000000E+00 -0.18498972692E+03  0.18498972692E+03  0.00000000000E+00 0. -1.
         25    2    1    2    0    0  0.42295429333E+02  0.87710332034E+01 -0.12821961886E+03  0.18421514169E+03  0.12501645253E+03 0.  0.
          2    1    1    2  501    0 -0.14120999764E+02 -0.26911403115E+02 -0.10864532855E+02  0.32274824959E+02  0.00000000000E+00 0. -1.
          1    1    1    2  502    0 -0.28174429568E+02  0.18140369912E+02  0.31771485427E+02  0.46176820899E+02  0.00000000000E+00 0. -1.
         22    1    3    3    0    0  0.31192010398E+02 -0.48310311204E+01  0.18408306229E+02  0.36539651238E+02  0.00000000000E+00 0.  1.
         22    1    3    3    0    0  0.11103418935E+02  0.13602064324E+02 -0.14662792509E+03  0.14767549045E+03  0.00000000000E+00 0.  1.
</event>
<event>
 7    1  0.5950675E-006  0.7932159E+02  0.7818608E-02  0.1331063E+00
          2   -1    0    0  502    0  0.00000000000E+00  0.00000000000E+00  0.13396604878E+04  0.13396604878E+04  0.00000000000E+00 0. -1.
          1   -1    0    0  501    0 -0.00000000000E+00 -0.00000000000E+00 -0.41286735055E+03  0.41286735055E+03  0.00000000000E+00 0. -1.
         25    2    1    2    0    0 -0.90086987580E+02 -0.12601932753E+00 -0.23727635924E+03  0.28291312829E+03  0.12499634511E+03 0.  0.
          2    1    1    2  501    0  0.51769584007E+02  0.69518575886E+02 -0.13917638371E+03  0.16396032448E+03  0.00000000000E+00 0. -1.
          1    1    1    2  502    0  0.38317403572E+02 -0.69392556559E+02  0.13032458802E+04  0.13056543856E+04  0.00000000000E+00 0. -1.
         22    1    3    3    0    0  0.78038229643E+01 -0.35872701879E+02 -0.19692685029E+02  0.41659959633E+02  0.00000000000E+00 0.  1.
         22    1    3    3    0    0 -0.97890810544E+02  0.35746682551E+02 -0.21758367421E+03  0.24125316866E+03  0.00000000000E+00 0.  1.
</event>
<event>
 7    1  0.5950675E-006  0.1521299E+03  0.7818608E-02  0.1232198E+00
          2   -1    0    0  502    0  0.00000000000E+00  0.00000000000E+00  0.13417642377E+03  0.13417642377E+03  0.00000000000E+00 0. -1.
          1   -1    0    0  501    0 -0.00000000000E+00 -0.00000000000E+00 -0.12724113169E+04  0.12724113169E+04  0.00000000000E+00 0. -1.
         25    2    1    2    0    0  0.30856497272E+02 -0.39698226050E+01 -0.37381418155E+03  0.39538693603E+03  0.12500361569E+03 0.  0.
          2    1    1    2  501    0 -0.11551487254E+03  0.13036790880E+03 -0.82814428960E+03  0.84626381337E+03  0.00000000000E+00 0. -1.
          1    1    1    2  502    0  0.84658375273E+02 -0.12639808620E+03  0.63723578011E+02  0.16493699128E+03  0.00000000000E+00 0. -1.
         22    1    3    3    0    0 -0.12952537447E+02  0.50058245878E+02 -0.22857799231E+03  0.23435335452E+03  0.00000000000E+00 0. -1.
         22    1    3    3    0    0  0.43809034719E+02 -0.54028068483E+02 -0.14523618924E+03  0.16103358150E+03  0.00000000000E+00 0. -1.
</event>
<event>
 7    1  0.5950675E-006  0.7437956E+02  0.7818608E-02  0.1403678E+00
          2   -1    0    0  502    0  0.00000000000E+00  0.00000000000E+00  0.79114773262E+03  0.79114773262E+03  0.00000000000E+00 0. -1.
          1   -1    0    0  501    0 -0.00000000000E+00 -0.00000000000E+00 -0.48333263960E+03  0.48333263960E+03  0.00000000000E+00 0. -1.
         25    2    1    2    0    0 -0.14704759545E+01  0.35941952670E+02 -0.11661635333E+03  0.17469431610E+03  0.12499897580E+03 0.  0.
          2    1    1    2  501    0 -0.12801109631E+02 -0.79896593368E+02 -0.33211475259E+03  0.34182969872E+03  0.00000000000E+00 0. -1.
          1    1    1    2  502    0  0.14271585586E+02  0.43954640698E+02  0.75654619895E+03  0.75795635741E+03  0.00000000000E+00 0. -1.
         22    1    3    3    0    0  0.15567040251E+02  0.19556825348E+02  0.22471549543E+02  0.33612091555E+02  0.00000000000E+00 0.  1.
         22    1    3    3    0    0 -0.17037516206E+02  0.16385127322E+02 -0.13908790288E+03  0.14108222454E+03  0.00000000000E+00 0.  1.
</event>
<event>
 7    1  0.5950675E-006  0.5938796E+02  0.7818608E-02  0.1529735E+00
          2   -1    0    0  502    0  0.00000000000E+00  0.00000000000E+00  0.17832132436E+04  0.17832132436E+04  0.00000000000E+00 0. -1.
          1   -1    0    0  501    0 -0.00000000000E+00 -0.00000000000E+00 -0.53590718809E+03  0.53590718809E+03  0.00000000000E+00 0. -1.
         25    2    1    2    0    0  0.71326625060E+02  0.34555022488E+02 -0.34926131554E+03  0.37932839955E+03  0.12500012460E+03 0.  0.
          2    1    1    2  501    0 -0.14168229241E+02 -0.18529364409E+02 -0.17031896400E+03  0.17190877104E+03  0.00000000000E+00 0. -1.
          1    1    1    2  502    0 -0.57158395820E+02 -0.16025658079E+02  0.17668863350E+04  0.17678832611E+04  0.00000000000E+00 0. -1.
         22    1    3    3    0    0  0.78775713165E+02  0.23954033081E+02 -0.99143806028E+02  0.12887553282E+03  0.00000000000E+00 0. -1.
         22    1    3    3    0    0 -0.74490881041E+01  0.10600989406E+02 -0.25011750951E+03  0.25045286673E+03  0.00000000000E+00 0. -1.
</event>
<event>
 7    1  0.5950675E-006  0.9480613E+02  0.7818608E-02  0.1348306E+00
          2   -1    0    0  502    0  0.00000000000E+00  0.00000000000E+00  0.10368476864E+03  0.10368476864E+03  0.00000000000E+00 0. -1.
          1   -1    0    0  501    0 -0.00000000000E+00 -0.00000000000E+00 -0.68833133708E+03  0.68833133708E+03  0.00000000000E+00 0. -1.
         25    2    1    2    0    0 -0.13545437097E+03  0.57414820978E+02 -0.26016321194E+02  0.19479552020E+03  0.12499638971E+03 0.  0.
          2    1    1    2  501    0  0.89201262771E+02 -0.23906106096E+02 -0.52030794948E+03  0.52843990148E+03  0.00000000000E+00 0. -1.
          1    1    1    2  502    0  0.46253108199E+02 -0.33508714882E+02 -0.38322297765E+02  0.68780684041E+02  0.00000000000E+00 0. -1.
         22    1    3    3    0    0 -0.15517184556E+03  0.38220620940E+02 -0.38802324462E+02  0.16445284401E+03  0.00000000000E+00 0. -1.
         22    1    3    3    0    0  0.19717474586E+02  0.19194200038E+02  0.12786003268E+02  0.30342676196E+02  0.00000000000E+00 0. -1.
</event>
<event>
 7    1  0.5950675E-006  0.6272358E+02  0.7818608E-02  0.1473545E+00
          2   -1    0    0  502    0  0.00000000000E+00  0.00000000000E+00  0.83781688518E+03  0.83781688518E+03  0.00000000000E+00 0. -1.
          1   -1    0    0  501    0 -0.00000000000E+00 -0.00000000000E+00 -0.16353687309E+03  0.16353687309E+03  0.00000000000E+00 0. -1.
         25    2    1    2    0    0  0.83888836382E+01  0.38561915270E+02  0.39612103771E+03  0.41724709094E+03  0.12500345477E+03 0.  0.
          2    1    1    2  501    0  0.14652676249E+02 -0.61436984681E+02 -0.14580715306E+03  0.15889911860E+03  0.00000000000E+00 0. -1.
          1    1    1    2  502    0 -0.23041559887E+02  0.22875069411E+02  0.42396612744E+03  0.42520754874E+03  0.00000000000E+00 0. -1.
         22    1    3    3    0    0  0.32518403981E+02 -0.21362047598E+02  0.41879807179E+02  0.57163816566E+02  0.00000000000E+00 0.  1.
         22    1    3    3    0    0 -0.24129520343E+02  0.59923962868E+02  0.35424123053E+03  0.36008327437E+03  0.00000000000E+00 0.  1.
</event>
<event>
 7    1  0.5950675E-006  0.1045133E+03  0.7818608E-02  0.1375800E+00
          2   -1    0    0  502    0  0.00000000000E+00  0.00000000000E+00  0.37443570381E+03  0.37443570381E+03  0.00000000000E+00 0. -1.
          1   -1    0    0  501    0 -0.00000000000E+00 -0.00000000000E+00 -0.54542984319E+03  0.54542984319E+03  0.00000000000E+00 0. -1.
         25    2    1    2    0    0  0.72937759611E+01  0.65518766120E+02  0.30325048453E+03  0.33456206311E+03  0.12500003929E+03 0.  0.
          2    1    1    2  501    0 -0.27009112126E+02 -0.10163966678E+03 -0.51604140328E+03  0.52664869116E+03  0.00000000000E+00 0. -1.
          1    1    1    2  502    0  0.19715336164E+02  0.36120900665E+02  0.41796779369E+02  0.58654792733E+02  0.00000000000E+00 0. -1.
         22    1    3    3    0    0  0.37786486572E+02  0.84309508461E+02  0.14221028922E+03  0.16958678647E+03  0.00000000000E+00 0.  1.
         22    1    3    3    0    0 -0.30492710611E+02 -0.18790742341E+02  0.16104019531E+03  0.16497527664E+03  0.00000000000E+00 0.  1.
</event>
<event>
 7    1  0.5950675E-006  0.1813552E+03  0.7818608E-02  0.1186344E+00
          2   -1    0    0  502    0  0.00000000000E+00  0.00000000000E+00  0.97634905507E+03  0.97634905507E+03  0.00000000000E+00 0. -1.
          1   -1    0    0  501    0 -0.00000000000E+00 -0.00000000000E+00 -0.74491288401E+03  0.74491288401E+03  0.00000000000E+00 0. -1.
         25    2    1    2    0    0 -0.38695256247E+02  0.19259225162E+03  0.12443756201E+03  0.26400587445E+03  0.12500118666E+03 0.  0.
          2    1    1    2  501    0  0.15242005523E+03 -0.10281070362E+03 -0.65566330503E+03  0.68095248261E+03  0.00000000000E+00 0. -1.
          1    1    1    2  502    0 -0.11372479899E+03 -0.89781548001E+02  0.76266191408E+03  0.77630358202E+03  0.00000000000E+00 0. -1.
         22    1    3    3    0    0 -0.10534760571E+02  0.20265515231E+03  0.10911879727E+03  0.23040617148E+03  0.00000000000E+00 0. -1.
         22    1    3    3    0    0 -0.28160495675E+02 -0.10062900685E+02  0.15318764741E+02  0.33599702976E+02  0.00000000000E+00 0. -1.
</event>
<event>
 7    1  0.5950675E-006  0.5908211E+02  0.7818608E-02  0.1459302E+00
          2   -1    0    0  502    0  0.00000000000E+00  0.00000000000E+00  0.61829120239E+03  0.61829120239E+03  0.00000000000E+00 0. -1.
          1   -1    0    0  501    0 -0.00000000000E+00 -0.00000000000E+00 -0.61511886323E+03  0.61511886323E+03  0.00000000000E+00 0. -1.
         25    2    1    2    0    0  0.75966786631E+02 -0.28124708467E+01 -0.12206086737E+02  0.14680835916E+03  0.12499937241E+03 0.  0.
          2    1    1    2  501    0 -0.25814456509E+02 -0.28145733005E+02 -0.53335077504E+03  0.53471638995E+03  0.00000000000E+00 0. -1.
          1    1    1    2  502    0 -0.50152330123E+02  0.30958203851E+02  0.54872920094E+03  0.55188531650E+03  0.00000000000E+00 0. -1.
         22    1    3    3    0    0  0.35294123969E+02  0.47027836121E+02 -0.45524324155E+02  0.74362333522E+02  0.00000000000E+00 0.  1.
         22    1    3    3    0    0  0.40672662662E+02 -0.49840306968E+02  0.33318237418E+02  0.72446025642E+02  0.00000000000E+00 0.  1.
</event>
<event>
 7    1  0.5950675E-006  0.5861434E+02  0.7818608E-02  0.1432418E+00
          2   -1    0    0  502    0  0.00000000000E+00  0.00000000000E+00  0.83065905536E+03  0.83065905536E+03  0.00000000000E+00 0. -1.
          1   -1    0    0  501    0 -0.00000000000E+00 -0.00000000000E+00 -0.16849462761E+03  0.16849462761E+03  0.00000000000E+00 0. -1.
         25    2    1    2    0    0 -0.28348544269E+02  0.12326368188E+02 -0.79806749791E+02  0.15149049337E+03  0.12499869181E+03 0.  0.
          2    1    1    2  501    0  0.47863591610E+02  0.42943908095E+02 -0.31756332827E+02  0.71718667855E+02  0.00000000000E+00 0. -1.
          1    1    1    2  502    0 -0.19515047341E+02 -0.55270276283E+02  0.77372751037E+03  0.77594452174E+03  0.00000000000E+00 0. -1.
         22    1    3    3    0    0 -0.20373835169E+02 -0.55358515740E+02 -0.49055773370E+02  0.76721100914E+02  0.00000000000E+00 0. -1.
         22    1    3    3    0    0 -0.79747091000E+01  0.67684883928E+02 -0.30750976421E+02  0.74769392457E+02  0.00000000000E+00 0. -1.
</event>
<event>
 7    1  0.5950675E-006  0.1204103E+03  0.7818608E-02  0.1272648E+00
          2   -1    0    0  502    0  0.00000000000E+00  0.00000000000E+00  0.11623801170E+04  0.11623801170E+04  0.00000000000E+00 0. -1.
          1   -1    0    0  501    0 -0.00000000000E+00 -0.00000000000E+00 -0.12166627959E+03  0.12166627959E+03  0.00000000000E+00 0. -1.
         25    2    1    2    0    0 -0.57286111472E+02 -0.20326510003E+01  0.12848309516E+03  0.18819994656E+03  0.12500193560E+03 0.  0.
          2    1    1    2  501    0  0.13846208749E+03  0.39380877432E+02 -0.31942120335E+02  0.14745474639E+03  0.00000000000E+00 0. -1.
          1    1    1    2  502    0 -0.81175976022E+02 -0.37348226432E+02  0.94417286263E+03  0.94839170369E+03  0.00000000000E+00 0. -1.
         22    1    3    3    0    0 -0.72627520658E+02  0.20472846531E+02  0.13967389142E+03  0.15875355160E+03  0.00000000000E+00 0. -1.
         22    1    3    3    0    0  0.15341409186E+02 -0.22505497532E+02 -0.11190796257E+02  0.29446394955E+02  0.00000000000E+00 0. -1.
</event>
<event>
 7    1  0.5950675E-006  0.9556249E+02  0.7818608E-02  0.1309607E+00
          2   -1    0    0  502    0  0.00000000000E+00  0.00000000000E+00  0.25550831465E+04  0.25550831465E+04  0.00000000000E+00 0. -1.
          1   -1    0    0  501    0 -0.00000000000E+00 -0.00000000000E+00 -0.10893202606E+04  0.10893202606E+04  0.00000000000E+00 0. -1.
         25    2    1    2    0    0 -0.10130750818E+03  0.46123100358E+02 -0.18445273349E+02  0.16839164563E+03  0.12499986643E+03 0.  0.
          2    1    1    2  501    0  0.34525233519E+02 -0.89609533134E+02 -0.99294457246E+03  0.99757745772E+03  0.00000000000E+00 0. -1.
          1    1    1    2  502    0  0.66782274661E+02  0.43486432777E+02  0.24771527316E+04  0.24784343037E+04  0.00000000000E+00 0. -1.
         22    1    3    3    0    0 -0.70342285229E+02  0.86292724878E+02  0.71891967610E+01  0.11156234135E+03  0.00000000000E+00 0.  1.
         22    1    3    3    0    0 -0.30965222951E+02 -0.40169624520E+02 -0.25634470110E+02  0.56829304275E+02  0.00000000000E+00 0.  1.
</event>
<event>
 7    1  0.5950675E-006  0.1227181E+03  0.7818608E-02  0.1316430E+00
          2   -1    0    0  502    0  0.00000000000E+00  0.00000000000E+00  0.71903092545E+03  0.71903092545E+03  0.00000000000E+00 0. -1.
          1   -1    0    0  501    0 -0.00000000000E+00 -0.00000000000E+00 -0.12664821776E+04  0.12664821776E+04  0.00000000000E+00 0. -1.
         25    2    1    2    0    0  0.77922524861E+02  0.24136203359E+02  0.61143945541E+02  0.16130315604E+03  0.12500259949E+03 0.  0.
          2    1    1    2  501    0 -0.12345340238E+03  0.12353996465E+02 -0.12118275049E+04  0.12181622493E+04  0.00000000000E+00 0. -1.
          1    1    1    2  502    0  0.45530877522E+02 -0.36490199824E+02  0.60323230723E+03  0.60604769777E+03  0.00000000000E+00 0. -1.
         22    1    3    3    0    0  0.17386051833E+02 -0.13980435511E+02 -0.34975189541E+02  0.41484831672E+02  0.00000000000E+00 0. -1.
         22    1    3    3    0    0  0.60536473028E+02  0.38116638870E+02  0.96119135082E+02  0.11981832437E+03  0.00000000000E+00 0. -1.
</event>
<event>
 7    1  0.5950675E-006  0.1059232E+03  0.7818608E-02  0.1297313E+00
          2   -1    0    0  502    0  0.00000000000E+00  0.00000000000E+00  0.14916894764E+04  0.14916894764E+04  0.00000000000E+00 0. -1.
          1   -1    0    0  501    0 -0.00000000000E+00 -0.00000000000E+00 -0.93457104041E+03  0.93457104041E+03  0.00000000000E+00 0. -1.
         25    2    1    2    0    0  0.11405133521E+03  0.13134539906E+03 -0.30466459316E+03  0.37243085307E+03  0.12499962031E+03 0.  0.
          2    1    1    2  501    0 -0.78245063125E+02 -0.59274244611E+02 -0.59086035304E+03  0.59895883228E+03  0.00000000000E+00 0. -1.
          1    1    1    2  502    0 -0.35806272089E+02 -0.72071154448E+02  0.14526433822E+04  0.14548708315E+04  0.00000000000E+00 0. -1.
         22    1    3    3    0    0  0.64736568865E+02  0.31920892430E+02 -0.33779159718E+02  0.79691896408E+02  0.00000000000E+00 0. -1.
         22    1    3    3    0    0  0.49314766349E+02  0.99424506629E+02 -0.27088543344E+03  0.29273895667E+03  0.00000000000E+00 0. -1.
</event>
<event>
 7    1  0.5950675E-006  0.2622279E+03  0.7818608E-02  0.1152573E+00
          2   -1    0    0  502    0  0.00000000000E+00  0.00000000000E+00  0.21922426054E+04  0.21922426054E+04  0.00000000000E+00 0. -1.
          1   -1    0    0  501    0 -0.00000000000E+00 -0.00000000000E+00 -0.22641967496E+04  0.22641967496E+04  0.00000000000E+00 0. -1.
         25    2    1    2    0    0 -0.21948562710E+03  0.78000902464E+02 -0.39811719454E+01  0.26438289528E+03  0.12499753715E+03 0.  0.
          2    1    1    2  501    0  0.59397352383E+02  0.13502608831E+03 -0.21188306008E+04  0.21239593228E+04  0.00000000000E+00 0. -1.
          1    1    1    2  502    0  0.16008827472E+03 -0.21302699078E+03  0.20508576286E+04  0.20680971368E+04  0.00000000000E+00 0. -1.
         22    1    3    3    0    0 -0.20212842818E+02  0.41506226620E+02 -0.36948018843E+02  0.59131057486E+02  0.00000000000E+00 0.  1.
         22    1    3    3    0    0 -0.19927278429E+03  0.36494675843E+02  0.32966846898E+02  0.20525183779E+03  0.00000000000E+00 0.  1.
</event>
<event>
 7    1  0.5950675E-006  0.1428601E+03  0.7818608E-02  0.1302686E+00
          2   -1    0    0  502    0  0.00000000000E+00  0.00000000000E+00  0.39012495711E+03  0.39012495711E+03  0.00000000000E+00 0. -1.
          1   -1    0    0  501    0 -0.00000000000E+00 -0.00000000000E+00 -0.27366821026E+03  0.27366821026E+03  0.00000000000E+00 0. -1.
         25    2    1    2    0    0  0.16473474203E+03 -0.76549951290E+01 -0.67202473962E+00  0.20693231091E+03  0.12499758198E+03 0.  0.
          2    1    1    2  501    0 -0.12869050474E+03  0.51533851973E+02 -0.13793153830E+03  0.19555585690E+03  0.00000000000E+00 0. -1.
          1    1    1    2  502    0 -0.36044237288E+02 -0.43878856844E+02  0.25506030989E+03  0.26130499957E+03  0.00000000000E+00 0. -1.
         22    1    3    3    0    0  0.15327992125E+03 -0.41909772835E+02  0.27317978416E+02  0.16123720186E+03  0.00000000000E+00 0. -1.
         22    1    3    3    0    0  0.11454820775E+02  0.34254777706E+02 -0.27990003155E+02  0.45695109053E+02  0.00000000000E+00 0. -1.
</event>
<event>
 7    1  0.5950675E-006  0.2022417E+03  0.7818608E-02  0.1268675E+00
          2   -1    0    0  502    0  0.00000000000E+00  0.00000000000E+00  0.12021863982E+03  0.12021863982E+03  0.00000000000E+00 0. -1.
          1   -1    0    0  501    0 -0.00000000000E+00 -0.00000000000E+00 -0.11800549132E+04  0.11800549132E+04  0.00000000000E+00 0. -1.
         25    2    1    2    0    0  0.10953080260E+02  0.24149202630E+03 -0.48349708700E+03  0.55482610266E+03  0.12499680921E+03 0.  0.
          2    1    1    2  501    0 -0.17217979226E+02 -0.18656640749E+03 -0.63664252482E+03  0.66363935057E+03  0.00000000000E+00 0. -1.
          1    1    1    2  502    0  0.62648989659E+01 -0.54925618819E+02  0.60303338455E+02  0.81808099785E+02  0.00000000000E+00 0. -1.
         22    1    3    3    0    0  0.44041331246E+02  0.41360547551E+02 -0.59467662877E+02  0.84774622852E+02  0.00000000000E+00 0. -1.
         22    1    3    3    0    0 -0.33088250986E+02  0.20013147875E+03 -0.42402942413E+03  0.47005147980E+03  0.00000000000E+00 0. -1.
</event>
<event>
 7    1  0.5950675E-006  0.1413953E+03  0.7818608E-02  0.1376452E+00
          2   -1    0    0  502    0  0.00000000000E+00  0.00000000000E+00  0.18897643760E+03  0.18897643760E+03  0.00000000000E+00 0. -1.
          1   -1    0    0  501    0 -0.00000000000E+00 -0.00000000000E+00 -0.26175427353E+03  0.26175427353E+03  0.00000000000E+00 0. -1.
         25    2    1    2    0    0 -0.99942750800E+02 -0.65467228040E+02  0.22991850802E+02  0.17443657837E+03  0.12499993314E+03 0.  0.
          2    1    1    2  501    0  0.11774237711E+03  0.89932144841E+02 -0.15211230390E+03  0.21234220268E+03  0.00000000000E+00 0. -1.
          1    1    1    2  502    0 -0.17799626309E+02 -0.24464916801E+02  0.56342617166E+02  0.63951930072E+02  0.00000000000E+00 0. -1.
         22    1    3    3    0    0  0.17670181186E+02  0.20217997015E+02 -0.14135610112E+01  0.26888675334E+02  0.00000000000E+00 0. -1.
         22    1    3    3    0    0 -0.11761293199E+03 -0.85685225056E+02  0.24405411813E+02  0.14754790303E+03  0.00000000000E+00 0. -1.
</event>
<event>
 7    1  0.5950675E-006  0.4594051E+02  0.7818608E-02  0.1585348E+00
          2   -1    0    0  502    0  0.00000000000E+00  0.00000000000E+00  0.90218912058E+02  0.90218912058E+02  0.00000000000E+00 0. -1.
          1   -1    0    0  501    0 -0.00000000000E+00 -0.00000000000E+00 -0.78904270586E+03  0.78904270586E+03  0.00000000000E+00 0. -1.
         25    2    1    2    0    0  0.28705972581E+02  0.71798727381E-01 -0.50427582990E+03  0.52033042697E+03  0.12500241033E+03 0.  0.
          2    1    1    2  501    0  0.14948557773E+02  0.14988581336E+02 -0.26980564009E+03  0.27063480998E+03  0.00000000000E+00 0. -1.
          1    1    1    2  502    0 -0.43654530354E+02 -0.15060380063E+02  0.75257676186E+02  0.88296380973E+02  0.00000000000E+00 0. -1.
         22    1    3    3    0    0 -0.28729250632E+02 -0.41538094460E+02 -0.29681566622E+03  0.30108192049E+03  0.00000000000E+00 0.  1.
         22    1    3    3    0    0  0.57435223214E+02  0.41609893188E+02 -0.20746016368E+03  0.21924850648E+03  0.00000000000E+00 0.  1.
</event>
<event>
 7    1  0.5950675E-006  0.1018932E+03  0.7818608E-02  0.1278997E+00
          2   -1    0    0  502    0  0.00000000000E+00  0.00000000000E+00  0.80027030008E+03  0.80027030008E+03  0.00000000000E+00 0. -1.
          1   -1    0    0  501    0 -0.00000000000E+00 -0.00000000000E+00 -0.15481821229E+04  0.15481821229E+04  0.00000000000E+00 0. -1.
         25    2    1    2    0    0  0.29485961629E+02 -0.66670768724E+02  0.60704506728E+02  0.15692189819E+03  0.12500012664E+03 0.  0.
          2    1    1    2  501    0  0.69421228091E+02  0.76184068932E+02 -0.14947198563E+04  0.14982692576E+04  0.00000000000E+00 0. -1.
          1    1    1    2  502    0 -0.98907189720E+02 -0.95133002082E+01  0.68610352682E+03  0.69326126718E+03  0.00000000000E+00 0. -1.
         22    1    3    3    0    0  0.35704928049E+02  0.23434981269E+01 -0.27231077767E+02  0.44965158365E+02  0.00000000000E+00 0.  1.
         22    1    3    3    0    0 -0.62189664201E+01 -0.69014266851E+02  0.87935584495E+02  0.11195673983E+03  0.00000000000E+00 0.  1.
</event>
<event>
 7    1  0.5950675E-006  0.1470752E+03  0.7818608E-02  0.1372916E+00
          2   -1    0    0  502    0  0.00000000000E+00  0.00000000000E+00  0.12501948140E+03  0.12501948140E+03  0.00000000000E+00 0. -1.
          1   -1    0    0  501    0 -0.00000000000E+00 -0.00000000000E+00 -0.97448174908E+03  0.97448174908E+03  0.00000000000E+00 0. -1.
         25    2    1    2    0    0  0.11636606245E+03  0.59109875022E+02 -0.30753990057E+03  0.35670860036E+03  0.12500078925E+03 0.  0.
          2    1    1    2  501    0 -0.12638478521E+03 -0.87328392695E+02 -0.63068001759E+03  0.64911990162E+03  0.00000000000E+00 0. -1.
          1    1    1    2  502    0  0.10018722758E+02  0.28218517673E+02  0.88757650476E+02  0.93672728493E+02  0.00000000000E+00 0. -1.
         22    1    3    3    0    0  0.83205426961E+02  0.81188240677E+02 -0.12846907166E+03  0.17325985072E+03  0.00000000000E+00 0. -1.
         22    1    3    3    0    0  0.33160635486E+02 -0.22078365655E+02 -0.17907082891E+03  0.18344874964E+03  0.00000000000E+00 0. -1.
</event>
<event>
 7    1  0.5950675E-006  0.1146190E+03  0.7818608E-02  0.1432921E+00
          2   -1    0    0  502    0  0.00000000000E+00  0.00000000000E+00  0.13622221735E+03  0.13622221735E+03  0.00000000000E+00 0. -1.
          1   -1    0    0  501    0 -0.00000000000E+00 -0.00000000000E+00 -0.24621190488E+03  0.24621190488E+03  0.00000000000E+00 0. -1.
         25    2    1    2    0    0  0.10735380030E+03 -0.75877065729E+02 -0.44395010964E+02  0.18675479860E+03  0.12499708100E+03 0.  0.
          2    1    1    2  501    0 -0.84339778534E+02  0.69299789549E+02 -0.10377601827E+03  0.15061580608E+03  0.00000000000E+00 0. -1.
          1    1    1    2  502    0 -0.23014021764E+02  0.65772761798E+01  0.38181341705E+02  0.45063517551E+02  0.00000000000E+00 0. -1.
         22    1    3    3    0    0  0.65812778525E+02 -0.72444398468E+02  0.29232472503E+02  0.10214719837E+03  0.00000000000E+00 0. -1.
         22    1    3    3    0    0  0.41541021774E+02 -0.34326672609E+01 -0.73627483467E+02  0.84607600227E+02  0.00000000000E+00 0. -1.
</event>
<event>
 7    1  0.5950675E-006  0.5652003E+02  0.7818608E-02  0.1457123E+00
          2   -1    0    0  502    0  0.00000000000E+00  0.00000000000E+00  0.32247202073E+04  0.32247202073E+04  0.00000000000E+00 0. -1.
          1   -1    0    0  501    0 -0.00000000000E+00 -0.00000000000E+00 -0.37243407286E+03  0.37243407286E+03  0.00000000000E+00 0. -1.
         25    2    1    2    0    0  0.50865671264E+02 -0.76437572190E+02  0.55559950324E+03  0.57684456629E+03  0.12501530586E+03 0.  0.
          2    1    1    2  501    0 -0.92795022736E+01  0.39485030695E+02 -0.36038269921E+03  0.36265805754E+03  0.00000000000E+00 0. -1.
          1    1    1    2  502    0 -0.41586168991E+02  0.36952541495E+02  0.26570693304E+04  0.26576516563E+04  0.00000000000E+00 0. -1.
         22    1    3    3    0    0  0.51272904304E+01  0.98638911879E+01  0.33967107693E+03  0.33985294755E+03  0.00000000000E+00 0.  1.
         22    1    3    3    0    0  0.45738380834E+02 -0.86301463378E+02  0.21592842631E+03  0.23699161873E+03  0.00000000000E+00 0.  1.
</event>
<event>
 7    1  0.5950675E-006  0.8914610E+02  0.7818608E-02  0.1387267E+00
          2   -1    0    0  502    0  0.00000000000E+00  0.00000000000E+00  0.70489662032E+03  0.70489662032E+03  0.00000000000E+00 0. -1.
          1   -1    0    0  501    0 -0.00000000000E+00 -0.00000000000E+00 -0.62178910009E+03  0.62178910009E+03  0.00000000000E+00 0. -1.
         25    2    1    2    0    0 -0.35383091273E+02 -0.34108937764E+02 -0.50914216928E+02  0.14363955649E+03  0.12499872768E+03 0.  0.
          2    1    1    2  501    0  0.60903578213E+02  0.69886594966E+02 -0.51967276105E+03  0.52787608448E+03  0.00000000000E+00 0. -1.
          1    1    1    2  502    0 -0.25520486940E+02 -0.35777657201E+02  0.65369449820E+03  0.65517007944E+03  0.00000000000E+00 0. -1.
         22    1    3    3    0    0 -0.78737752803E+02 -0.19930484316E+01 -0.19254088723E+02  0.81082216861E+02  0.00000000000E+00 0. -1.
         22    1    3    3    0    0  0.43354661530E+02 -0.32115889333E+02 -0.31660128206E+02  0.62557339634E+02  0.00000000000E+00 0. -1.
</event>
<event>
 7    1  0.5950675E-006  0.5024917E+02  0.7818608E-02  0.1446206E+00
          2   -1    0    0  502    0  0.00000000000E+00  0.00000000000E+00  0.15903979132E+04  0.15903979132E+04  0.00000000000E+00 0. -1.
          1   -1    0    0  501    0 -0.00000000000E+00 -0.00000000000E+00 -0.85994673499E+02  0.85994673499E+02  0.00000000000E+00 0. -1.
         25    2    1    2    0    0  0.41794277756E+02  0.40868063459E+02  0.80556524792E+03  0.81729884433E+03  0.12500028808E+03 0.  0.
          2    1    1    2  501    0  0.68009259235E+01 -0.49937945097E+02 -0.71331287630E+02  0.87339587524E+02  0.00000000000E+00 0. -1.
          1    1    1    2  502    0 -0.48595203680E+02  0.90698816380E+01  0.77016927944E+03  0.77175415488E+03  0.00000000000E+00 0. -1.
         22    1    3    3    0    0  0.29989073937E+01 -0.24259522620E+02  0.55450143624E+03  0.55503996314E+03  0.00000000000E+00 0. -1.
         22    1    3    3    0    0  0.38795370363E+02  0.65127586079E+02  0.25106381168E+03  0.26225888119E+03  0.00000000000E+00 0. -1.
</event>
<event>
 7    1  0.5950675E-006  0.9592908E+02  0.7818608E-02  0.1364318E+00
          2   -1    0    0  502    0  0.00000000000E+00  0.00000000000E+00  0.60224979329E+02  0.60224979329E+02  0.00000000000E+00 0. -1.
          1   -1    0    0  501    0 -0.00000000000E+00 -0.00000000000E+00 -0.56790691789E+03  0.56790691789E+03  0.00000000000E+00 0. -1.
         25    2    1    2    0    0  0.43641671787E+02 -0.32815129577E+02 -0.95499493081E+02  0.16653080275E+03  0.12502370511E+03 0.  0.
          2    1    1    2  501    0 -0.79057164474E+02  0.67116428410E+02 -0.39653893785E+03  0.40987532184E+03  0.00000000000E+00 0. -1.
          1    1    1    2  502    0  0.35415492687E+02 -0.34301298833E+02 -0.15643507628E+02  0.51725772636E+02  0.00000000000E+00 0. -1.
         22    1    3    3    0    0  0.80298335483E+02 -0.93582311186E+01 -0.26727023021E+02  0.85145363530E+02  0.00000000000E+00 0. -1.
         22    1    3    3    0    0 -0.36656663696E+02 -0.23456898458E+02 -0.68772470060E+02  0.81385439219E+02  0.00000000000E+00 0. -1.
</event>
<event>
 7    1  0.5950675E-006  0.1083125E+03  0.7818608E-02  0.1440936E+00
          2   -1    0    0  502    0  0.00000000000E+00  0.00000000000E+00  0.19452168801E+04  0.19452168801E+04  0.00000000000E+00 0. -1.
          1   -1    0    0  501    0 -0.00000000000E+00 -0.00000000000E+00 -0.42695836177E+03  0.42695836177E+03  0.00000000000E+00 0. -1.
         25    2    1    2    0    0  0.48930106418E+02  0.99041889158E+02 -0.25039967835E+03  0.30087985068E+03  0.12500093804E+03 0.  0.
          2    1    1    2  501    0 -0.23047696980E+02  0.61351781769E+01 -0.14884081485E+03  0.15073959305E+03  0.00000000000E+00 0. -1.
          1    1    1    2  502    0 -0.25882409439E+02 -0.10517706733E+03  0.19174990115E+04  0.19205557981E+04  0.00000000000E+00 0. -1.
         22    1    3    3    0    0  0.37035486140E+02  0.12623906454E+03 -0.22964380980E+03  0.26465866325E+03  0.00000000000E+00 0.  1.
         22    1    3    3    0    0  0.11894620278E+02 -0.27197175386E+02 -0.20755868542E+02  0.36221187439E+02  0.00000000000E+00 0.  1.
</event>
<event>
 7    1  0.5950675E-006  0.1237150E+03  0.7818608E-02  0.1431661E+00
          2   -1    0    0  502    0  0.00000000000E+00  0.00000000000E+00  0.10405684876E+04  0.10405684876E+04  0.00000000000E+00 0. -1.
          1   -1    0    0  501    0 -0.00000000000E+00 -0.00000000000E+00 -0.50048968391E+03  0.50048968391E+03  0.00000000000E+00 0. -1.
         25    2    1    2    0    0 -0.91910568926E+02 -0.68948632253E+02  0.30264967478E+03  0.34701985701E+03  0.12499795577E+03 0.  0.
          2    1    1    2  501    0  0.85003202987E+02  0.90244161807E+02 -0.47009121063E+03  0.48616386083E+03  0.00000000000E+00 0. -1.
          1    1    1    2  502    0  0.69073659393E+01 -0.21295529554E+02  0.70752033951E+03  0.70787445363E+03  0.00000000000E+00 0. -1.
         22    1    3    3    0    0 -0.74725703631E+02  0.21400838898E+02  0.14404462319E+03  0.16367889344E+03  0.00000000000E+00 0.  1.
         22    1    3    3    0    0 -0.17184865295E+02 -0.90349471150E+02  0.15860505159E+03  0.18334096357E+03  0.00000000000E+00 0.  1.
</event>
<event>
 7    1  0.5950675E-006  0.1089144E+03  0.7818608E-02  0.1307030E+00
          2   -1    0    0  502    0  0.00000000000E+00  0.00000000000E+00  0.61315932076E+03  0.61315932076E+03  0.00000000000E+00 0. -1.
          1   -1    0    0  501    0 -0.00000000000E+00 -0.00000000000E+00 -0.76623899883E+03  0.76623899883E+03  0.00000000000E+00 0. -1.
         25    2    1    2    0    0 -0.15264547592E+03 -0.74603772940E+02  0.14337872876E+03  0.25506418332E+03  0.12503564890E+03 0.  0.
          2    1    1    2  501    0  0.54298704208E+02  0.46642882431E+02 -0.70223528116E+03  0.70587413741E+03  0.00000000000E+00 0. -1.
          1    1    1    2  502    0  0.98346771714E+02  0.27960890509E+02  0.40577687433E+03  0.41845999886E+03  0.00000000000E+00 0. -1.
         22    1    3    3    0    0  0.93781182948E+01  0.13070574666E+02 -0.67199948462E+01  0.17434086026E+02  0.00000000000E+00 0.  1.
         22    1    3    3    0    0 -0.16202359422E+03 -0.87674347606E+02  0.15009872361E+03  0.23763009729E+03  0.00000000000E+00 0.  1.
</event>
<event>
 7    1  0.5950675E-006  0.8602657E+02  0.7818608E-02  0.1395916E+00
          2   -1    0    0  502    0  0.00000000000E+00  0.00000000000E+00  0.46730933719E+03  0.46730933719E+03  0.00000000000E+00 0. -1.
          1   -1    0    0  501    0 -0.00000000000E+00 -0.00000000000E+00 -0.11211990296E+03  0.11211990296E+03  0.00000000000E+00 0. -1.
         25    2    1    2    0    0  0.11909025311E+03  0.66283556893E+01  0.15882919999E+03  0.23469421947E+03  0.12501295291E+03 0.  0.
          2    1    1    2  501    0 -0.81331036058E+02  0.12856509296E+02 -0.48936630485E+02  0.95785286244E+02  0.00000000000E+00 0. -1.
          1    1    1    2  502    0 -0.37759217051E+02 -0.19484864985E+02  0.24529686472E+03  0.24894973444E+03  0.00000000000E+00 0. -1.
         22    1    3    3    0    0  0.10858058219E+03 -0.17636653747E+02  0.46728883942E+02  0.11951729155E+03  0.00000000000E+00 0.  1.
         22    1    3    3    0    0  0.10509670918E+02  0.24265009436E+02  0.11210031605E+03  0.11517692792E+03  0.00000000000E+00 0.  1.
</event>
<event>
 7    1  0.5950675E-006  0.1088035E+03  0.7818608E-02  0.1400193E+00
          2   -1    0    0  502    0  0.00000000000E+00  0.00000000000E+00  0.17260481271E+04  0.17260481271E+04  0.00000000000E+00 0. -1.
          1   -1    0    0  501    0 -0.00000000000E+00 -0.00000000000E+00 -0.31414472572E+02  0.31414472572E+02  0.00000000000E+00 0. -1.
         25    2    1    2    0    0  0.76311852146E+02  0.72842438638E+02  0.10585890817E+04  0.10711520959E+04  0.12500579539E+03 0.  0.
          2    1    1    2  501    0  0.24640516859E+02 -0.21151161720E+02 -0.71012802966E+01  0.33240861828E+02  0.00000000000E+00 0. -1.
          1    1    1    2  502    0 -0.10095236900E+03 -0.51691276918E+02  0.64314585311E+03  0.65306964199E+03  0.00000000000E+00 0. -1.
         22    1    3    3    0    0  0.62111569128E+02  0.10099883161E+03  0.60753901332E+03  0.61900102076E+03  0.00000000000E+00 0.  1.
         22    1    3    3    0    0  0.14200283018E+02 -0.28156392968E+02  0.45105006840E+03  0.45215107509E+03  0.00000000000E+00 0.  1.
</event>
<event>
 7    1  0.5950675E-006  0.1889563E+03  0.7818608E-02  0.1277249E+00
          2   -1    0    0  502    0  0.00000000000E+00  0.00000000000E+00  0.13668951744E+04  0.13668951744E+04  0.00000000000E+00 0. -1.
          1   -1    0    0  501    0 -0.00000000000E+00 -0.00000000000E+00 -0.95881148870E+03  0.95881148870E+03  0.00000000000E+00 0. -1.
         25    2    1    2    0    0 -0.14212385879E+03  0.10871596267E+03  0.11622393527E+03  0.24728584435E+03  0.12499573557E+03 0.  0.
          2    1    1    2  501    0  0.29762267103E+02  0.45634491108E+02 -0.88474835421E+03  0.88642424921E+03  0.00000000000E+00 0. -1.
          1    1    1    2  502    0  0.11236159168E+03 -0.15435045378E+03  0.11766081046E+04  0.11919965695E+04  0.00000000000E+00 0. -1.
         22    1    3    3    0    0 -0.26592084871E+02  0.10576299420E+02  0.88721646393E+02  0.93222999447E+02  0.00000000000E+00 0.  1.
         22    1    3    3    0    0 -0.11553177392E+03  0.98139663251E+02  0.27502288881E+02  0.15406284491E+03  0.00000000000E+00 0.  1.
</event>
<event>
 7    1  0.5950675E-006  0.4792473E+02  0.7818608E-02  0.1473952E+00
          2   -1    0    0  502    0  0.00000000000E+00  0.00000000000E+00  0.18784331266E+04  0.18784331266E+04  0.00000000000E+00 0. -1.
          1   -1    0    0  501    0 -0.00000000000E+00 -0.00000000000E+00 -0.31314464741E+02  0.31314464741E+02  0.00000000000E+00 0. -1.
         25    2    1    2    0    0  0.43803244720E+02  0.18852334507E+02  0.23267960950E+03  0.26840060606E+03  0.12499979958E+03 0.  0.
          2    1    1    2  501    0 -0.15945014871E+01 -0.42341071063E+02  0.21205304529E+02  0.47381153151E+02  0.00000000000E+00 0. -1.
          1    1    1    2  502    0 -0.42208743233E+02  0.23488736556E+02  0.15932337478E+04  0.15939658321E+04  0.00000000000E+00 0. -1.
         22    1    3    3    0    0  0.14597189585E+02  0.70112441731E+02  0.15598663293E+03  0.17164108507E+03  0.00000000000E+00 0. -1.
         22    1    3    3    0    0  0.29206055136E+02 -0.51260107224E+02  0.76692976564E+02  0.96759520996E+02  0.00000000000E+00 0. -1.
</event>
<event>
 7    1  0.5950675E-006  0.6599745E+02  0.7818608E-02  0.1440953E+00
          2   -1    0    0  502    0  0.00000000000E+00  0.00000000000E+00  0.74401059642E+03  0.74401059642E+03  0.00000000000E+00 0. -1.
          1   -1    0    0  501    0 -0.00000000000E+00 -0.00000000000E+00 -0.79171416983E+02  0.79171416983E+02  0.00000000000E+00 0. -1.
         25    2    1    2    0    0  0.92120607285E+02  0.62971265457E+01  0.77931551831E+02  0.17384923509E+03  0.12499747870E+03 0.  0.
          2    1    1    2  501    0 -0.29745425281E+02 -0.25434969413E+02 -0.16452784964E+02  0.42454942319E+02  0.00000000000E+00 0. -1.
          1    1    1    2  502    0 -0.62375182004E+02  0.19137842868E+02  0.60336041257E+03  0.60687783599E+03  0.00000000000E+00 0. -1.
         22    1    3    3    0    0  0.64357476045E+01 -0.69437006955E+01 -0.32269583673E+02  0.33629746609E+02  0.00000000000E+00 0. -1.
         22    1    3    3    0    0  0.85684859680E+02  0.13240827241E+02  0.11020113550E+03  0.14021948848E+03  0.00000000000E+00 0. -1.
</event>
<event>
 7    1  0.5950675E-006  0.9748871E+02  0.7818608E-02  0.1448481E+00
          2   -1    0    0  502    0  0.00000000000E+00  0.00000000000E+00  0.44042498181E+03  0.44042498181E+03  0.00000000000E+00 0. -1.
          1   -1    0    0  501    0 -0.00000000000E+00 -0.00000000000E+00 -0.11234007645E+04  0.11234007645E+04  0.00000000000E+00 0. -1.
         25    2    1    2    0    0  0.65498725124E+02 -0.78329606745E+02 -0.98563518199E+02  0.18910638243E+03  0.12498338477E+03 0.  0.
          2    1    1    2  501    0 -0.78874699498E+02  0.57143723655E+02 -0.97674408595E+03  0.98158832145E+03  0.00000000000E+00 0. -1.
          1    1    1    2  502    0  0.13375974374E+02  0.21185883090E+02  0.39233182150E+03  0.39313104239E+03  0.00000000000E+00 0. -1.
         22    1    3    3    0    0  0.15942745335E+02  0.12346787990E+02 -0.82012208150E+02  0.84454819804E+02  0.00000000000E+00 0.  1.
         22    1    3    3    0    0  0.49555979789E+02 -0.90676394735E+02 -0.16551310049E+02  0.10465156262E+03  0.00000000000E+00 0.  1.
</event>
<event>
 7    1  0.5950675E-006  0.1382390E+03  0.7818608E-02  0.1339807E+00
          2   -1    0    0  502    0  0.00000000000E+00  0.00000000000E+00  0.13045287126E+04  0.13045287126E+04  0.00000000000E+00 0. -1.
          1   -1    0    0  501    0 -0.00000000000E+00 -0.00000000000E+00 -0.30980980929E+03  0.30980980929E+03  0.00000000000E+00 0. -1.
         25    2    1    2    0    0  0.13757015171E+03 -0.98398046135E+02  0.61302673308E+03  0.64810048238E+03  0.12499895063E+03 0.  0.
          2    1    1    2  501    0 -0.95430515502E+02  0.99011917858E+02 -0.27538517057E+03  0.30781055105E+03  0.00000000000E+00 0. -1.
          1    1    1    2  502    0 -0.42139636213E+02 -0.61387172306E+00  0.65707734080E+03  0.65842748847E+03  0.00000000000E+00 0. -1.
         22    1    3    3    0    0  0.48636136857E+01  0.16443544940E+02  0.18068406506E+03  0.18149594011E+03  0.00000000000E+00 0.  1.
         22    1    3    3    0    0  0.13270653803E+03 -0.11484159108E+03  0.43234266802E+03  0.46660454227E+03  0.00000000000E+00 0.  1.
</event>
<event>
 7    1  0.5950675E-006  0.9940630E+02  0.7818608E-02  0.1415922E+00
          2   -1    0    0  502    0  0.00000000000E+00  0.00000000000E+00  0.43258007926E+03  0.43258007926E+03  0.00000000000E+00 0. -1.
          1   -1    0    0  501    0 -0.00000000000E+00 -0.00000000000E+00 -0.12454256288E+04  0.12454256288E+04  0.00000000000E+00 0. -1.
         25    2    1    2    0    0  0.54525315624E+00 -0.79409194658E+02 -0.36158169305E+03  0.39073389634E+03  0.12500215800E+03 0.  0.
          2    1    1    2  501    0 -0.26477231471E+02 -0.16929621053E+02 -0.86302467555E+03  0.86359669202E+03  0.00000000000E+00 0. -1.
          1    1    1    2  502    0  0.25931978315E+02  0.96338815711E+02  0.41176081908E+03  0.42367511969E+03  0.00000000000E+00 0. -1.
         22    1    3    3    0    0 -0.32260885778E+02 -0.63320981982E+02 -0.80886357107E+02  0.10767039647E+03  0.00000000000E+00 0.  1.
         22    1    3    3    0    0  0.32806138934E+02 -0.16088212676E+02 -0.28069533594E+03  0.28306349987E+03  0.00000000000E+00 0.  1.
</event>
<event>
 7    1  0.5950675E-006  0.6038043E+02  0.7818608E-02  0.1397191E+00
          2   -1    0    0  502    0  0.00000000000E+00  0.00000000000E+00  0.18925355218E+04  0.18925355218E+04  0.00000000000E+00 0. -1.
          1   -1    0    0  501    0 -0.00000000000E+00 -0.00000000000E+00 -0.21511651768E+03  0.21511651768E+03  0.00000000000E+00 0. -1.
         25    2    1    2    0    0 -0.76354278094E+01  0.71906573308E+02  0.68712256220E+03  0.70213305484E+03  0.12499822466E+03 0.  0.
          2    1    1    2  501    0 -0.44003104044E+02 -0.41498924485E+02 -0.20243761966E+03  0.21128043864E+03  0.00000000000E+00 0. -1.
          1    1    1    2  502    0  0.51638531854E+02 -0.30407648823E+02  0.11927340615E+04  0.11942385460E+04  0.00000000000E+00 0. -1.
         22    1    3    3    0    0  0.50102536245E+02  0.10618318570E+02  0.38867890470E+03  0.39203865088E+03  0.00000000000E+00 0.  1.
         22    1    3    3    0    0 -0.57737964055E+02  0.61288254738E+02  0.29844365750E+03  0.31009440395E+03  0.00000000000E+00 0.  1.
</event>
<event>
 7    1  0.5950675E-006  0.1050900E+03  0.7818608E-02  0.1330870E+00
          2   -1    0    0  502    0  0.00000000000E+00  0.00000000000E+00  0.26516000174E+04  0.26516000174E+04  0.00000000000E+00 0. -1.
          1   -1    0    0  501    0 -0.00000000000E+00 -0.00000000000E+00 -0.29682154998E+03  0.29682154998E+03  0.00000000000E+00 0. -1.
         25    2    1    2    0    0  0.13301854834E+03  0.66694122439E+02  0.86249165281E+01  0.19452745380E+03  0.12499800369E+03 0.  0.
          2    1    1    2  501    0 -0.73122194362E+02 -0.68806562355E+02 -0.19113263957E+03  0.21590017193E+03  0.00000000000E+00 0. -1.
          1    1    1    2  502    0 -0.59896353981E+02  0.21124399167E+01  0.25372861905E+04  0.25379939417E+04  0.00000000000E+00 0. -1.
         22    1    3    3    0    0  0.32053639139E+02 -0.35122677916E+02 -0.13526640934E+02  0.49436912333E+02  0.00000000000E+00 0.  1.
         22    1    3    3    0    0  0.10096490920E+03  0.10181680036E+03  0.22151557463E+02  0.14509054147E+03  0.00000000000E+00 0.  1.
</event>
<event>
 7    1  0.5950675E-006  0.1240464E+03  0.7818608E-02  0.1388864E+00
          2   -1    0    0  502    0  0.00000000000E+00  0.00000000000E+00  0.18643109776E+03  0.18643109776E+03  0.00000000000E+00 0. -1.
          1   -1    0    0  501    0 -0.00000000000E+00 -0.00000000000E+00 -0.11340553220E+04  0.11340553220E+04  0.00000000000E+00 0. -1.
         25    2    1    2    0    0 -0.12214140716E+03 -0.61616032119E+02 -0.88074024026E+03  0.90002408832E+03  0.12499971989E+03 0.  0.
          2    1    1    2  501    0  0.26292996194E+02 -0.16756863872E+02 -0.22076532155E+03  0.22295614218E+03  0.00000000000E+00 0. -1.
          1    1    1    2  502    0  0.95848410971E+02  0.78372895991E+02  0.15388133762E+03  0.19750618922E+03  0.00000000000E+00 0. -1.
         22    1    3    3    0    0  0.12277076365E+02 -0.25864195474E+02 -0.35643015466E+03  0.35757815700E+03  0.00000000000E+00 0. -1.
         22    1    3    3    0    0 -0.13441848353E+03 -0.35751836645E+02 -0.52431008560E+03  0.54244593132E+03  0.00000000000E+00 0. -1.
</event>
<event>
 7    1  0.5950675E-006  0.1661357E+03  0.7818608E-02  0.1239631E+00
          2   -1    0    0  502    0  0.00000000000E+00  0.00000000000E+00  0.31332570294E+04  0.31332570294E+04  0.00000000000E+00 0. -1.
          1   -1    0    0  501    0 -0.00000000000E+00 -0.00000000000E+00 -0.14127588492E+03  0.14127588492E+03  0.00000000000E+00 0. -1.
         25    2    1    2    0    0 -0.12405908322E+02  0.12188116563E+03 -0.50908201463E+01  0.17508228341E+03  0.12497585534E+03 0.  0.
          2    1    1    2  501    0 -0.89006762862E+02  0.11713032009E+02 -0.76052309034E+01  0.90095718495E+02  0.00000000000E+00 0. -1.
          1    1    1    2  502    0  0.10141267118E+03 -0.13359419764E+03  0.30046771956E+04  0.30093549125E+04  0.00000000000E+00 0. -1.
         22    1    3    3    0    0 -0.20143742294E+02  0.91122815533E+02 -0.60514148893E+02  0.11122544709E+03  0.00000000000E+00 0.  1.
         22    1    3    3    0    0  0.77378339712E+01  0.30758350093E+02  0.55423328747E+02  0.63856836317E+02  0.00000000000E+00 0.  1.
</event>
<event>
 7    1  0.5950675E-006  0.6363142E+02  0.7818608E-02  0.1507276E+00
          2   -1    0    0  502    0  0.00000000000E+00  0.00000000000E+00  0.50965484048E+02  0.50965484048E+02  0.00000000000E+00 0. -1.
          1   -1    0    0  501    0 -0.00000000000E+00 -0.00000000000E+00 -0.30865152745E+03  0.30865152745E+03  0.00000000000E+00 0. -1.
         25    2    1    2    0    0 -0.43322094705E+02 -0.15065631864E+02 -0.10325086130E+03  0.16849065012E+03  0.12499832665E+03 0.  0.
          2    1    1    2  501    0  0.57415009776E+02  0.36083448614E+02 -0.15107829388E+03  0.16559936441E+03  0.00000000000E+00 0. -1.
          1    1    1    2  502    0 -0.14092915071E+02 -0.21017816750E+02 -0.33568882349E+01  0.25526996979E+02  0.00000000000E+00 0. -1.
         22    1    3    3    0    0 -0.42206548125E+02 -0.44504044191E+02 -0.11988154904E+03  0.13466101312E+03  0.00000000000E+00 0. -1.
         22    1    3    3    0    0 -0.11155465799E+01  0.29438412328E+02  0.16630687743E+02  0.33829636997E+02  0.00000000000E+00 0. -1.
</event>
<event>
 7    1  0.5950675E-006  0.3850747E+02  0.7818608E-02  0.1580767E+00
          2   -1    0    0  502    0  0.00000000000E+00  0.00000000000E+00  0.33250553305E+03  0.33250553305E+03  0.00000000000E+00 0. -1.
          1   -1    0    0  501    0 -0.00000000000E+00 -0.00000000000E+00 -0.45028063530E+03  0.45028063530E+03  0.00000000000E+00 0. -1.
         25    2    1    2    0    0  0.63483278007E+02  0.88022751037E+01  0.12287357315E+03  0.18663013767E+03  0.12500114669E+03 0.  0.
          2    1    1    2  501    0 -0.37519227330E+02 -0.80002975301E+01 -0.41656722852E+03  0.41832995716E+03  0.00000000000E+00 0. -1.
          1    1    1    2  502    0 -0.25964050677E+02 -0.80197757357E+00  0.17591855311E+03  0.17782607352E+03  0.00000000000E+00 0. -1.
         22    1    3    3    0    0  0.12894680729E+02 -0.36009369018E+02 -0.82381733264E+01  0.39125630320E+02  0.00000000000E+00 0.  1.
         22    1    3    3    0    0  0.50588597277E+02  0.44811644122E+02  0.13111174648E+03  0.14750450735E+03  0.00000000000E+00 0.  1.
</event>
<event>
 7    1  0.5950675E-006  0.6019510E+02  0.7818608E-02  0.1421152E+00
          2   -1    0    0  502    0  0.00000000000E+00  0.00000000000E+00  0.40559702085E+03  0.40559702085E+03  0.00000000000E+00 0. -1.
          1   -1    0    0  501    0 -0.00000000000E+00 -0.00000000000E+00 -0.25526358551E+03  0.25526358551E+03  0.00000000000E+00 0. -1.
         25    2    1    2    0    0  0.32963983623E+02  0.39335455871E+02 -0.84618119484E+02  0.15943464216E+03  0.12500110668E+03 0.  0.
          2    1    1    2  501    0 -0.65427115050E+02 -0.15067212590E+01 -0.12337001618E+03  0.13965363757E+03  0.00000000000E+00 0. -1.
          1    1    1    2  502    0  0.32463131427E+02 -0.37828734612E+02  0.35832157101E+03  0.36177232663E+03  0.00000000000E+00 0. -1.
         22    1    3    3    0    0  0.22576497301E+02 -0.34261207509E+02 -0.73643899601E+02  0.84302743246E+02  0.00000000000E+00 0. -1.
         22    1    3    3    0    0  0.10387486323E+02  0.73596663381E+02 -0.10974219882E+02  0.75131898917E+02  0.00000000000E+00 0. -1.
</event>
<event>
 7    1  0.5950675E-006  0.4563322E+02  0.7818608E-02  0.1474987E+00
          2   -1    0    0  502    0  0.00000000000E+00  0.00000000000E+00  0.17711773518E+04  0.17711773518E+04  0.00000000000E+00 0. -1.
          1   -1    0    0  501    0 -0.00000000000E+00 -0.00000000000E+00 -0.73413837204E+03  0.73413837204E+03  0.00000000000E+00 0. -1.
         25    2    1    2    0    0  0.71463043706E+02  0.52824317312E+02  0.21975411597E+03  0.26798153734E+03  0.12499943100E+03 0.  0.
          2    1    1    2  501    0 -0.37716799127E+02 -0.22991763968E+02 -0.70900509389E+03  0.71037975851E+03  0.00000000000E+00 0. -1.
          1    1    1    2  502    0 -0.33746244579E+02 -0.29832553344E+02  0.15262899577E+04  0.15269544280E+04  0.00000000000E+00 0. -1.
         22    1    3    3    0    0  0.98687282800E+02  0.61115857274E+02  0.20581455272E+03  0.23629210293E+03  0.00000000000E+00 0.  1.
         22    1    3    3    0    0 -0.27224239093E+02 -0.82915399616E+01  0.13939563252E+02  0.31689434403E+02  0.00000000000E+00 0.  1.
</event>
<event>
 7    1  0.5950675E-006  0.7260559E+02  0.7818608E-02  0.1352295E+00
          2   -1    0    0  502    0  0.00000000000E+00  0.00000000000E+00  0.11454236430E+02  0.11454236430E+02  0.00000000000E+00 0. -1.
          1   -1    0    0  501    0 -0.00000000000E+00 -0.00000000000E+00 -0.25083282256E+04  0.25083282256E+04  0.00000000000E+00 0. -1.
         25    2    1    2    0    0 -0.29058604709E+02  0.89664382226E+02 -0.13795008261E+04  0.13883557941E+04  0.12500071075E+03 0.  0.
          2    1    1    2  501    0 -0.38393513410E+02 -0.61623943945E+02 -0.88188850415E+03  0.88487225411E+03  0.00000000000E+00 0. -1.
          1    1    1    2  502    0  0.67452118119E+02 -0.28040438281E+02 -0.23548465891E+03  0.24655441387E+03  0.00000000000E+00 0. -1.
         22    1    3    3    0    0 -0.67622157318E+02  0.86642224021E+02 -0.11822606998E+04  0.11873584098E+04  0.00000000000E+00 0. -1.
         22    1    3    3    0    0  0.38563552609E+02  0.30221582049E+01 -0.19724012638E+03  0.20099738427E+03  0.00000000000E+00 0. -1.
</event>
<event>
 7    1  0.5950675E-006  0.1021771E+03  0.7818608E-02  0.1307493E+00
          2   -1    0    0  502    0  0.00000000000E+00  0.00000000000E+00  0.11418367810E+04  0.11418367810E+04  0.00000000000E+00 0. -1.
          1   -1    0    0  501    0 -0.00000000000E+00 -0.00000000000E+00 -0.23286324084E+03  0.23286324084E+03  0.00000000000E+00 0. -1.
         25    2    1    2    0    0 -0.22314277523E+02 -0.29635245913E+02  0.17804909810E+03  0.22068842790E+03  0.12500290434E+03 0.  0.
          2    1    1    2  501    0 -0.32542443491E+02 -0.68658465374E+02 -0.20122412287E+03  0.21509101125E+03  0.00000000000E+00 0. -1.
          1    1    1    2  502    0  0.54856721013E+02  0.98293711287E+02  0.93214856496E+03  0.93892058274E+03  0.00000000000E+00 0. -1.
         22    1    3    3    0    0 -0.25498267573E+01 -0.13351213076E+02  0.19134960504E+03  0.19183176967E+03  0.00000000000E+00 0. -1.
         22    1    3    3    0    0 -0.19764450765E+02 -0.16284032837E+02 -0.13300506938E+02  0.28856658231E+02  0.00000000000E+00 0. -1.
</event>
<event>
 7    1  0.5950675E-006  0.6366667E+02  0.7818608E-02  0.1428658E+00
          2   -1    0    0  502    0  0.00000000000E+00  0.00000000000E+00  0.29577385935E+03  0.29577385935E+03  0.00000000000E+00 0. -1.
          1   -1    0    0  501    0 -0.00000000000E+00 -0.00000000000E+00 -0.26743138451E+03  0.26743138451E+03  0.00000000000E+00 0. -1.
         25    2    1    2    0    0  0.11164203056E+02 -0.55471699721E+02  0.64890780431E+02  0.15177878975E+03  0.12499695489E+03 0.  0.
          2    1    1    2  501    0  0.41763375361E+02  0.15378206466E+02 -0.21576388049E+03  0.22030597105E+03  0.00000000000E+00 0. -1.
          1    1    1    2  502    0 -0.52927578417E+02  0.40093493255E+02  0.17921557490E+03  0.19112048306E+03  0.00000000000E+00 0. -1.
         22    1    3    3    0    0 -0.74429289821E+01 -0.23987942204E+02 -0.36322851358E+02  0.44160707578E+02  0.00000000000E+00 0.  1.
         22    1    3    3    0    0  0.18607132038E+02 -0.31483757517E+02  0.10121363179E+03  0.10761808217E+03  0.00000000000E+00 0.  1.
</event>
<event>
 7    1  0.5950675E-006  0.3565527E+02  0.7818608E-02  0.1600591E+00
          2   -1    0    0  502    0  0.00000000000E+00  0.00000000000E+00  0.63429980982E+03  0.63429980982E+03  0.00000000000E+00 0. -1.
          1   -1    0    0  501    0 -0.00000000000E+00 -0.00000000000E+00 -0.10374162707E+03  0.10374162707E+03  0.00000000000E+00 0. -1.
         25    2    1    2    0    0  0.53462487061E+02 -0.20826219370E+02  0.23371126153E+03  0.27118030638E+03  0.12500334341E+03 0.  0.
          2    1    1    2  501    0 -0.28598286209E+02  0.20803220967E+02 -0.80902591155E+02  0.88294197048E+02  0.00000000000E+00 0. -1.
          1    1    1    2  502    0 -0.24864200852E+02  0.22998402998E-01  0.37774951237E+03  0.37856693346E+03  0.00000000000E+00 0. -1.
         22    1    3    3    0    0  0.85922526539E+02 -0.41995645557E+02  0.13779607835E+03  0.16773214964E+03  0.00000000000E+00 0.  1.
         22    1    3    3    0    0 -0.32460039478E+02  0.21169426187E+02  0.95915183181E+02  0.10344815674E+03  0.00000000000E+00 0.  1.
</event>
<event>
 7    1  0.5950675E-006  0.5396310E+02  0.7818608E-02  0.1446123E+00
          2   -1    0    0  502    0  0.00000000000E+00  0.00000000000E+00  0.45142545759E+03  0.45142545759E+03  0.00000000000E+00 0. -1.
          1   -1    0    0  501    0 -0.00000000000E+00 -0.00000000000E+00 -0.93890879974E+03  0.93890879974E+03  0.00000000000E+00 0. -1.
         25    2    1    2    0    0  0.88499449312E+02  0.60116361403E+01 -0.13932253879E+02  0.15390678930E+03  0.12499959919E+03 0.  0.
          2    1    1    2  501    0 -0.46964469624E+02 -0.25921335762E+02 -0.85275292365E+03  0.85443848570E+03  0.00000000000E+00 0. -1.
          1    1    1    2  502    0 -0.41534979688E+02  0.19909699622E+02  0.37920183537E+03  0.38198898233E+03  0.00000000000E+00 0. -1.
         22    1    3    3    0    0 -0.24076064225E+02  0.24441591851E+02  0.13013610042E+02  0.36693355354E+02  0.00000000000E+00 0.  1.
         22    1    3    3    0    0  0.11257551354E+03 -0.18429955711E+02 -0.26945863921E+02  0.11721343395E+03  0.00000000000E+00 0.  1.
</event>
<event>
 7    1  0.5950675E-006  0.7475086E+02  0.7818608E-02  0.1366623E+00
          2   -1    0    0  502    0  0.00000000000E+00  0.00000000000E+00  0.28254264652E+03  0.28254264652E+03  0.00000000000E+00 0. -1.
          1   -1    0    0  501    0 -0.00000000000E+00 -0.00000000000E+00 -0.97816149787E+03  0.97816149787E+03  0.00000000000E+00 0. -1.
         25    2    1    2    0    0 -0.58942347862E+01 -0.23317924811E+02  0.54056384175E+02  0.13830005706E+03  0.12500538185E+03 0.  0.
          2    1    1    2  501    0 -0.41691319256E+02  0.63168923372E+02 -0.92929015069E+03  0.93236723620E+03  0.00000000000E+00 0. -1.
          1    1    1    2  502    0  0.47585554042E+02 -0.39850998562E+02  0.17961491515E+03  0.19003685113E+03  0.00000000000E+00 0. -1.
         22    1    3    3    0    0 -0.58386128164E+02  0.16491866584E+02  0.33403536523E+02  0.69258341575E+02  0.00000000000E+00 0.  1.
         22    1    3    3    0    0  0.52491893378E+02 -0.39809791395E+02  0.20652847652E+02  0.69041715488E+02  0.00000000000E+00 0.  1.
</event>
<event>
 7    1  0.5950675E-006  0.7704185E+02  0.7818608E-02  0.1368769E+00
          2   -1    0    0  502    0  0.00000000000E+00  0.00000000000E+00  0.15098274202E+03  0.15098274202E+03  0.00000000000E+00 0. -1.
          1   -1    0    0  501    0 -0.00000000000E+00 -0.00000000000E+00 -0.24307600775E+03  0.24307600775E+03  0.00000000000E+00 0. -1.
         25    2    1    2    0    0 -0.84826401269E+02  0.95208886642E+02 -0.68514229840E+02  0.19124869091E+03  0.12498644581E+03 0.  0.
          2    1    1    2  501    0  0.28327547543E+02 -0.51935242657E+02 -0.88518852413E+02  0.10646739694E+03  0.00000000000E+00 0. -1.
          1    1    1    2  502    0  0.56498853726E+02 -0.43273643985E+02  0.64939816516E+02  0.96342661917E+02  0.00000000000E+00 0. -1.
         22    1    3    3    0    0 -0.42797554863E+02 -0.25870032192E+02 -0.24900348977E+02  0.55865164880E+02  0.00000000000E+00 0.  1.
         22    1    3    3    0    0 -0.42028846406E+02  0.12107891883E+03 -0.43613880863E+02  0.13538352603E+03  0.00000000000E+00 0.  1.
</event>
<event>
 7    1  0.5950675E-006  0.7386342E+02  0.7818608E-02  0.1435547E+00
          2   -1    0    0  502    0  0.00000000000E+00  0.00000000000E+00  0.19811494517E+04  0.19811494517E+04  0.00000000000E+00 0. -1.
          1   -1    0    0  501    0 -0.00000000000E+00 -0.00000000000E+00 -0.84762364586E+02  0.84762364586E+02  0.00000000000E+00 0. -1.
         25    2    1    2    0    0 -0.47148569216E+02  0.78282947904E+02  0.14961029784E+04  0.15040947067E+04  0.12500222903E+03 0.  0.
          2    1    1    2  501    0  0.11134260320E+02 -0.72896493011E+02 -0.63069865585E+02  0.97034418590E+02  0.00000000000E+00 0. -1.
          1    1    1    2  502    0  0.36014308896E+02 -0.53864548933E+01  0.46335397427E+03  0.46478269096E+03  0.00000000000E+00 0. -1.
         22    1    3    3    0    0 -0.49554199290E+02 -0.57557844164E+01  0.97305419344E+03  0.97433218724E+03  0.00000000000E+00 0. -1.
         22    1    3    3    0    0  0.24056300731E+01  0.84038732320E+02  0.52304878498E+03  0.52976251949E+03  0.00000000000E+00 0. -1.
</event>
<event>
 7    1  0.5950675E-006  0.9729999E+02  0.7818608E-02  0.1294653E+00
          2   -1    0    0  502    0  0.00000000000E+00  0.00000000000E+00  0.19509318973E+04  0.19509318973E+04  0.00000000000E+00 0. -1.
          1   -1    0    0  501    0 -0.00000000000E+00 -0.00000000000E+00 -0.87856815579E+03  0.87856815579E+03  0.00000000000E+00 0. -1.
         25    2    1    2    0    0 -0.91330097506E+02  0.16046914969E+03  0.20849533847E+02  0.22394635347E+03  0.12500292579E+03 0.  0.
          2    1    1    2  501    0  0.41856509950E+02 -0.85530912647E+02 -0.77299399450E+03  0.77883709463E+03  0.00000000000E+00 0. -1.
          1    1    1    2  502    0  0.49473587556E+02 -0.74938237043E+02  0.18245082021E+04  0.18267166050E+04  0.00000000000E+00 0. -1.
         22    1    3    3    0    0 -0.10868614674E+03  0.16196830856E+03 -0.21837113902E+01  0.19506711683E+03  0.00000000000E+00 0.  1.
         22    1    3    3    0    0  0.17356049238E+02 -0.14991588738E+01  0.23033245237E+02  0.28879236635E+02  0.00000000000E+00 0.  1.
</event>
<event>
 7    1  0.5950675E-006  0.1105230E+03  0.7818608E-02  0.1416507E+00
          2   -1    0    0  502    0  0.00000000000E+00  0.00000000000E+00  0.32061964856E+03  0.32061964856E+03  0.00000000000E+00 0. -1.
          1   -1    0    0  501    0 -0.00000000000E+00 -0.00000000000E+00 -0.13658501429E+04  0.13658501429E+04  0.00000000000E+00 0. -1.
         25    2    1    2    0    0 -0.87011890701E+02 -0.39623538511E+02 -0.84133341028E+02  0.17847055201E+03  0.12502889639E+03 0.  0.
          2    1    1    2  501    0  0.88505030155E+02  0.67722225861E+02 -0.12313011429E+04  0.12363340749E+04  0.00000000000E+00 0. -1.
          1    1    1    2  502    0 -0.14931394539E+01 -0.28098687350E+02  0.27020398954E+03  0.27166516460E+03  0.00000000000E+00 0. -1.
         22    1    3    3    0    0 -0.52107877826E+02 -0.80204725357E+02 -0.80163503453E+02  0.12479669942E+03  0.00000000000E+00 0.  1.
         22    1    3    3    0    0 -0.34904012875E+02  0.40581186846E+02 -0.39698375751E+01  0.53673852582E+02  0.00000000000E+00 0.  1.
</event>
<event>
 7    1  0.5950675E-006  0.6387281E+02  0.7818608E-02  0.1437419E+00
          2   -1    0    0  502    0  0.00000000000E+00  0.00000000000E+00  0.50638090808E+03  0.50638090808E+03  0.00000000000E+00 0. -1.
          1   -1    0    0  501    0 -0.00000000000E+00 -0.00000000000E+00 -0.70348506949E+03  0.70348506949E+03  0.00000000000E+00 0. -1.
         25    2    1    2    0    0  0.95593627668E+02  0.36652989627E+02  0.16472049003E+03  0.23073592487E+03  0.12499857555E+03 0.  0.
          2    1    1    2  501    0 -0.54211277631E+02 -0.33241945504E+02 -0.66756297940E+03  0.67058498420E+03  0.00000000000E+00 0. -1.
          1    1    1    2  502    0 -0.41382350037E+02 -0.34110441235E+01  0.30573832796E+03  0.30854506851E+03  0.00000000000E+00 0. -1.
         22    1    3    3    0    0  0.10279202088E+03  0.20914005010E+02  0.52710475796E+02  0.11739671810E+03  0.00000000000E+00 0.  1.
         22    1    3    3    0    0 -0.71983932153E+01  0.15738984617E+02  0.11201001423E+03  0.11333920676E+03  0.00000000000E+00 0.  1.
</event>
<event>
 7    1  0.5950675E-006  0.3872489E+02  0.7818608E-02  0.1562466E+00
          2   -1    0    0  502    0  0.00000000000E+00  0.00000000000E+00  0.10082104181E+03  0.10082104181E+03  0.00000000000E+00 0. -1.
          1   -1    0    0  501    0 -0.00000000000E+00 -0.00000000000E+00 -0.21081432094E+04  0.21081432094E+04  0.00000000000E+00 0. -1.
         25    2    1    2    0    0 -0.15653692451E+02 -0.10178160431E+01 -0.99346364046E+03  0.10014193999E+04  0.12499894220E+03 0.  0.
          2    1    1    2  501    0 -0.11798538391E+02 -0.26444140268E+02 -0.11066123306E+04  0.11069911239E+04  0.00000000000E+00 0. -1.
          1    1    1    2  502    0  0.27452230842E+02  0.27461956311E+02  0.92753803535E+02  0.10055372739E+03  0.00000000000E+00 0. -1.
         22    1    3    3    0    0 -0.17670130176E+02 -0.27660279232E+02 -0.67368429451E+02  0.74938840626E+02  0.00000000000E+00 0. -1.
         22    1    3    3    0    0  0.20164377252E+01  0.26642463189E+02 -0.92609521101E+03  0.92648055928E+03  0.00000000000E+00 0. -1.
</event>
<event>
 7    1  0.5950675E-006  0.3012072E+03  0.7818608E-02  0.1281250E+00
          2   -1    0    0  502    0  0.00000000000E+00  0.00000000000E+00  0.11656683429E+04  0.11656683429E+04  0.00000000000E+00 0. -1.
          1   -1    0    0  501    0 -0.00000000000E+00 -0.00000000000E+00 -0.10609577477E+03  0.10609577477E+03  0.00000000000E+00 0. -1.
         25    2    1    2    0    0  0.14573152870E+03 -0.26766223707E+03  0.69897816596E+03  0.77270756199E+03  0.12500299302E+03 0.  0.
          2    1    1    2  501    0 -0.32182554334E+02 -0.68339336043E+01  0.13824641719E+01  0.32929176412E+02  0.00000000000E+00 0. -1.
          1    1    1    2  502    0 -0.11354897436E+03  0.27449617068E+03  0.35921193801E+03  0.46612737927E+03  0.00000000000E+00 0. -1.
         22    1    3    3    0    0  0.39057740774E+02 -0.12398365429E+03  0.16820736638E+03  0.21258215295E+03  0.00000000000E+00 0.  1.
         22    1    3    3    0    0  0.10667378792E+03 -0.14367858279E+03  0.53077079957E+03  0.56012540905E+03  0.00000000000E+00 0.  1.
</event>
<event>
 7    1  0.5950675E-006  0.5938002E+02  0.7818608E-02  0.1469167E+00
          2   -1    0    0  502    0  0.00000000000E+00  0.00000000000E+00  0.99757370434E+03  0.99757370434E+03  0.00000000000E+00 0. -1.
          1   -1    0    0  501    0 -0.00000000000E+00 -0.00000000000E+00 -0.35599474100E+03  0.35599474100E+03  0.00000000000E+00 0. -1.
         25    2    1    2    0    0 -0.25212720525E+02  0.11082489112E+02 -0.25157034405E+02  0.13044780473E+03  0.12500100214E+03 0.  0.
          2    1    1    2  501    0  0.48668766975E+02 -0.37578773847E+02 -0.27445809196E+03  0.28126154619E+03  0.00000000000E+00 0. -1.
          1    1    1    2  502    0 -0.23456046450E+02  0.26496284735E+02  0.94119408972E+03  0.94185909442E+03  0.00000000000E+00 0. -1.
         22    1    3    3    0    0 -0.44225648461E+02 -0.34878682243E+02 -0.49579298400E+02  0.75036906164E+02  0.00000000000E+00 0.  1.
         22    1    3    3    0    0  0.19012927936E+02  0.45961171355E+02  0.24422263995E+02  0.55410898564E+02  0.00000000000E+00 0.  1.
</event>
<event>
 7    1  0.5950675E-006  0.2051126E+03  0.7818608E-02  0.1214840E+00
          2   -1    0    0  502    0  0.00000000000E+00  0.00000000000E+00  0.51837060095E+03  0.51837060095E+03  0.00000000000E+00 0. -1.
          1   -1    0    0  501    0 -0.00000000000E+00 -0.00000000000E+00 -0.23272748495E+03  0.23272748495E+03  0.00000000000E+00 0. -1.
         25    2    1    2    0    0 -0.15873114824E+03 -0.14225430885E+03  0.10043786569E+03  0.26673079225E+03  0.12500273941E+03 0.  0.
          2    1    1    2  501    0  0.79160556325E+02  0.19237122532E+03 -0.64296799761E+02  0.21773185451E+03  0.00000000000E+00 0. -1.
          1    1    1    2  502    0  0.79570591910E+02 -0.50116916470E+02  0.24950205008E+03  0.26663543914E+03  0.00000000000E+00 0. -1.
         22    1    3    3    0    0 -0.13168557668E+03 -0.12156251015E+03  0.21175676338E+02  0.18046313819E+03  0.00000000000E+00 0.  1.
         22    1    3    3    0    0 -0.27045571556E+02 -0.20691798708E+02  0.79262189353E+02  0.86267654051E+02  0.00000000000E+00 0.  1.
</event>
<event>
 7    1  0.5950675E-006  0.1561528E+03  0.7818608E-02  0.1234698E+00
          2   -1    0    0  502    0  0.00000000000E+00  0.00000000000E+00  0.79644976669E+03  0.79644976669E+03  0.00000000000E+00 0. -1.
          1   -1    0    0  501    0 -0.00000000000E+00 -0.00000000000E+00 -0.18301086286E+03  0.18301086286E+03  0.00000000000E+00 0. -1.
         25    2    1    2    0    0  0.86808043356E+02 -0.71771214005E+02  0.90280933419E+02  0.19095175521E+03  0.12500072931E+03 0.  0.
          2    1    1    2  501    0 -0.64013451800E+02  0.16959381823E+03 -0.64441575753E+02  0.19238633496E+03  0.00000000000E+00 0. -1.
          1    1    1    2  502    0 -0.22794591556E+02 -0.97822604221E+02  0.58759954616E+03  0.59612253938E+03  0.00000000000E+00 0. -1.
         22    1    3    3    0    0 -0.26119892633E+02 -0.33341699398E+02  0.17312959697E+01  0.42390035334E+02  0.00000000000E+00 0.  1.
         22    1    3    3    0    0  0.11292793599E+03 -0.38429514607E+02  0.88549637450E+02  0.14856171987E+03  0.00000000000E+00 0.  1.
</event>
<event>
 7    1  0.5950675E-006  0.1145096E+03  0.7818608E-02  0.1362212E+00
          2   -1    0    0  502    0  0.00000000000E+00  0.00000000000E+00  0.91326835118E+03  0.91326835118E+03  0.00000000000E+00 0. -1.
          1   -1    0    0  501    0 -0.00000000000E+00 -0.00000000000E+00 -0.25367466473E+04  0.25367466473E+04  0.00000000000E+00 0. -1.
         25    2    1    2    0    0  0.12354604912E+03 -0.19913120873E+02  0.21812090133E+03  0.28082385147E+03  0.12500059730E+03 0.  0.
          2    1    1    2  501    0 -0.11591298075E+02  0.40407547153E+02 -0.25003384811E+04  0.25006918339E+04  0.00000000000E+00 0. -1.
          1    1    1    2  502    0 -0.11195475105E+03 -0.20494426280E+02  0.65873928366E+03  0.66849931311E+03  0.00000000000E+00 0. -1.
         22    1    3    3    0    0  0.24930384891E+02 -0.57783790517E+02  0.12523230726E+03  0.14015570384E+03  0.00000000000E+00 0.  1.
         22    1    3    3    0    0  0.98615664231E+02  0.37870669644E+02  0.92888594068E+02  0.14066814764E+03  0.00000000000E+00 0.  1.
</event>
<event>
 7    1  0.5950675E-006  0.1596373E+03  0.7818608E-02  0.1251578E+00
          2   -1    0    0  502    0  0.00000000000E+00  0.00000000000E+00  0.33922499879E+04  0.33922499879E+04  0.00000000000E+00 0. -1.
          1   -1    0    0  501    0 -0.00000000000E+00 -0.00000000000E+00 -0.10337213521E+04  0.10337213521E+04  0.00000000000E+00 0. -1.
         25    2    1    2    0    0 -0.13093830291E+03 -0.17261328052E+03  0.65250463985E+03  0.69880447700E+03  0.12500083309E+03 0.  0.
          2    1    1    2  501    0  0.51009911780E+02  0.15081758989E+03 -0.10036637053E+04  0.10162129648E+04  0.00000000000E+00 0. -1.
          1    1    1    2  502    0  0.79928391126E+02  0.21795690630E+02  0.27096877013E+04  0.27109538982E+04  0.00000000000E+00 0. -1.
         22    1    3    3    0    0 -0.81869936903E+02 -0.14168801597E+03  0.59514053977E+03  0.61722803121E+03  0.00000000000E+00 0. -1.
         22    1    3    3    0    0 -0.49068366004E+02 -0.30925264546E+02  0.57364100085E+02  0.81576445792E+02  0.00000000000E+00 0. -1.
</event>
<event>
 7    1  0.5950675E-006  0.7642457E+02  0.7818608E-02  0.1387224E+00
          2   -1    0    0  502    0  0.00000000000E+00  0.00000000000E+00  0.72021456959E+03  0.72021456959E+03  0.00000000000E+00 0. -1.
          1   -1    0    0  501    0 -0.00000000000E+00 -0.00000000000E+00 -0.18688310581E+03  0.18688310581E+03  0.00000000000E+00 0. -1.
         25    2    1    2    0    0 -0.40508625850E+02 -0.54523129129E+02  0.53948957185E+02  0.15214907113E+03  0.12500051794E+03 0.  0.
          2    1    1    2  501    0 -0.35194472803E+02  0.37296042803E+02 -0.13046384881E+03  0.14018010405E+03  0.00000000000E+00 0. -1.
          1    1    1    2  502    0  0.75703098653E+02  0.17227086326E+02  0.60984635541E+03  0.61476850021E+03  0.00000000000E+00 0. -1.
         22    1    3    3    0    0 -0.85749636370E+02 -0.35539385929E+02  0.40523848199E+02  0.10128292236E+03  0.00000000000E+00 0.  1.
         22    1    3    3    0    0  0.45241010520E+02 -0.18983743200E+02  0.13425108986E+02  0.50866148764E+02  0.00000000000E+00 0.  1.
</event>
<event>
 7    1  0.5950675E-006  0.4738031E+02  0.7818608E-02  0.1504502E+00
          2   -1    0    0  502    0  0.00000000000E+00  0.00000000000E+00  0.52831223133E+02  0.52831223133E+02  0.00000000000E+00 0. -1.
          1   -1    0    0  501    0 -0.00000000000E+00 -0.00000000000E+00 -0.99828169468E+03  0.99828169468E+03  0.00000000000E+00 0. -1.
         25    2    1    2    0    0 -0.31237196285E+02  0.39921159411E+00 -0.33648827698E+03  0.36031162702E+03  0.12499674484E+03 0.  0.
          2    1    1    2  501    0 -0.22828932119E+01  0.34558221301E+02 -0.63491190515E+03  0.63585580878E+03  0.00000000000E+00 0. -1.
          1    1    1    2  502    0  0.33520089497E+02 -0.34957432895E+02  0.25949710579E+02  0.54945482013E+02  0.00000000000E+00 0. -1.
         22    1    3    3    0    0 -0.74805466112E+02 -0.55778388425E+01 -0.27273156072E+03  0.28285946026E+03  0.00000000000E+00 0. -1.
         22    1    3    3    0    0  0.43568269827E+02  0.59770504366E+01 -0.63756716258E+02  0.77452166759E+02  0.00000000000E+00 0. -1.
</event>
<event>
 7    1  0.5950675E-006  0.8739486E+02  0.7818608E-02  0.1338003E+00
          2   -1    0    0  502    0  0.00000000000E+00  0.00000000000E+00  0.99402159909E+03  0.99402159909E+03  0.00000000000E+00 0. -1.
          1   -1    0    0  501    0 -0.00000000000E+00 -0.00000000000E+00 -0.17264056585E+04  0.17264056585E+04  0.00000000000E+00 0. -1.
         25    2    1    2    0    0 -0.19796035703E+02  0.10789088832E+03  0.36650865058E+03  0.40247471247E+03  0.12499990566E+03 0.  0.
          2    1    1    2  501    0  0.65468573761E+02 -0.57898560772E+02 -0.17054195466E+04  0.17076575205E+04  0.00000000000E+00 0. -1.
          1    1    1    2  502    0 -0.45672538057E+02 -0.49992327544E+02  0.60652683660E+03  0.61029502460E+03  0.00000000000E+00 0. -1.
         22    1    3    3    0    0  0.45568943562E+02  0.26905626431E+02  0.66866536821E+02  0.85273531048E+02  0.00000000000E+00 0. -1.
         22    1    3    3    0    0 -0.65364979265E+02  0.80985261884E+02  0.29964211376E+03  0.31720118142E+03  0.00000000000E+00 0. -1.
</event>
<event>
 7    1  0.5950675E-006  0.6874962E+02  0.7818608E-02  0.1480410E+00
          2   -1    0    0  502    0  0.00000000000E+00  0.00000000000E+00  0.18649916123E+04  0.18649916123E+04  0.00000000000E+00 0. -1.
          1   -1    0    0  501    0 -0.00000000000E+00 -0.00000000000E+00 -0.63476531617E+02  0.63476531617E+02  0.00000000000E+00 0. -1.
         25    2    1    2    0    0  0.56346911497E+02 -0.13544974961E+02  0.24159789792E+03  0.27812487952E+03  0.12500185419E+03 0.  0.
          2    1    1    2  501    0 -0.92372977286E+00 -0.28199303087E+02 -0.39984986692E+02  0.48937236661E+02  0.00000000000E+00 0. -1.
          1    1    1    2  502    0 -0.55423181724E+02  0.41744278048E+02  0.15999021694E+04  0.16014060277E+04  0.00000000000E+00 0. -1.
         22    1    3    3    0    0  0.23912239538E+02  0.41177195824E+02  0.19099259505E+03  0.19683883768E+03  0.00000000000E+00 0.  1.
         22    1    3    3    0    0  0.32434671959E+02 -0.54722170785E+02  0.50605302868E+02  0.81286041845E+02  0.00000000000E+00 0.  1.
</event>
<event>
 7    1  0.5950675E-006  0.5185248E+02  0.7818608E-02  0.1455298E+00
          2   -1    0    0  502    0  0.00000000000E+00  0.00000000000E+00  0.16620286860E+04  0.16620286860E+04  0.00000000000E+00 0. -1.
          1   -1    0    0  501    0 -0.00000000000E+00 -0.00000000000E+00 -0.64395826686E+03  0.64395826686E+03  0.00000000000E+00 0. -1.
         25    2    1    2    0    0  0.50067814690E+01 -0.87349258025E+01  0.38537771237E+03  0.40526853164E+03  0.12500093902E+03 0.  0.
          2    1    1    2  501    0  0.34705105718E+02 -0.28338242131E+02 -0.63263767334E+03  0.63422230019E+03  0.00000000000E+00 0. -1.
          1    1    1    2  502    0 -0.39711887187E+02  0.37073167933E+02  0.12653303801E+04  0.12664961211E+04  0.00000000000E+00 0. -1.
         22    1    3    3    0    0  0.55220629364E+02  0.14497618095E+02  0.10533121460E+03  0.11980886281E+03  0.00000000000E+00 0. -1.
         22    1    3    3    0    0 -0.50213847895E+02 -0.23232543897E+02  0.28004649777E+03  0.28545966883E+03  0.00000000000E+00 0. -1.
</event>
<event>
 7    1  0.5950675E-006  0.1831111E+03  0.7818608E-02  0.1266429E+00
          2   -1    0    0  502    0  0.00000000000E+00  0.00000000000E+00  0.44906407775E+03  0.44906407775E+03  0.00000000000E+00 0. -1.
          1   -1    0    0  501    0 -0.00000000000E+00 -0.00000000000E+00 -0.13544170588E+04  0.13544170588E+04  0.00000000000E+00 0. -1.
         25    2    1    2    0    0 -0.14348958076E+03  0.16743083304E+02 -0.39871888175E+03  0.44212092906E+03  0.12499831448E+03 0.  0.
          2    1    1    2  501    0  0.20325458350E+03  0.12090279067E+01 -0.92057237199E+03  0.94274459931E+03  0.00000000000E+00 0. -1.
          1    1    1    2  502    0 -0.59765002736E+02 -0.17952111211E+02  0.41393827267E+03  0.41861560820E+03  0.00000000000E+00 0. -1.
         22    1    3    3    0    0 -0.10169402151E+03  0.45917799870E+02 -0.36330904242E+03  0.38005733602E+03  0.00000000000E+00 0. -1.
         22    1    3    3    0    0 -0.41795559251E+02 -0.29174716566E+02 -0.35409839330E+02  0.62063593041E+02  0.00000000000E+00 0. -1.
</event>
<event>
 7    1  0.5950675E-006  0.6311354E+02  0.7818608E-02  0.1398312E+00
          2   -1    0    0  502    0  0.00000000000E+00  0.00000000000E+00  0.49568657974E+03  0.49568657974E+03  0.00000000000E+00 0. -1.
          1   -1    0    0  501    0 -0.00000000000E+00 -0.00000000000E+00 -0.81303085334E+03  0.81303085334E+03  0.00000000000E+00 0. -1.
         25    2    1    2    0    0  0.27742557382E+02  0.47686611838E+02 -0.50659730363E+03  0.52469925104E+03  0.12499925423E+03 0.  0.
          2    1    1    2  501    0  0.24231656416E+02 -0.70654316537E+02 -0.29099076056E+03  0.30042441371E+03  0.00000000000E+00 0. -1.
          1    1    1    2  502    0 -0.51974213797E+02  0.22967704699E+02  0.48024379060E+03  0.48359376833E+03  0.00000000000E+00 0. -1.
         22    1    3    3    0    0 -0.30306365888E+02  0.57308726033E+02 -0.37477509354E+03  0.38034081641E+03  0.00000000000E+00 0. -1.
         22    1    3    3    0    0  0.58048923270E+02 -0.96221141949E+01 -0.13182221009E+03  0.14435843463E+03  0.00000000000E+00 0. -1.
</event>
<event>
 7    1  0.5950675E-006  0.5245937E+02  0.7818608E-02  0.1444140E+00
          2   -1    0    0  502    0  0.00000000000E+00  0.00000000000E+00  0.97033259193E+02  0.97033259193E+02  0.00000000000E+00 0. -1.
          1   -1    0    0  501    0 -0.00000000000E+00 -0.00000000000E+00 -0.26636391443E+04  0.26636391443E+04  0.00000000000E+00 0. -1.
         25    2    1    2    0    0 -0.53206657159E+01  0.22943356200E+02 -0.76885151222E+03  0.77930179692E+03  0.12499574293E+03 0.  0.
          2    1    1    2  501    0  0.53011785023E+02 -0.16818161133E+02 -0.18828279640E+04  0.18836491822E+04  0.00000000000E+00 0. -1.
          1    1    1    2  502    0 -0.47691119307E+02 -0.61251950667E+01  0.85073591075E+02  0.97721424334E+02  0.00000000000E+00 0. -1.
         22    1    3    3    0    0 -0.21698042995E+02  0.54035174238E+02 -0.17544157263E+03  0.18485223972E+03  0.00000000000E+00 0.  1.
         22    1    3    3    0    0  0.16377377279E+02 -0.31091818039E+02 -0.59340993960E+03  0.59444955719E+03  0.00000000000E+00 0.  1.
</event>
<event>
 7    1  0.5950675E-006  0.4538557E+02  0.7818608E-02  0.1591173E+00
          2   -1    0    0  502    0  0.00000000000E+00  0.00000000000E+00  0.37524750926E+03  0.37524750926E+03  0.00000000000E+00 0. -1.
          1   -1    0    0  501    0 -0.00000000000E+00 -0.00000000000E+00 -0.76451305007E+03  0.76451305007E+03  0.00000000000E+00 0. -1.
         25    2    1    2    0    0 -0.26409826597E+02 -0.45031710256E+01  0.99378607579E+01  0.12821028354E+03  0.12498543211E+03 0.  0.
          2    1    1    2  501    0 -0.19471098592E+02  0.69626080966E+01 -0.70350027619E+03  0.70380412061E+03  0.00000000000E+00 0. -1.
          1    1    1    2  502    0  0.45880925189E+02 -0.24594370710E+01  0.30429687462E+03  0.30774615519E+03  0.00000000000E+00 0. -1.
         22    1    3    3    0    0 -0.46237954974E+02 -0.42947189964E+02 -0.29512239264E+02  0.69666217583E+02  0.00000000000E+00 0. -1.
         22    1    3    3    0    0  0.19828128377E+02  0.38444018938E+02  0.39450100022E+02  0.58544065958E+02  0.00000000000E+00 0. -1.
</event>
<event>
 7    1  0.5950675E-006  0.2904234E+02  0.7818608E-02  0.1666817E+00
          2   -1    0    0  502    0  0.00000000000E+00  0.00000000000E+00  0.13819657600E+03  0.13819657600E+03  0.00000000000E+00 0. -1.
          1   -1    0    0  501    0 -0.00000000000E+00 -0.00000000000E+00 -0.22431965671E+03  0.22431965671E+03  0.00000000000E+00 0. -1.
         25    2    1    2    0    0  0.13066853892E+02  0.60927731024E+01  0.38792487177E+02  0.13167445324E+03  0.12500176006E+03 0.  0.
          2    1    1    2  501    0  0.18601682764E+01  0.20753740645E+02 -0.17274550097E+03  0.17399766114E+03  0.00000000000E+00 0. -1.
          1    1    1    2  502    0 -0.14927022169E+02 -0.26846513747E+02  0.47829933078E+02  0.56844118336E+02  0.00000000000E+00 0. -1.
         22    1    3    3    0    0  0.23935528059E+02  0.68752142718E+01 -0.42713590208E+02  0.49443188238E+02  0.00000000000E+00 0. -1.
         22    1    3    3    0    0 -0.10868674167E+02 -0.78244116947E+00  0.81506077385E+02  0.82231264997E+02  0.00000000000E+00 0. -1.
</event>
<event>
 7    1  0.5950675E-006  0.9065059E+02  0.7818608E-02  0.1326876E+00
          2   -1    0    0  502    0  0.00000000000E+00  0.00000000000E+00  0.96689457558E+03  0.96689457558E+03  0.00000000000E+00 0. -1.
          1   -1    0    0  501    0 -0.00000000000E+00 -0.00000000000E+00 -0.33644453151E+03  0.33644453151E+03  0.00000000000E+00 0. -1.
         25    2    1    2    0    0  0.24116661128E+02  0.62490901402E+02 -0.10937070536E+02  0.14220958499E+03  0.12496887792E+03 0.  0.
          2    1    1    2  501    0  0.43815171057E+02 -0.86257819113E+02 -0.24936464600E+03  0.26747505911E+03  0.00000000000E+00 0. -1.
          1    1    1    2  502    0 -0.67931832185E+02  0.23766917711E+02  0.89075176061E+03  0.89365446299E+03  0.00000000000E+00 0. -1.
         22    1    3    3    0    0 -0.48816638691E+02  0.42053624468E+02 -0.15698162878E+02  0.66317447641E+02  0.00000000000E+00 0. -1.
         22    1    3    3    0    0  0.72933299818E+02  0.20437276934E+02  0.47610923414E+01  0.75892137347E+02  0.00000000000E+00 0. -1.
</event>
<event>
 7    1  0.5950675E-006  0.6569763E+02  0.7818608E-02  0.1535412E+00
          2   -1    0    0  502    0  0.00000000000E+00  0.00000000000E+00  0.16283366707E+03  0.16283366707E+03  0.00000000000E+00 0. -1.
          1   -1    0    0  501    0 -0.00000000000E+00 -0.00000000000E+00 -0.84412885175E+03  0.84412885175E+03  0.00000000000E+00 0. -1.
         25    2    1    2    0    0 -0.22465447170E+02  0.65571363465E+02 -0.24869472627E+03  0.28684060737E+03  0.12499666853E+03 0.  0.
          2    1    1    2  501    0  0.38514824046E+02 -0.53120367097E+02 -0.57376445242E+03  0.57750394971E+03  0.00000000000E+00 0. -1.
          1    1    1    2  502    0 -0.16049376875E+02 -0.12450996368E+02  0.14116399400E+03  0.14261796174E+03  0.00000000000E+00 0. -1.
         22    1    3    3    0    0  0.11399623199E+02  0.70182044012E+02 -0.24171778463E+03  0.25195824678E+03  0.00000000000E+00 0. -1.
         22    1    3    3    0    0 -0.33865070369E+02 -0.46106805478E+01 -0.69769416327E+01  0.34882360596E+02  0.00000000000E+00 0. -1.
</event>
<event>
 7    1  0.5950675E-006  0.2151712E+03  0.7818608E-02  0.1253244E+00
          2   -1    0    0  502    0  0.00000000000E+00  0.00000000000E+00  0.19797575915E+04  0.19797575915E+04  0.00000000000E+00 0. -1.
          1   -1    0    0  501    0 -0.00000000000E+00 -0.00000000000E+00 -0.20881473224E+03  0.20881473224E+03  0.00000000000E+00 0. -1.
         25    2    1    2    0    0  0.22246887900E+01  0.26487672376E+03  0.56199873179E+03  0.63374447899E+03  0.12499944831E+03 0.  0.
          2    1    1    2  501    0  0.38942154254E+01 -0.60328510953E+02 -0.15980912085E+03  0.17086149143E+03  0.00000000000E+00 0. -1.
          1    1    1    2  502    0 -0.61189042154E+01 -0.20454821281E+03  0.13687532483E+04  0.13839663533E+04  0.00000000000E+00 0. -1.
         22    1    3    3    0    0 -0.59733519770E+02  0.14097693841E+03  0.26559549752E+03  0.30656738060E+03  0.00000000000E+00 0.  1.
         22    1    3    3    0    0  0.61958208560E+02  0.12389978536E+03  0.29640323427E+03  0.32717709838E+03  0.00000000000E+00 0.  1.
</event>
<event>
 7    1  0.5950675E-006  0.1884716E+03  0.7818608E-02  0.1199095E+00
          2   -1    0    0  502    0  0.00000000000E+00  0.00000000000E+00  0.47297662917E+03  0.47297662917E+03  0.00000000000E+00 0. -1.
          1   -1    0    0  501    0 -0.00000000000E+00 -0.00000000000E+00 -0.37978159333E+03  0.37978159333E+03  0.00000000000E+00 0. -1.
         25    2    1    2    0    0 -0.12135440480E+03  0.62187479812E+02 -0.18413222867E+03  0.26100782053E+03  0.12500492203E+03 0.  0.
          2    1    1    2  501    0  0.36649400946E+02  0.11550749442E+03 -0.10589145965E+03  0.16092905606E+03  0.00000000000E+00 0. -1.
          1    1    1    2  502    0  0.84705003858E+02 -0.17769497423E+03  0.38321872416E+03  0.43082134591E+03  0.00000000000E+00 0. -1.
         22    1    3    3    0    0 -0.13902990510E+03  0.69927882616E+02 -0.18492560806E+03  0.24169547740E+03  0.00000000000E+00 0.  1.
         22    1    3    3    0    0  0.17675500296E+02 -0.77404028038E+01  0.79337938943E+00  0.19312343129E+02  0.00000000000E+00 0.  1.
</event>
<event>
 7    1  0.5950675E-006  0.3707081E+02  0.7818608E-02  0.1596065E+00
          2   -1    0    0  502    0  0.00000000000E+00  0.00000000000E+00  0.57221418691E+03  0.57221418691E+03  0.00000000000E+00 0. -1.
          1   -1    0    0  501    0 -0.00000000000E+00 -0.00000000000E+00 -0.12661553571E+04  0.12661553571E+04  0.00000000000E+00 0. -1.
         25    2    1    2    0    0 -0.47765748790E+02  0.38818541487E+02  0.21887060783E+03  0.25945803265E+03  0.12500272721E+03 0.  0.
          2    1    1    2  501    0  0.29623997679E+02 -0.22239110482E+02 -0.12451324396E+04  0.12456833271E+04  0.00000000000E+00 0. -1.
          1    1    1    2  502    0  0.18141751111E+02 -0.16579431005E+02  0.33232066159E+03  0.33322818426E+03  0.00000000000E+00 0. -1.
         22    1    3    3    0    0 -0.58539699414E+02  0.64658021707E+02  0.21393331315E+03  0.23103034141E+03  0.00000000000E+00 0.  1.
         22    1    3    3    0    0  0.10773950624E+02 -0.25839480221E+02  0.49372946855E+01  0.28427691235E+02  0.00000000000E+00 0.  1.
</event>
<event>
 7    1  0.5950675E-006  0.2969621E+02  0.7818608E-02  0.1643560E+00
          2   -1    0    0  502    0  0.00000000000E+00  0.00000000000E+00  0.20608193301E+04  0.20608193301E+04  0.00000000000E+00 0. -1.
          1   -1    0    0  501    0 -0.00000000000E+00 -0.00000000000E+00 -0.65612462579E+02  0.65612462579E+02  0.00000000000E+00 0. -1.
         25    2    1    2    0    0 -0.47338470763E+02 -0.14549968708E+02  0.25439989978E+03  0.28774446726E+03  0.12499974811E+03 0.  0.
          2    1    1    2  501    0  0.17773028157E+02  0.14940225059E+02 -0.46057143418E+02  0.51578593568E+02  0.00000000000E+00 0. -1.
          1    1    1    2  502    0  0.29565442607E+02 -0.39025635142E+00  0.17868641111E+04  0.17871087318E+04  0.00000000000E+00 0. -1.
         22    1    3    3    0    0 -0.79728811387E+02 -0.19253004515E+02  0.23675764921E+03  0.25056245929E+03  0.00000000000E+00 0.  1.
         22    1    3    3    0    0  0.32390340624E+02  0.47030358069E+01  0.17642250574E+02  0.37182007972E+02  0.00000000000E+00 0.  1.
</event>
<event>
 7    1  0.5950675E-006  0.6593364E+03  0.7818608E-02  0.1193601E+00
          2   -1    0    0  502    0  0.00000000000E+00  0.00000000000E+00  0.32539170077E+04  0.32539170077E+04  0.00000000000E+00 0. -1.
          1   -1    0    0  501    0 -0.00000000000E+00 -0.00000000000E+00 -0.16739232396E+04  0.16739232396E+04  0.00000000000E+00 0. -1.
         25    2    1    2    0    0 -0.36370365676E+03  0.51222214371E+03  0.61644701953E+03  0.88897808033E+03  0.12499289971E+03 0.  0.
          2    1    1    2  501    0  0.39492534470E+03 -0.53166963558E+03 -0.14661960091E+04  0.16088410009E+04  0.00000000000E+00 0. -1.
          1    1    1    2  502    0 -0.31221687936E+02  0.19447491864E+02  0.24297427577E+04  0.24300211660E+04  0.00000000000E+00 0. -1.
         22    1    3    3    0    0 -0.31366320837E+03  0.49580150280E+03  0.57957116136E+03  0.82468567924E+03  0.00000000000E+00 0. -1.
         22    1    3    3    0    0 -0.50040448389E+02  0.16420640917E+02  0.36875858171E+02  0.64292401098E+02  0.00000000000E+00 0. -1.
</event>
<event>
 7    1  0.5950675E-006  0.4932324E+02  0.7818608E-02  0.1466257E+00
          2   -1    0    0  502    0  0.00000000000E+00  0.00000000000E+00  0.20927661689E+04  0.20927661689E+04  0.00000000000E+00 0. -1.
          1   -1    0    0  501    0 -0.00000000000E+00 -0.00000000000E+00 -0.24754641265E+02  0.24754641265E+02  0.00000000000E+00 0. -1.
         25    2    1    2    0    0 -0.45966381163E+02 -0.22243104709E+02  0.27820571569E+03  0.30924169114E+03  0.12499735754E+03 0.  0.
          2    1    1    2  501    0  0.48299098042E+02 -0.21196684595E+02  0.68648076167E+02  0.86571708259E+02  0.00000000000E+00 0. -1.
          1    1    1    2  502    0 -0.23327168794E+01  0.43439789304E+02  0.17211577358E+04  0.17217074108E+04  0.00000000000E+00 0. -1.
         22    1    3    3    0    0 -0.21945600263E+02  0.51976316922E+02  0.10262428621E+03  0.11711059308E+03  0.00000000000E+00 0. -1.
         22    1    3    3    0    0 -0.24020780900E+02 -0.74219421631E+02  0.17558142948E+03  0.19213109806E+03  0.00000000000E+00 0. -1.
</event>
<event>
 7    1  0.5950675E-006  0.1773529E+03  0.7818608E-02  0.1221316E+00
          2   -1    0    0  502    0  0.00000000000E+00  0.00000000000E+00  0.22663112011E+03  0.22663112011E+03  0.00000000000E+00 0. -1.
          1   -1    0    0  501    0 -0.00000000000E+00 -0.00000000000E+00 -0.94572132405E+03  0.94572132405E+03  0.00000000000E+00 0. -1.
         25    2    1    2    0    0 -0.41688045704E+02  0.76247235951E+02  0.63111702536E+02  0.16480196558E+03  0.12500026687E+03 0.  0.
          2    1    1    2  501    0  0.55134503353E+02 -0.17694000772E+03 -0.85990724563E+03  0.87965223292E+03  0.00000000000E+00 0. -1.
          1    1    1    2  502    0 -0.13446457650E+02  0.10069277177E+03  0.77705339153E+02  0.12789824566E+03  0.00000000000E+00 0. -1.
         22    1    3    3    0    0 -0.46570435283E+02  0.32284901243E+02  0.94761552653E+02  0.11041228261E+03  0.00000000000E+00 0. -1.
         22    1    3    3    0    0  0.48823895790E+01  0.43962334707E+02 -0.31649850118E+02  0.54389682968E+02  0.00000000000E+00 0. -1.
</event>
<event>
 7    1  0.5950675E-006  0.5156777E+02  0.7818608E-02  0.1555305E+00
          2   -1    0    0  502    0  0.00000000000E+00  0.00000000000E+00  0.70335432765E+03  0.70335432765E+03  0.00000000000E+00 0. -1.
          1   -1    0    0  501    0 -0.00000000000E+00 -0.00000000000E+00 -0.24719617058E+03  0.24719617058E+03  0.00000000000E+00 0. -1.
         25    2    1    2    0    0  0.64595189622E+02 -0.49726922125E+01  0.32222520250E+03  0.35164138583E+03  0.12500126765E+03 0.  0.
          2    1    1    2  501    0 -0.49955568979E+02 -0.12449721766E+02 -0.22927740543E+03  0.23498655937E+03  0.00000000000E+00 0. -1.
          1    1    1    2  502    0 -0.14639620643E+02  0.17422413978E+02  0.36321036000E+03  0.36392255304E+03  0.00000000000E+00 0. -1.
         22    1    3    3    0    0 -0.14782900465E+02 -0.45442052189E+02  0.15447310146E+03  0.16169555754E+03  0.00000000000E+00 0.  1.
         22    1    3    3    0    0  0.79378090087E+02  0.40469359976E+02  0.16775210104E+03  0.18994582829E+03  0.00000000000E+00 0.  1.
</event>
<event>
 7    1  0.5950675E-006  0.4226337E+02  0.7818608E-02  0.1505092E+00
          2   -1    0    0  502    0  0.00000000000E+00  0.00000000000E+00  0.28381825583E+03  0.28381825583E+03  0.00000000000E+00 0. -1.
          1   -1    0    0  501    0 -0.00000000000E+00 -0.00000000000E+00 -0.19988898240E+03  0.19988898240E+03  0.00000000000E+00 0. -1.
         25    2    1    2    0    0  0.78284558558E+02  0.14601906513E+02  0.11981087441E+03  0.19058563395E+03  0.12500620168E+03 0.  0.
          2    1    1    2  501    0 -0.39664139939E+02 -0.12634459612E+02 -0.15885114764E+03  0.16421498309E+03  0.00000000000E+00 0. -1.
          1    1    1    2  502    0 -0.38620418619E+02 -0.19674469010E+01  0.12296954666E+03  0.12890662119E+03  0.00000000000E+00 0. -1.
         22    1    3    3    0    0  0.35079100717E+02 -0.54724371777E+02  0.39674147713E+02  0.76153385810E+02  0.00000000000E+00 0.  1.
         22    1    3    3    0    0  0.43205457841E+02  0.69326278290E+02  0.80136726693E+02  0.11443224814E+03  0.00000000000E+00 0.  1.
</event>
<event>
 7    1  0.5950675E-006  0.1465977E+03  0.7818608E-02  0.1289033E+00
          2   -1    0    0  502    0  0.00000000000E+00  0.00000000000E+00  0.16085448278E+03  0.16085448278E+03  0.00000000000E+00 0. -1.
          1   -1    0    0  501    0 -0.00000000000E+00 -0.00000000000E+00 -0.24797168539E+04  0.24797168539E+04  0.00000000000E+00 0. -1.
         25    2    1    2    0    0 -0.56125693731E+02  0.80090556526E+02  0.78785710813E+02  0.17719125679E+03  0.12499985005E+03 0.  0.
          2    1    1    2  501    0  0.42293011954E+02 -0.14135913181E+03 -0.23960091191E+04  0.24005480212E+04  0.00000000000E+00 0. -1.
          1    1    1    2  502    0  0.13832681777E+02  0.61268575286E+02 -0.16389627847E+01  0.62832058710E+02  0.00000000000E+00 0. -1.
         22    1    3    3    0    0 -0.32782819585E+02 -0.61272139836E+00 -0.26738511581E+02  0.42308825191E+02  0.00000000000E+00 0. -1.
         22    1    3    3    0    0 -0.23342874146E+02  0.80703277925E+02  0.10552422239E+03  0.13488243159E+03  0.00000000000E+00 0. -1.
</event>
<event>
 7    1  0.5950675E-006  0.9649629E+02  0.7818608E-02  0.1304407E+00
          2   -1    0    0  502    0  0.00000000000E+00  0.00000000000E+00  0.48204710647E+03  0.48204710647E+03  0.00000000000E+00 0. -1.
          1   -1    0    0  501    0 -0.00000000000E+00 -0.00000000000E+00 -0.40583164040E+03  0.40583164040E+03  0.00000000000E+00 0. -1.
         25    2    1    2    0    0  0.12576838418E+03  0.26715214251E+02  0.49715980626E+02  0.18609221123E+03  0.12500897255E+03 0.  0.
          2    1    1    2  501    0 -0.84955207666E+02  0.45273194049E+02 -0.32589005591E+03  0.33981079728E+03  0.00000000000E+00 0. -1.
          1    1    1    2  502    0 -0.40813176516E+02 -0.71988408300E+02  0.35238954135E+03  0.36197573836E+03  0.00000000000E+00 0. -1.
         22    1    3    3    0    0  0.10308958297E+03 -0.73905228211E+01 -0.19965577221E+02  0.10526493347E+03  0.00000000000E+00 0. -1.
         22    1    3    3    0    0  0.22678801207E+02  0.34105737072E+02  0.69681557847E+02  0.80827277756E+02  0.00000000000E+00 0. -1.
</event>
<event>
 7    1  0.5950675E-006  0.3151271E+02  0.7818608E-02  0.1603061E+00
          2   -1    0    0  502    0  0.00000000000E+00  0.00000000000E+00  0.19930443682E+03  0.19930443682E+03  0.00000000000E+00 0. -1.
          1   -1    0    0  501    0 -0.00000000000E+00 -0.00000000000E+00 -0.34079198937E+03  0.34079198937E+03  0.00000000000E+00 0. -1.
         25    2    1    2    0    0  0.15891021873E+02  0.28368703109E+02  0.87109802731E+02  0.15578989500E+03  0.12500026304E+03 0.  0.
          2    1    1    2  501    0  0.16087669739E+02 -0.22572517514E+02 -0.30239854978E+03  0.30366628817E+03  0.00000000000E+00 0. -1.
          1    1    1    2  502    0 -0.31978691612E+02 -0.57961855949E+01  0.73801194492E+02  0.80640243013E+02  0.00000000000E+00 0. -1.
         22    1    3    3    0    0 -0.35581157580E+02  0.27125297793E+02  0.93747282456E+02  0.10387662645E+03  0.00000000000E+00 0. -1.
         22    1    3    3    0    0  0.51472179453E+02  0.12434053160E+01 -0.66374797251E+01  0.51913268550E+02  0.00000000000E+00 0. -1.
</event>
<event>
 7    1  0.5950675E-006  0.1905116E+03  0.7818608E-02  0.1178767E+00
          2   -1    0    0  502    0  0.00000000000E+00  0.00000000000E+00  0.11779470810E+03  0.11779470810E+03  0.00000000000E+00 0. -1.
          1   -1    0    0  501    0 -0.00000000000E+00 -0.00000000000E+00 -0.13228769054E+04  0.13228769054E+04  0.00000000000E+00 0. -1.
         25    2    1    2    0    0  0.76710407552E+02  0.12443907826E+03 -0.57913866724E+03  0.61024273791E+03  0.12500012980E+03 0.  0.
          2    1    1    2  501    0 -0.12968754237E+03  0.75639699968E+02 -0.60390257808E+03  0.62228494009E+03  0.00000000000E+00 0. -1.
          1    1    1    2  502    0  0.52977134815E+02 -0.20007877822E+03 -0.22040951950E+02  0.20814393547E+03  0.00000000000E+00 0. -1.
         22    1    3    3    0    0  0.15170870019E+02  0.36826773308E+02 -0.27719553068E+02  0.48525664876E+02  0.00000000000E+00 0.  1.
         22    1    3    3    0    0  0.61539537533E+02  0.87612304948E+02 -0.55141911417E+03  0.56171707303E+03  0.00000000000E+00 0.  1.
</event>
<event>
 7    1  0.5950675E-006  0.4374343E+02  0.7818608E-02  0.1493718E+00
          2   -1    0    0  502    0  0.00000000000E+00  0.00000000000E+00  0.28988416107E+02  0.28988416107E+02  0.00000000000E+00 0. -1.
          1   -1    0    0  501    0 -0.00000000000E+00 -0.00000000000E+00 -0.20155344420E+04  0.20155344420E+04  0.00000000000E+00 0. -1.
         25    2    1    2    0    0  0.51014026899E+02  0.33488181889E+02 -0.65677140862E+03  0.67134046827E+03  0.12500180756E+03 0.  0.
          2    1    1    2  501    0 -0.43165793871E+02  0.61441147568E+01 -0.13320055331E+04  0.13327189411E+04  0.00000000000E+00 0. -1.
          1    1    1    2  502    0 -0.78482330284E+01 -0.39632296646E+02  0.22309157618E+01  0.40463448744E+02  0.00000000000E+00 0. -1.
         22    1    3    3    0    0  0.87594005794E+02  0.44825349521E+02 -0.52389684666E+03  0.53305715242E+03  0.00000000000E+00 0.  1.
         22    1    3    3    0    0 -0.36579978894E+02 -0.11337167632E+02 -0.13287456196E+03  0.13828331585E+03  0.00000000000E+00 0.  1.
</event>
<event>
 7    1  0.5950675E-006  0.3221279E+02  0.7818608E-02  0.1576276E+00
          2   -1    0    0  502    0  0.00000000000E+00  0.00000000000E+00  0.56192786589E+03  0.56192786589E+03  0.00000000000E+00 0. -1.
          1   -1    0    0  501    0 -0.00000000000E+00 -0.00000000000E+00 -0.25310935251E+03  0.25310935251E+03  0.00000000000E+00 0. -1.
         25    2    1    2    0    0 -0.53232313888E+00  0.74735608419E+01  0.28849537859E+02  0.12850163188E+03  0.12499694428E+03 0.  0.
          2    1    1    2  501    0  0.31904351063E+02  0.12101910667E+01 -0.20147670024E+03  0.20399071773E+03  0.00000000000E+00 0. -1.
          1    1    1    2  502    0 -0.31372027924E+02 -0.86837519087E+01  0.48144567576E+03  0.48254486879E+03  0.00000000000E+00 0. -1.
         22    1    3    3    0    0 -0.33131407426E+02  0.35703033423E+02  0.58534413314E+02  0.76149026886E+02  0.00000000000E+00 0. -1.
         22    1    3    3    0    0  0.32599084287E+02 -0.28229472581E+02 -0.29684875455E+02  0.52352604991E+02  0.00000000000E+00 0. -1.
</event>
<event>
 7    1  0.5950675E-006  0.4543927E+02  0.7818608E-02  0.1573909E+00
          2   -1    0    0  502    0  0.00000000000E+00  0.00000000000E+00  0.22789464075E+03  0.22789464075E+03  0.00000000000E+00 0. -1.
          1   -1    0    0  501    0 -0.00000000000E+00 -0.00000000000E+00 -0.14855045221E+03  0.14855045221E+03  0.00000000000E+00 0. -1.
         25    2    1    2    0    0  0.60584453374E+00 -0.41639344578E+02  0.74106176451E+02  0.15116455294E+03  0.12499917845E+03 0.  0.
          2    1    1    2  501    0 -0.23462882811E+02  0.39370730924E+02 -0.10400143999E+03  0.11365236840E+03  0.00000000000E+00 0. -1.
          1    1    1    2  502    0  0.22857038277E+02  0.22686136536E+01  0.10923945208E+03  0.11162817161E+03  0.00000000000E+00 0. -1.
         22    1    3    3    0    0  0.54506981114E+02  0.86135598446E+01  0.16408393882E+02  0.57571171546E+02  0.00000000000E+00 0.  1.
         22    1    3    3    0    0 -0.53901136580E+02 -0.50252904422E+02  0.57697782569E+02  0.93593381395E+02  0.00000000000E+00 0.  1.
</event>
<event>
 7    1  0.5950675E-006  0.8006748E+02  0.7818608E-02  0.1460096E+00
          2   -1    0    0  502    0  0.00000000000E+00  0.00000000000E+00  0.36711371705E+02  0.36711371705E+02  0.00000000000E+00 0. -1.
          1   -1    0    0  501    0 -0.00000000000E+00 -0.00000000000E+00 -0.11226580646E+04  0.11226580646E+04  0.00000000000E+00 0. -1.
         25    2    1    2    0    0  0.39278471840E+01  0.10197896067E+03 -0.40987441293E+03  0.44049686138E+03  0.12500125643E+03 0.  0.
          2    1    1    2  501    0  0.90930741155E+01 -0.26502823640E+02 -0.62761427361E+03  0.62823941304E+03  0.00000000000E+00 0. -1.
          1    1    1    2  502    0 -0.13020921300E+02 -0.75476137028E+02 -0.48458006344E+02  0.90633161872E+02  0.00000000000E+00 0. -1.
         22    1    3    3    0    0  0.13776778733E+02  0.13032711026E+03 -0.34360276604E+03  0.36774694579E+03  0.00000000000E+00 0.  1.
         22    1    3    3    0    0 -0.98489315488E+01 -0.28348149596E+02 -0.66271646886E+02  0.72749915596E+02  0.00000000000E+00 0.  1.
</event>
<event>
 7    1  0.5950675E-006  0.2881604E+03  0.7818608E-02  0.1219483E+00
          2   -1    0    0  502    0  0.00000000000E+00  0.00000000000E+00  0.17354495036E+04  0.17354495036E+04  0.00000000000E+00 0. -1.
          1   -1    0    0  501    0 -0.00000000000E+00 -0.00000000000E+00 -0.12566290111E+03  0.12566290111E+03  0.00000000000E+00 0. -1.
         25    2    1    2    0    0  0.20080613311E+03 -0.14224257152E+03  0.69271353114E+03  0.74567623581E+03  0.12499984069E+03 0.  0.
          2    1    1    2  501    0 -0.22574835243E+03  0.20089658373E+03  0.13535401606E+03  0.33112303701E+03  0.00000000000E+00 0. -1.
          1    1    1    2  502    0  0.24942219316E+02 -0.58654012203E+02  0.78171905533E+03  0.78431313193E+03  0.00000000000E+00 0. -1.
         22    1    3    3    0    0  0.16633661707E+03 -0.44812229701E+02  0.45199651469E+03  0.48371154152E+03  0.00000000000E+00 0. -1.
         22    1    3    3    0    0  0.34469516047E+02 -0.97430341824E+02  0.24071701645E+03  0.26196469429E+03  0.00000000000E+00 0. -1.
</event>
<event>
 7    1  0.5950675E-006  0.5930327E+02  0.7818608E-02  0.1451032E+00
          2   -1    0    0  502    0  0.00000000000E+00  0.00000000000E+00  0.16139370352E+03  0.16139370352E+03  0.00000000000E+00 0. -1.
          1   -1    0    0  501    0 -0.00000000000E+00 -0.00000000000E+00 -0.37920867948E+03  0.37920867948E+03  0.00000000000E+00 0. -1.
         25    2    1    2    0    0  0.81179796342E+02  0.20626583599E+02  0.68523296922E+01  0.15062520487E+03  0.12500153053E+03 0.  0.
          2    1    1    2  501    0 -0.44709927879E+02 -0.38056400170E+02 -0.29935209475E+03  0.30505564062E+03  0.00000000000E+00 0. -1.
          1    1    1    2  502    0 -0.36469868463E+02  0.17429816571E+02  0.74684789090E+02  0.84921537508E+02  0.00000000000E+00 0. -1.
         22    1    3    3    0    0  0.17346002708E+02 -0.50269764200E+02  0.13902786383E+02  0.54965629914E+02  0.00000000000E+00 0. -1.
         22    1    3    3    0    0  0.63833793634E+02  0.70896347798E+02 -0.70504566905E+01  0.95659574954E+02  0.00000000000E+00 0. -1.
</event>
<event>
 7    1  0.5950675E-006  0.1991169E+03  0.7818608E-02  0.1161835E+00
          2   -1    0    0  502    0  0.00000000000E+00  0.00000000000E+00  0.11046481994E+04  0.11046481994E+04  0.00000000000E+00 0. -1.
          1   -1    0    0  501    0 -0.00000000000E+00 -0.00000000000E+00 -0.64681290662E+03  0.64681290662E+03  0.00000000000E+00 0. -1.
         25    2    1    2    0    0  0.15759710970E+03  0.28156736850E+03 -0.10218773198E+03  0.36081129638E+03  0.12500170813E+03 0.  0.
          2    1    1    2  501    0 -0.14832453760E+03 -0.10749395177E+03 -0.38676318179E+03  0.42794961960E+03  0.00000000000E+00 0. -1.
          1    1    1    2  502    0 -0.92725721025E+01 -0.17407341673E+03  0.94678620651E+03  0.96270019001E+03  0.00000000000E+00 0. -1.
         22    1    3    3    0    0  0.16005870272E+03  0.19736130371E+03 -0.42667906931E+02  0.25766416670E+03  0.00000000000E+00 0. -1.
         22    1    3    3    0    0 -0.24615930134E+01  0.84206064793E+02 -0.59519825047E+02  0.10314712968E+03  0.00000000000E+00 0. -1.
</event>
<event>
 7    1  0.5950675E-006  0.1562364E+03  0.7818608E-02  0.1362674E+00
          2   -1    0    0  502    0  0.00000000000E+00  0.00000000000E+00  0.12277526634E+04  0.12277526634E+04  0.00000000000E+00 0. -1.
          1   -1    0    0  501    0 -0.00000000000E+00 -0.00000000000E+00 -0.65863993799E+02  0.65863993799E+02  0.00000000000E+00 0. -1.
         25    2    1    2    0    0 -0.78186384830E+02  0.11151059431E+03  0.14324450763E+03  0.23386251061E+03  0.12499984594E+03 0.  0.
          2    1    1    2  501    0  0.57007601420E+01  0.30157011199E+02  0.20276317721E+01  0.30758011659E+02  0.00000000000E+00 0. -1.
          1    1    1    2  502    0  0.72485624688E+02 -0.14166760551E+03  0.10166165302E+04  0.10289961349E+04  0.00000000000E+00 0. -1.
         22    1    3    3    0    0 -0.99256519372E+02  0.96585150846E+02  0.67953103484E+02  0.15426656240E+03  0.00000000000E+00 0. -1.
         22    1    3    3    0    0  0.21070134542E+02  0.14925443461E+02  0.75291404148E+02  0.79595948205E+02  0.00000000000E+00 0. -1.
</event>
<event>
 7    1  0.5950675E-006  0.1054241E+03  0.7818608E-02  0.1333086E+00
          2   -1    0    0  502    0  0.00000000000E+00  0.00000000000E+00  0.11995665769E+03  0.11995665769E+03  0.00000000000E+00 0. -1.
          1   -1    0    0  501    0 -0.00000000000E+00 -0.00000000000E+00 -0.17331442817E+04  0.17331442817E+04  0.00000000000E+00 0. -1.
         25    2    1    2    0    0 -0.88729319981E+02  0.25357541822E+02 -0.73760802270E+03  0.75379483531E+03  0.12500064570E+03 0.  0.
          2    1    1    2  501    0  0.11126697741E+03  0.28728484391E+02 -0.97616122708E+03  0.98290203343E+03  0.00000000000E+00 0. -1.
          1    1    1    2  502    0 -0.22537657431E+02 -0.54086026212E+02  0.10058162574E+03  0.11640407068E+03  0.00000000000E+00 0. -1.
         22    1    3    3    0    0 -0.66348553381E+02  0.65182307727E+02 -0.63090364783E+03  0.63772272707E+03  0.00000000000E+00 0.  1.
         22    1    3    3    0    0 -0.22380766600E+02 -0.39824765905E+02 -0.10670437487E+03  0.11607210823E+03  0.00000000000E+00 0.  1.
</event>
<event>
 7    1  0.5950675E-006  0.1703274E+03  0.7818608E-02  0.1220208E+00
          2   -1    0    0  502    0  0.00000000000E+00  0.00000000000E+00  0.33131608534E+03  0.33131608534E+03  0.00000000000E+00 0. -1.
          1   -1    0    0  501    0 -0.00000000000E+00 -0.00000000000E+00 -0.10618145557E+04  0.10618145557E+04  0.00000000000E+00 0. -1.
         25    2    1    2    0    0  0.62143070431E+02 -0.68356855056E+02 -0.81226907906E+02  0.17537345260E+03  0.12499446576E+03 0.  0.
          2    1    1    2  501    0 -0.65821644436E+02  0.17530659904E+03 -0.91359748598E+03  0.93259061701E+03  0.00000000000E+00 0. -1.
          1    1    1    2  502    0  0.36785740052E+01 -0.10694974399E+03  0.26432592350E+03  0.28516657146E+03  0.00000000000E+00 0. -1.
         22    1    3    3    0    0  0.95572782136E+01  0.30879043579E+02  0.63671943217E+01  0.32945379991E+02  0.00000000000E+00 0. -1.
         22    1    3    3    0    0  0.52585792217E+02 -0.99235898635E+02 -0.87594102227E+02  0.14242807261E+03  0.00000000000E+00 0. -1.
</event>
<event>
 7    1  0.5950675E-006  0.1058674E+03  0.7818608E-02  0.1338988E+00
          2   -1    0    0  502    0  0.00000000000E+00  0.00000000000E+00  0.44759754951E+04  0.44759754951E+04  0.00000000000E+00 0. -1.
          1   -1    0    0  501    0 -0.00000000000E+00 -0.00000000000E+00 -0.31516926754E+03  0.31516926754E+03  0.00000000000E+00 0. -1.
         25    2    1    2    0    0 -0.25875368773E+02  0.46781222301E+02  0.91783110724E+03  0.92784585620E+03  0.12500389589E+03 0.  0.
          2    1    1    2  501    0  0.70416943649E+02 -0.79762625711E+02 -0.30081406044E+03  0.31907635665E+03  0.00000000000E+00 0. -1.
          1    1    1    2  502    0 -0.44541574876E+02  0.32981403411E+02  0.35437891807E+04  0.35442225498E+04  0.00000000000E+00 0. -1.
         22    1    3    3    0    0  0.43062029297E+02  0.97009426041E+01  0.55050850706E+03  0.55227535071E+03  0.00000000000E+00 0. -1.
         22    1    3    3    0    0 -0.68937398070E+02  0.37080279697E+02  0.36732260018E+03  0.37557050550E+03  0.00000000000E+00 0. -1.
</event>
<event>
 7    1  0.5950675E-006  0.7419273E+02  0.7818608E-02  0.1359455E+00
          2   -1    0    0  502    0  0.00000000000E+00  0.00000000000E+00  0.22252247925E+04  0.22252247925E+04  0.00000000000E+00 0. -1.
          1   -1    0    0  501    0 -0.00000000000E+00 -0.00000000000E+00 -0.25856555273E+03  0.25856555273E+03  0.00000000000E+00 0. -1.
         25    2    1    2    0    0 -0.95549579052E+02  0.87975475247E+02  0.22026037662E+03  0.28462080078E+03  0.12499984170E+03 0.  0.
          2    1    1    2  501    0  0.33221861868E+02 -0.65081732095E+02 -0.21991404009E+03  0.23173586038E+03  0.00000000000E+00 0. -1.
          1    1    1    2  502    0  0.62327717184E+02 -0.22893743152E+02  0.19663129032E+04  0.19674336840E+04  0.00000000000E+00 0. -1.
         22    1    3    3    0    0 -0.74849077935E+02  0.41820198968E+02  0.21769501555E+03  0.23397100954E+03  0.00000000000E+00 0. -1.
         22    1    3    3    0    0 -0.20700501117E+02  0.46155276279E+02  0.25653610671E+01  0.50649791237E+02  0.00000000000E+00 0. -1.
</event>
<event>
 7    1  0.5950675E-006  0.4095270E+02  0.7818608E-02  0.1574842E+00
          2   -1    0    0  502    0  0.00000000000E+00  0.00000000000E+00  0.15297803536E+04  0.15297803536E+04  0.00000000000E+00 0. -1.
          1   -1    0    0  501    0 -0.00000000000E+00 -0.00000000000E+00 -0.12319866872E+03  0.12319866872E+03  0.00000000000E+00 0. -1.
         25    2    1    2    0    0  0.20011850808E+02  0.11559981603E+02  0.10549745124E+04  0.10626052426E+04  0.12499828979E+03 0.  0.
          2    1    1    2  501    0 -0.18083584780E+02 -0.36824719938E+02 -0.11550525454E+03  0.12257462977E+03  0.00000000000E+00 0. -1.
          1    1    1    2  502    0 -0.19282660280E+01  0.25264738335E+02  0.46711242700E+03  0.46779914993E+03  0.00000000000E+00 0. -1.
         22    1    3    3    0    0 -0.39210893450E+02 -0.11094253051E+02  0.75013440422E+03  0.75124044154E+03  0.00000000000E+00 0.  1.
         22    1    3    3    0    0  0.59222744258E+02  0.22654234654E+02  0.30484010818E+03  0.31136480107E+03  0.00000000000E+00 0.  1.
</event>
<event>
 7    1  0.5950675E-006  0.6074331E+02  0.7818608E-02  0.1423370E+00
          2   -1    0    0  502    0  0.00000000000E+00  0.00000000000E+00  0.46531080867E+03  0.46531080867E+03  0.00000000000E+00 0. -1.
          1   -1    0    0  501    0 -0.00000000000E+00 -0.00000000000E+00 -0.19112719708E+03  0.19112719708E+03  0.00000000000E+00 0. -1.
         25    2    1    2    0    0  0.19565299189E+02  0.33221811879E+01  0.20250963809E+02  0.12818186818E+03  0.12500660772E+03 0.  0.
          2    1    1    2  501    0 -0.62171220008E+02  0.19988081523E+02 -0.12776164013E+03  0.14348456604E+03  0.00000000000E+00 0. -1.
          1    1    1    2  502    0  0.42605920820E+02 -0.23310262711E+02  0.38169428792E+03  0.38477157154E+03  0.00000000000E+00 0. -1.
         22    1    3    3    0    0  0.44168853253E+02  0.53656284182E+02  0.30059185000E+01  0.69562345963E+02  0.00000000000E+00 0. -1.
         22    1    3    3    0    0 -0.24603554064E+02 -0.50334102994E+02  0.17245045309E+02  0.58619522214E+02  0.00000000000E+00 0. -1.
</event>
<event>
 7    1  0.5950675E-006  0.9788746E+02  0.7818608E-02  0.1304881E+00
          2   -1    0    0  502    0  0.00000000000E+00  0.00000000000E+00  0.11144550299E+04  0.11144550299E+04  0.00000000000E+00 0. -1.
          1   -1    0    0  501    0 -0.00000000000E+00 -0.00000000000E+00 -0.45520919718E+03  0.45520919718E+03  0.00000000000E+00 0. -1.
         25    2    1    2    0    0  0.50004042634E+02 -0.10991106535E+03 -0.10445116535E+03  0.20277063606E+03  0.12500015336E+03 0.  0.
          2    1    1    2  501    0 -0.90238593431E+02  0.39352503661E+02 -0.29196290731E+03  0.30811355461E+03  0.00000000000E+00 0. -1.
          1    1    1    2  502    0  0.40234550796E+02  0.70558561690E+02  0.10556599054E+04  0.10587800365E+04  0.00000000000E+00 0. -1.
         22    1    3    3    0    0  0.82361729401E+02 -0.58929218313E+02 -0.27468582452E+02  0.10493155037E+03  0.00000000000E+00 0. -1.
         22    1    3    3    0    0 -0.32357686767E+02 -0.50981847038E+02 -0.76982582894E+02  0.97839085693E+02  0.00000000000E+00 0. -1.
</event>
<event>
 7    1  0.5950675E-006  0.3102670E+03  0.7818608E-02  0.1192067E+00
          2   -1    0    0  502    0  0.00000000000E+00  0.00000000000E+00  0.11674231447E+04  0.11674231447E+04  0.00000000000E+00 0. -1.
          1   -1    0    0  501    0 -0.00000000000E+00 -0.00000000000E+00 -0.72788309146E+03  0.72788309146E+03  0.00000000000E+00 0. -1.
         25    2    1    2    0    0 -0.22973317307E+03 -0.16844895404E+03  0.23044950387E+03  0.38714925190E+03  0.12500075397E+03 0.  0.
          2    1    1    2  501    0  0.20030090931E+03  0.24229579547E+03 -0.60945654088E+03  0.68575869079E+03  0.00000000000E+00 0. -1.
          1    1    1    2  502    0  0.29432263757E+02 -0.73846841435E+02  0.81854709022E+03  0.82239829344E+03  0.00000000000E+00 0. -1.
         22    1    3    3    0    0 -0.93237557126E+02 -0.73119630763E+01  0.10867262498E+03  0.14337519410E+03  0.00000000000E+00 0.  1.
         22    1    3    3    0    0 -0.13649561594E+03 -0.16113699096E+03  0.12177687889E+03  0.24377405781E+03  0.00000000000E+00 0.  1.
</event>
<event>
 7    1  0.5950675E-006  0.1058365E+03  0.7818608E-02  0.1438032E+00
          2   -1    0    0  502    0  0.00000000000E+00  0.00000000000E+00  0.14221051496E+03  0.14221051496E+03  0.00000000000E+00 0. -1.
          1   -1    0    0  501    0 -0.00000000000E+00 -0.00000000000E+00 -0.78689360734E+03  0.78689360734E+03  0.00000000000E+00 0. -1.
         25    2    1    2    0    0  0.78754535770E+02  0.75728219139E+02 -0.15375675743E+03  0.22628108410E+03  0.12499979396E+03 0.  0.
          2    1    1    2  501    0 -0.90920801635E+02 -0.53952249421E+02 -0.59064470100E+03  0.60003216598E+03  0.00000000000E+00 0. -1.
          1    1    1    2  502    0  0.12166265865E+02 -0.21775969719E+02  0.99718366058E+02  0.10279087222E+03  0.00000000000E+00 0. -1.
         22    1    3    3    0    0  0.60725099464E+02  0.98116786024E+02 -0.63818368740E+02  0.13186062943E+03  0.00000000000E+00 0. -1.
         22    1    3    3    0    0  0.18029436306E+02 -0.22388566885E+02 -0.89938388692E+02  0.94420454676E+02  0.00000000000E+00 0. -1.
</event>
<event>
 7    1  0.5950675E-006  0.6254222E+02  0.7818608E-02  0.1388057E+00
          2   -1    0    0  502    0  0.00000000000E+00  0.00000000000E+00  0.30716616422E+02  0.30716616422E+02  0.00000000000E+00 0. -1.
          1   -1    0    0  501    0 -0.00000000000E+00 -0.00000000000E+00 -0.25814126444E+04  0.25814126444E+04  0.00000000000E+00 0. -1.
         25    2    1    2    0    0 -0.22586569785E+02 -0.22533483211E+02 -0.31367467260E+03  0.33916727706E+03  0.12499892240E+03 0.  0.
          2    1    1    2  501    0 -0.47716713026E+02  0.40430732170E+02 -0.21794525363E+04  0.21803497166E+04  0.00000000000E+00 0. -1.
          1    1    1    2  502    0  0.70303282811E+02 -0.17897248959E+02 -0.57568819098E+02  0.92612267150E+02  0.00000000000E+00 0. -1.
         22    1    3    3    0    0 -0.71175776217E+02 -0.30992405659E+02 -0.16128889747E+03  0.17899896306E+03  0.00000000000E+00 0.  1.
         22    1    3    3    0    0  0.48589206432E+02  0.84589224474E+01 -0.15238577512E+03  0.16016831400E+03  0.00000000000E+00 0.  1.
</event>
<event>
 7    1  0.5950675E-006  0.1190922E+03  0.7818608E-02  0.1422844E+00
          2   -1    0    0  502    0  0.00000000000E+00  0.00000000000E+00  0.19942026593E+04  0.19942026593E+04  0.00000000000E+00 0. -1.
          1   -1    0    0  501    0 -0.00000000000E+00 -0.00000000000E+00 -0.18891168541E+03  0.18891168541E+03  0.00000000000E+00 0. -1.
         25    2    1    2    0    0 -0.10200411895E+03  0.93050405507E+02  0.39622422689E+03  0.43781546585E+03  0.12500210364E+03 0.  0.
          2    1    1    2  501    0  0.24288005382E+02 -0.53535722078E+01 -0.16500642214E+03  0.16687027083E+03  0.00000000000E+00 0. -1.
          1    1    1    2  502    0  0.77716113565E+02 -0.87696833299E+02  0.15740731692E+04  0.15784286081E+04  0.00000000000E+00 0. -1.
         22    1    3    3    0    0 -0.66636811440E+02 -0.10074247191E+02  0.22458877674E+03  0.23448256595E+03  0.00000000000E+00 0. -1.
         22    1    3    3    0    0 -0.35367307506E+02  0.10312465270E+03  0.17163545014E+03  0.20333289990E+03  0.00000000000E+00 0. -1.
</event>
<event>
 7    1  0.5950675E-006  0.7996672E+02  0.7818608E-02  0.1395417E+00
          2   -1    0    0  502    0  0.00000000000E+00  0.00000000000E+00  0.19568592223E+02  0.19568592223E+02  0.00000000000E+00 0. -1.
          1   -1    0    0  501    0 -0.00000000000E+00 -0.00000000000E+00 -0.13223387481E+04  0.13223387481E+04  0.00000000000E+00 0. -1.
         25    2    1    2    0    0 -0.47329643612E+02  0.89230741915E+01 -0.55205426048E+03  0.56807419163E+03  0.12499865709E+03 0.  0.
          2    1    1    2  501    0  0.92312227161E+02  0.16772422307E+00 -0.69741469820E+03  0.70349757404E+03  0.00000000000E+00 0. -1.
          1    1    1    2  502    0 -0.44982583550E+02 -0.90907984146E+01 -0.53301197219E+02  0.70335574666E+02  0.00000000000E+00 0. -1.
         22    1    3    3    0    0 -0.91009037141E+01 -0.16361343121E+02 -0.53771270689E+01  0.19479052663E+02  0.00000000000E+00 0. -1.
         22    1    3    3    0    0 -0.38228739898E+02  0.25284417313E+02 -0.54667713341E+03  0.54859513897E+03  0.00000000000E+00 0. -1.
</event>
<event>
 7    1  0.7482161E-006  0.7598788E+02  0.7818608E-02  0.1405236E+00
          2   -1    0    0  502    0  0.00000000000E+00  0.00000000000E+00  0.12518571470E+04  0.12518571470E+04  0.00000000000E+00 0. -1.
          1   -1    0    0  501    0 -0.00000000000E+00 -0.00000000000E+00 -0.91674514204E+03  0.91674514204E+03  0.00000000000E+00 0. -1.
         25    2    1    2    0    0 -0.16226678248E+02  0.32647088312E+02 -0.76155320462E+02  0.15084201811E+03  0.12499817650E+03 0.  0.
          2    1    1    2  501    0  0.10056641439E+02  0.43537914716E+02 -0.80142089644E+03  0.80266564603E+03  0.00000000000E+00 0. -1.
          1    1    1    2  502    0  0.61700368093E+01 -0.76185003028E+02  0.12126882218E+04  0.12150946249E+04  0.00000000000E+00 0. -1.
         22    1    3    3    0    0 -0.37989614474E+02 -0.30825099551E+02 -0.67238019140E+02  0.83152563328E+02  0.00000000000E+00 0. -1.
         22    1    3    3    0    0  0.21762936226E+02  0.63472187863E+02 -0.89173013222E+01  0.67689454778E+02  0.00000000000E+00 0. -1.
</event>
<event>
 7    1  0.5950675E-006  0.4284319E+02  0.7818608E-02  0.1538972E+00
          2   -1    0    0  502    0  0.00000000000E+00  0.00000000000E+00  0.26669626213E+03  0.26669626213E+03  0.00000000000E+00 0. -1.
          1   -1    0    0  501    0 -0.00000000000E+00 -0.00000000000E+00 -0.73945266195E+02  0.73945266195E+02  0.00000000000E+00 0. -1.
         25    2    1    2    0    0  0.58981481227E+02  0.48647604779E+01  0.61064195808E+02  0.15118002817E+03  0.12499633548E+03 0.  0.
          2    1    1    2  501    0 -0.20573701476E+02 -0.22424359960E+02 -0.17024011465E+02  0.34870418386E+02  0.00000000000E+00 0. -1.
          1    1    1    2  502    0 -0.38407779751E+02  0.17559599482E+02  0.14871081159E+03  0.15459108177E+03  0.00000000000E+00 0. -1.
         22    1    3    3    0    0  0.28245008002E+01  0.58906494752E+02  0.36969549419E+02  0.69603882887E+02  0.00000000000E+00 0.  1.
         22    1    3    3    0    0  0.56156980427E+02 -0.54041734274E+02  0.24094646388E+02  0.81576145279E+02  0.00000000000E+00 0.  1.
</event>
<event>
 7    1  0.5950675E-006  0.7476930E+02  0.7818608E-02  0.1441004E+00
          2   -1    0    0  502    0  0.00000000000E+00  0.00000000000E+00  0.11992124780E+04  0.11992124780E+04  0.00000000000E+00 0. -1.
          1   -1    0    0  501    0 -0.00000000000E+00 -0.00000000000E+00 -0.64043292511E+02  0.64043292511E+02  0.00000000000E+00 0. -1.
         25    2    1    2    0    0 -0.35630391560E+02  0.29540866319E+02  0.17593709138E+03  0.22073296582E+03  0.12500797772E+03 0.  0.
          2    1    1    2  501    0  0.66081110998E+02 -0.45827637337E+02 -0.22230836048E+01  0.80447670416E+02  0.00000000000E+00 0. -1.
          1    1    1    2  502    0 -0.30450719438E+02  0.16286771018E+02  0.96145517771E+03  0.96207513427E+03  0.00000000000E+00 0. -1.
         22    1    3    3    0    0 -0.23027234970E+02 -0.25325604062E+02  0.15797601871E+03  0.16164177139E+03  0.00000000000E+00 0. -1.
         22    1    3    3    0    0 -0.12603156590E+02  0.54866470381E+02  0.17961072668E+02  0.59091194433E+02  0.00000000000E+00 0. -1.
</event>
<event>
 7    1  0.5950675E-006  0.8222543E+02  0.7818608E-02  0.1444789E+00
          2   -1    0    0  502    0  0.00000000000E+00  0.00000000000E+00  0.35420798280E+04  0.35420798280E+04  0.00000000000E+00 0. -1.
          1   -1    0    0  501    0 -0.00000000000E+00 -0.00000000000E+00 -0.65328244336E+02  0.65328244336E+02  0.00000000000E+00 0. -1.
         25    2    1    2    0    0 -0.39383434844E+02  0.34079131528E+02  0.24541589324E+04  0.24578921912E+04  0.12500206387E+03 0.  0.
          2    1    1    2  501    0  0.63899449484E+02 -0.52272441184E+02 -0.36299114819E+02  0.90184108846E+02  0.00000000000E+00 0. -1.
          1    1    1    2  502    0 -0.24516014641E+02  0.18193309656E+02  0.10588917661E+04  0.10593317723E+04  0.00000000000E+00 0. -1.
         22    1    3    3    0    0  0.19199846706E+02  0.17388124900E+02  0.19347688507E+04  0.19349422437E+04  0.00000000000E+00 0.  1.
         22    1    3    3    0    0 -0.58583281549E+02  0.16691006627E+02  0.51939008176E+03  0.52294994752E+03  0.00000000000E+00 0.  1.
</event>
<event>
 7    1  0.5950675E-006  0.1059608E+03  0.7818608E-02  0.1449543E+00
          2   -1    0    0  502    0  0.00000000000E+00  0.00000000000E+00  0.40852439169E+03  0.40852439169E+03  0.00000000000E+00 0. -1.
          1   -1    0    0  501    0 -0.00000000000E+00 -0.00000000000E+00 -0.13092915043E+03  0.13092915043E+03  0.00000000000E+00 0. -1.
         25    2    1    2    0    0  0.61554576936E+02 -0.11061288204E+03  0.84739341602E+01  0.17810176481E+03  0.12499702178E+03 0.  0.
          2    1    1    2  501    0 -0.13100944148E+02  0.18748030642E+02 -0.33974070086E+02  0.40955595817E+02  0.00000000000E+00 0. -1.
          1    1    1    2  502    0 -0.48453632788E+02  0.91864851394E+02  0.30309537718E+03  0.32039618150E+03  0.00000000000E+00 0. -1.
         22    1    3    3    0    0  0.57216897225E+02 -0.12636684946E+03  0.38462482495E+02  0.14395039608E+03  0.00000000000E+00 0. -1.
         22    1    3    3    0    0  0.43376797107E+01  0.15753967425E+02 -0.29988548335E+02  0.34151368730E+02  0.00000000000E+00 0. -1.
</event>
<event>
 7    1  0.5950675E-006  0.1731650E+03  0.7818608E-02  0.1310164E+00
          2   -1    0    0  502    0  0.00000000000E+00  0.00000000000E+00  0.13190463976E+04  0.13190463976E+04  0.00000000000E+00 0. -1.
          1   -1    0    0  501    0 -0.00000000000E+00 -0.00000000000E+00 -0.73342486535E+03  0.73342486535E+03  0.00000000000E+00 0. -1.
         25    2    1    2    0    0 -0.19687896492E+03 -0.68135451365E+02  0.50555585405E+03  0.56090902346E+03  0.12501377715E+03 0.  0.
          2    1    1    2  501    0  0.15412943682E+03  0.77471943692E+02 -0.69458039993E+03  0.71568129591E+03  0.00000000000E+00 0. -1.
          1    1    1    2  502    0  0.42749528103E+02 -0.93364923274E+01  0.77464607815E+03  0.77588094360E+03  0.00000000000E+00 0. -1.
         22    1    3    3    0    0 -0.69136987368E+02 -0.82844958010E+02  0.29591849475E+03  0.31497772243E+03  0.00000000000E+00 0.  1.
         22    1    3    3    0    0 -0.12774197755E+03  0.14709506645E+02  0.20963735929E+03  0.24593130103E+03  0.00000000000E+00 0.  1.
</event>
<event>
 7    1  0.5950675E-006  0.1390851E+03  0.7818608E-02  0.1284442E+00
          2   -1    0    0  502    0  0.00000000000E+00  0.00000000000E+00  0.90628378898E+03  0.90628378898E+03  0.00000000000E+00 0. -1.
          1   -1    0    0  501    0 -0.00000000000E+00 -0.00000000000E+00 -0.27801658536E+03  0.27801658536E+03  0.00000000000E+00 0. -1.
         25    2    1    2    0    0  0.49374897763E+02 -0.10977305911E+03  0.58068642256E+03  0.60606146559E+03  0.12500309477E+03 0.  0.
          2    1    1    2  501    0 -0.13884691950E+02 -0.67718582576E+02 -0.23372347214E+03  0.24373192759E+03  0.00000000000E+00 0. -1.
          1    1    1    2  502    0 -0.35490205813E+02  0.17749164168E+03  0.28130425320E+03  0.33450698116E+03  0.00000000000E+00 0. -1.
         22    1    3    3    0    0  0.13015838037E+02  0.21177702816E+02  0.30542776095E+02  0.39379795682E+02  0.00000000000E+00 0. -1.
         22    1    3    3    0    0  0.36359059725E+02 -0.13095076192E+03  0.55014364646E+03  0.56668166991E+03  0.00000000000E+00 0. -1.
</event>
<event>
 7    1  0.5950675E-006  0.1105603E+03  0.7818608E-02  0.1351627E+00
          2   -1    0    0  502    0  0.00000000000E+00  0.00000000000E+00  0.13098561423E+04  0.13098561423E+04  0.00000000000E+00 0. -1.
          1   -1    0    0  501    0 -0.00000000000E+00 -0.00000000000E+00 -0.91691128345E+02  0.91691128345E+02  0.00000000000E+00 0. -1.
         25    2    1    2    0    0  0.31271085258E+02  0.68875353333E+02  0.16140078754E+03  0.21770651692E+03  0.12499687285E+03 0.  0.
          2    1    1    2  501    0 -0.35184390300E+02 -0.11632296450E+03 -0.44017382025E+01  0.12160735459E+03  0.00000000000E+00 0. -1.
          1    1    1    2  502    0  0.39133050424E+01  0.47447611172E+02  0.10611659647E+04  0.10622333992E+04  0.00000000000E+00 0. -1.
         22    1    3    3    0    0 -0.19665513486E+02  0.86701209065E+02  0.12168405628E+03  0.15070116664E+03  0.00000000000E+00 0. -1.
         22    1    3    3    0    0  0.50936598744E+02 -0.17825855732E+02  0.39716731251E+02  0.67005350275E+02  0.00000000000E+00 0. -1.
</event>
<event>
 7    1  0.5950675E-006  0.1142788E+03  0.7818608E-02  0.1291836E+00
          2   -1    0    0  502    0  0.00000000000E+00  0.00000000000E+00  0.21248684615E+04  0.21248684615E+04  0.00000000000E+00 0. -1.
          1   -1    0    0  501    0 -0.00000000000E+00 -0.00000000000E+00 -0.13914684717E+03  0.13914684717E+03  0.00000000000E+00 0. -1.
         25    2    1    2    0    0  0.26511921701E+01 -0.74461959662E+02  0.29366859200E+03  0.32775672971E+03  0.12502647595E+03 0.  0.
          2    1    1    2  501    0  0.76687847475E+02 -0.16712977155E+02 -0.10724945206E+03  0.13290144665E+03  0.00000000000E+00 0. -1.
          1    1    1    2  502    0 -0.79339039645E+02  0.91174936817E+02  0.17993024744E+04  0.18033571323E+04  0.00000000000E+00 0. -1.
         22    1    3    3    0    0  0.33602253960E+02 -0.17498331266E+02  0.24174939334E+03  0.24469996373E+03  0.00000000000E+00 0. -1.
         22    1    3    3    0    0 -0.30951061790E+02 -0.56963628397E+02  0.51919198657E+02  0.83056765981E+02  0.00000000000E+00 0. -1.
</event>
<event>
 7    1  0.5950675E-006  0.8643032E+02  0.7818608E-02  0.1316289E+00
          2   -1    0    0  502    0  0.00000000000E+00  0.00000000000E+00  0.65906071630E+03  0.65906071630E+03  0.00000000000E+00 0. -1.
          1   -1    0    0  501    0 -0.00000000000E+00 -0.00000000000E+00 -0.32927561169E+03  0.32927561169E+03  0.00000000000E+00 0. -1.
         25    2    1    2    0    0  0.44861401127E+02 -0.14747153126E+03  0.25310847382E+03  0.32163243575E+03  0.12499250524E+03 0.  0.
          2    1    1    2  501    0 -0.54950832502E+02  0.65135607170E+02 -0.28405229481E+03  0.29656019204E+03  0.00000000000E+00 0. -1.
          1    1    1    2  502    0  0.10089431375E+02  0.82335924091E+02  0.36072892561E+03  0.37014370019E+03  0.00000000000E+00 0. -1.
         22    1    3    3    0    0  0.86297335921E+02 -0.97597770076E+02  0.19529267764E+03  0.23475899312E+03  0.00000000000E+00 0.  1.
         22    1    3    3    0    0 -0.41435934794E+02 -0.49873761184E+02  0.57815796177E+02  0.86873442631E+02  0.00000000000E+00 0.  1.
</event>
<event>
 7    1  0.5950675E-006  0.6013173E+02  0.7818608E-02  0.1411620E+00
          2   -1    0    0  502    0  0.00000000000E+00  0.00000000000E+00  0.82569258335E+03  0.82569258335E+03  0.00000000000E+00 0. -1.
          1   -1    0    0  501    0 -0.00000000000E+00 -0.00000000000E+00 -0.13343069421E+04  0.13343069421E+04  0.00000000000E+00 0. -1.
         25    2    1    2    0    0  0.86568508200E+02  0.86613213312E+01  0.17428370790E+03  0.23147195863E+03  0.12504131995E+03 0.  0.
          2    1    1    2  501    0 -0.43060317506E+02  0.32114401759E+02 -0.13037312230E+04  0.13048373951E+04  0.00000000000E+00 0. -1.
          1    1    1    2  502    0 -0.43508190694E+02 -0.40775723090E+02  0.62083315638E+03  0.62369017173E+03  0.00000000000E+00 0. -1.
         22    1    3    3    0    0  0.53294443704E+02  0.63545328887E+02  0.12728932675E+03  0.15192392589E+03  0.00000000000E+00 0.  1.
         22    1    3    3    0    0  0.33274064496E+02 -0.54884007555E+02  0.46994381148E+02  0.79548032741E+02  0.00000000000E+00 0.  1.
</event>
<event>
 7    1  0.5950675E-006  0.1540040E+03  0.7818608E-02  0.1250792E+00
          2   -1    0    0  502    0  0.00000000000E+00  0.00000000000E+00  0.63320458284E+03  0.63320458284E+03  0.00000000000E+00 0. -1.
          1   -1    0    0  501    0 -0.00000000000E+00 -0.00000000000E+00 -0.79356863078E+03  0.79356863078E+03  0.00000000000E+00 0. -1.
         25    2    1    2    0    0 -0.17691332048E+03 -0.55285665648E+02 -0.89877124954E+02  0.24094975001E+03  0.12499622655E+03 0.  0.
          2    1    1    2  501    0  0.15000417274E+03 -0.26977424501E+02 -0.61544446335E+03  0.63403542547E+03  0.00000000000E+00 0. -1.
          1    1    1    2  502    0  0.26909147740E+02  0.82263090149E+02  0.54495754037E+03  0.55178803815E+03  0.00000000000E+00 0. -1.
         22    1    3    3    0    0  0.21349019618E+01  0.23278673094E+02  0.45513677838E+01  0.23815318098E+02  0.00000000000E+00 0. -1.
         22    1    3    3    0    0 -0.17904822245E+03 -0.78564338742E+02 -0.94428492737E+02  0.21713443192E+03  0.00000000000E+00 0. -1.
</event>
<event>
 7    1  0.5950675E-006  0.4335804E+02  0.7818608E-02  0.1493685E+00
          2   -1    0    0  502    0  0.00000000000E+00  0.00000000000E+00  0.14625816171E+04  0.14625816171E+04  0.00000000000E+00 0. -1.
          1   -1    0    0  501    0 -0.00000000000E+00 -0.00000000000E+00 -0.14250624299E+03  0.14250624299E+03  0.00000000000E+00 0. -1.
         25    2    1    2    0    0 -0.45450961075E+02  0.69916888418E+02  0.18193750611E+03  0.23597008082E+03  0.12500584692E+03 0.  0.
          2    1    1    2  501    0  0.19769151085E+02 -0.35656773066E+02 -0.11151363676E+03  0.11873296081E+03  0.00000000000E+00 0. -1.
          1    1    1    2  502    0  0.25681809990E+02 -0.34260115352E+02  0.12496515048E+04  0.12503848185E+04  0.00000000000E+00 0. -1.
         22    1    3    3    0    0 -0.60282425154E+02  0.99538330193E+02  0.15104673256E+03  0.19067502557E+03  0.00000000000E+00 0.  1.
         22    1    3    3    0    0  0.14831464078E+02 -0.29621441775E+02  0.30890773554E+02  0.45295055252E+02  0.00000000000E+00 0.  1.
</event>
<event>
 7    1  0.5950675E-006  0.6070934E+02  0.7818608E-02  0.1451888E+00
          2   -1    0    0  502    0  0.00000000000E+00  0.00000000000E+00  0.24723945845E+04  0.24723945845E+04  0.00000000000E+00 0. -1.
          1   -1    0    0  501    0 -0.00000000000E+00 -0.00000000000E+00 -0.10071353652E+02  0.10071353652E+02  0.00000000000E+00 0. -1.
         25    2    1    2    0    0 -0.24945309692E+02 -0.29371261061E+02  0.86190656960E+03  0.87177589906E+03  0.12500137602E+03 0.  0.
          2    1    1    2  501    0  0.63754656681E+02  0.23593743899E+02  0.23309925392E+03  0.24280976746E+03  0.00000000000E+00 0. -1.
          1    1    1    2  502    0 -0.38809346989E+02  0.57775171626E+01  0.13673174074E+04  0.13678802717E+04  0.00000000000E+00 0. -1.
         22    1    3    3    0    0  0.22325228632E+01 -0.76387188619E+02  0.51884060501E+03  0.52443832827E+03  0.00000000000E+00 0. -1.
         22    1    3    3    0    0 -0.27177832555E+02  0.47015927558E+02  0.34306596458E+03  0.34733757079E+03  0.00000000000E+00 0. -1.
</event>
<event>
 7    1  0.5950675E-006  0.7306177E+02  0.7818608E-02  0.1501111E+00
          2   -1    0    0  502    0  0.00000000000E+00  0.00000000000E+00  0.29337663336E+04  0.29337663336E+04  0.00000000000E+00 0. -1.
          1   -1    0    0  501    0 -0.00000000000E+00 -0.00000000000E+00 -0.12133491168E+03  0.12133491168E+03  0.00000000000E+00 0. -1.
         25    2    1    2    0    0  0.27256023907E+02 -0.66741525813E+02 -0.34134447915E+02  0.14828179975E+03  0.12500003798E+03 0.  0.
          2    1    1    2  501    0  0.20129680840E+02  0.11099685717E+02 -0.25208281471E+02  0.34115458790E+02  0.00000000000E+00 0. -1.
          1    1    1    2  502    0 -0.47385704747E+02  0.55641840096E+02  0.28717741513E+04  0.28727039867E+04  0.00000000000E+00 0. -1.
         22    1    3    3    0    0  0.28458535444E+02  0.26620662549E+02  0.16208101279E+02  0.42204863004E+02  0.00000000000E+00 0.  1.
         22    1    3    3    0    0 -0.12025115365E+01 -0.93362188362E+02 -0.50342549194E+02  0.10607693674E+03  0.00000000000E+00 0.  1.
</event>
<event>
 7    1  0.5950675E-006  0.9548725E+02  0.7818608E-02  0.1362583E+00
          2   -1    0    0  502    0  0.00000000000E+00  0.00000000000E+00  0.12180218296E+04  0.12180218296E+04  0.00000000000E+00 0. -1.
          1   -1    0    0  501    0 -0.00000000000E+00 -0.00000000000E+00 -0.63452397047E+02  0.63452397047E+02  0.00000000000E+00 0. -1.
         25    2    1    2    0    0 -0.10320718091E+03 -0.39859944906E+02  0.25834074012E+03  0.30758032838E+03  0.12500073202E+03 0.  0.
          2    1    1    2  501    0  0.63112057018E+02  0.70158359079E+02  0.20302608599E+02  0.96527317407E+02  0.00000000000E+00 0. -1.
          1    1    1    2  502    0  0.40095123888E+02 -0.30298414173E+02  0.87592608382E+03  0.87736658084E+03  0.00000000000E+00 0. -1.
         22    1    3    3    0    0 -0.57252885611E+02 -0.16618911598E+02  0.24798773288E+03  0.25505292940E+03  0.00000000000E+00 0.  1.
         22    1    3    3    0    0 -0.45954295296E+02 -0.23241033308E+02  0.10353007234E+02  0.52527398985E+02  0.00000000000E+00 0.  1.
</event>
<event>
 7    1  0.5950675E-006  0.7483361E+02  0.7818608E-02  0.1470032E+00
          2   -1    0    0  502    0  0.00000000000E+00  0.00000000000E+00  0.57031733413E+03  0.57031733413E+03  0.00000000000E+00 0. -1.
          1   -1    0    0  501    0 -0.00000000000E+00 -0.00000000000E+00 -0.56229638225E+02  0.56229638225E+02  0.00000000000E+00 0. -1.
         25    2    1    2    0    0 -0.52724046293E+02 -0.32750585658E+02  0.14263229011E+03  0.19955069094E+03  0.12499632856E+03 0.  0.
          2    1    1    2  501    0  0.52170045557E+02  0.60650850466E+02  0.31630446042E+02  0.86027463246E+02  0.00000000000E+00 0. -1.
          1    1    1    2  502    0  0.55400073592E+00 -0.27900264808E+02  0.33982495975E+03  0.34096881817E+03  0.00000000000E+00 0. -1.
         22    1    3    3    0    0 -0.75401366191E+02 -0.45115861270E+02  0.14897154010E+03  0.17295469558E+03  0.00000000000E+00 0.  1.
         22    1    3    3    0    0  0.22677319898E+02  0.12365275612E+02 -0.63392499940E+01  0.26595995360E+02  0.00000000000E+00 0.  1.
</event>
<event>
 7    1  0.5950675E-006  0.6436267E+02  0.7818608E-02  0.1463991E+00
          2   -1    0    0  502    0  0.00000000000E+00  0.00000000000E+00  0.16084070039E+03  0.16084070039E+03  0.00000000000E+00 0. -1.
          1   -1    0    0  501    0 -0.00000000000E+00 -0.00000000000E+00 -0.69392499134E+03  0.69392499134E+03  0.00000000000E+00 0. -1.
         25    2    1    2    0    0 -0.16464167809E+02 -0.94433619396E+02 -0.15969148305E+03  0.22431052574E+03  0.12500025962E+03 0.  0.
          2    1    1    2  501    0  0.60800599275E+01  0.62177424806E+02 -0.49770319699E+03  0.50160888307E+03  0.00000000000E+00 0. -1.
          1    1    1    2  502    0  0.10384107881E+02  0.32256194590E+02  0.12431038908E+03  0.12884628291E+03  0.00000000000E+00 0. -1.
         22    1    3    3    0    0 -0.30247876398E+02  0.18555642060E+02 -0.11201027340E+02  0.37211676828E+02  0.00000000000E+00 0.  1.
         22    1    3    3    0    0  0.13783708589E+02 -0.11298926146E+03 -0.14849045571E+03  0.18709884891E+03  0.00000000000E+00 0.  1.
</event>
<event>
 7    1  0.5950675E-006  0.1237373E+03  0.7818608E-02  0.1308187E+00
          2   -1    0    0  502    0  0.00000000000E+00  0.00000000000E+00  0.11305369825E+04  0.11305369825E+04  0.00000000000E+00 0. -1.
          1   -1    0    0  501    0 -0.00000000000E+00 -0.00000000000E+00 -0.32374821461E+03  0.32374821461E+03  0.00000000000E+00 0. -1.
         25    2    1    2    0    0  0.10021001557E+03  0.12240490356E+02 -0.38608752296E+02  0.16524772104E+03  0.12499718690E+03 0.  0.
          2    1    1    2  501    0 -0.12614825989E+03  0.44454239215E+02 -0.20064482906E+03  0.24113877806E+03  0.00000000000E+00 0. -1.
          1    1    1    2  502    0  0.25938244328E+02 -0.56694729571E+02  0.10460423493E+04  0.10478986980E+04  0.00000000000E+00 0. -1.
         22    1    3    3    0    0  0.96497385541E+02 -0.14629339028E+02 -0.72686365537E+02  0.12169252529E+03  0.00000000000E+00 0. -1.
         22    1    3    3    0    0  0.37126300242E+01  0.26869829385E+02  0.34077613241E+02  0.43555195752E+02  0.00000000000E+00 0. -1.
</event>
<event>
 7    1  0.5950675E-006  0.4897222E+02  0.7818608E-02  0.1549411E+00
          2   -1    0    0  502    0  0.00000000000E+00  0.00000000000E+00  0.23188608409E+03  0.23188608409E+03  0.00000000000E+00 0. -1.
          1   -1    0    0  501    0 -0.00000000000E+00 -0.00000000000E+00 -0.41031458663E+03  0.41031458663E+03  0.00000000000E+00 0. -1.
         25    2    1    2    0    0  0.26141207135E+00  0.36160369215E+02 -0.22386304967E+03  0.25893491013E+03  0.12499992815E+03 0.  0.
          2    1    1    2  501    0  0.21619923642E+02 -0.48010516564E+02 -0.16405800011E+03  0.17230048810E+03  0.00000000000E+00 0. -1.
          1    1    1    2  502    0 -0.21881335713E+02  0.11850147349E+02  0.20949254725E+03  0.21096527249E+03  0.00000000000E+00 0. -1.
         22    1    3    3    0    0  0.48454591260E+02  0.53347240188E+02 -0.87924442136E+02  0.11368589611E+03  0.00000000000E+00 0. -1.
         22    1    3    3    0    0 -0.48193179188E+02 -0.17186870973E+02 -0.13593860753E+03  0.14524901402E+03  0.00000000000E+00 0. -1.
</event>
<event>
 7    1  0.5950675E-006  0.2348783E+03  0.7818608E-02  0.1278706E+00
          2   -1    0    0  502    0  0.00000000000E+00  0.00000000000E+00  0.39054415073E+03  0.39054415073E+03  0.00000000000E+00 0. -1.
          1   -1    0    0  501    0 -0.00000000000E+00 -0.00000000000E+00 -0.14224376204E+04  0.14224376204E+04  0.00000000000E+00 0. -1.
         25    2    1    2    0    0  0.22340941583E+03 -0.73975353815E+02  0.24206751891E+03  0.36000850863E+03  0.12500129006E+03 0.  0.
          2    1    1    2  501    0 -0.23283237642E+03  0.31790359186E+02 -0.13474105751E+04  0.13677488075E+04  0.00000000000E+00 0. -1.
          1    1    1    2  502    0  0.94229605896E+01  0.42184994628E+02  0.73449586567E+02  0.85224454970E+02  0.00000000000E+00 0. -1.
         22    1    3    3    0    0  0.98854301153E+02 -0.95736158431E+02  0.15024660076E+03  0.20374402059E+03  0.00000000000E+00 0. -1.
         22    1    3    3    0    0  0.12455511468E+03  0.21760804616E+02  0.91820918159E+02  0.15626448804E+03  0.00000000000E+00 0. -1.
</event>
<event>
 7    1  0.5950675E-006  0.1098248E+03  0.7818608E-02  0.1277770E+00
          2   -1    0    0  502    0  0.00000000000E+00  0.00000000000E+00  0.64680053517E+03  0.64680053517E+03  0.00000000000E+00 0. -1.
          1   -1    0    0  501    0 -0.00000000000E+00 -0.00000000000E+00 -0.17467019233E+03  0.17467019233E+03  0.00000000000E+00 0. -1.
         25    2    1    2    0    0 -0.49330306332E+02  0.17526193736E+03  0.43333860640E+03  0.48637136137E+03  0.12499811023E+03 0.  0.
          2    1    1    2  501    0 -0.13427680439E+02 -0.10626028078E+03 -0.11378937726E+03  0.15626763021E+03  0.00000000000E+00 0. -1.
          1    1    1    2  502    0  0.62757986770E+02 -0.69001656580E+02  0.15258111370E+03  0.17883173592E+03  0.00000000000E+00 0. -1.
         22    1    3    3    0    0 -0.32814111841E+02  0.35481670462E+02  0.25316443205E+03  0.25773619174E+03  0.00000000000E+00 0.  1.
         22    1    3    3    0    0 -0.16516194490E+02  0.13978026689E+03  0.18017417435E+03  0.22863516964E+03  0.00000000000E+00 0.  1.
</event>
<event>
 7    1  0.5950675E-006  0.6441268E+02  0.7818608E-02  0.1469308E+00
          2   -1    0    0  502    0  0.00000000000E+00  0.00000000000E+00  0.10206848901E+04  0.10206848901E+04  0.00000000000E+00 0. -1.
          1   -1    0    0  501    0 -0.00000000000E+00 -0.00000000000E+00 -0.45457518599E+03  0.45457518599E+03  0.00000000000E+00 0. -1.
         25    2    1    2    0    0  0.20150717657E+02  0.26765186947E+02  0.87034587938E+02  0.15595576422E+03  0.12499901697E+03 0.  0.
          2    1    1    2  501    0  0.11964565305E+02  0.30313392651E+02 -0.41828739317E+03  0.41955499744E+03  0.00000000000E+00 0. -1.
          1    1    1    2  502    0 -0.32115282962E+02 -0.57078579598E+02  0.89736250930E+03  0.89974931439E+03  0.00000000000E+00 0. -1.
         22    1    3    3    0    0  0.20850545254E+02 -0.36385084941E+02  0.82612625608E+02  0.92646994303E+02  0.00000000000E+00 0. -1.
         22    1    3    3    0    0 -0.69982759685E+00  0.63150271887E+02  0.44219623297E+01  0.63308769921E+02  0.00000000000E+00 0. -1.
</event>
<event>
 7    1  0.5950675E-006  0.6857387E+02  0.7818608E-02  0.1450188E+00
          2   -1    0    0  502    0  0.00000000000E+00  0.00000000000E+00  0.19763351020E+04  0.19763351020E+04  0.00000000000E+00 0. -1.
          1   -1    0    0  501    0 -0.00000000000E+00 -0.00000000000E+00 -0.12016039604E+03  0.12016039604E+03  0.00000000000E+00 0. -1.
         25    2    1    2    0    0  0.36906467857E+02 -0.45723929737E+02  0.76069158765E+03  0.77313036206E+03  0.12500440031E+03 0.  0.
          2    1    1    2  501    0 -0.64520947996E+02  0.23936775637E+02 -0.10326828698E+03  0.12409778827E+03  0.00000000000E+00 0. -1.
          1    1    1    2  502    0  0.27614480139E+02  0.21787154099E+02  0.11987514053E+04  0.11992673477E+04  0.00000000000E+00 0. -1.
         22    1    3    3    0    0  0.53845050286E+02 -0.11392723774E+02  0.69440965554E+03  0.69658729051E+03  0.00000000000E+00 0. -1.
         22    1    3    3    0    0 -0.16938582429E+02 -0.34331205963E+02  0.66281932106E+02  0.76543071544E+02  0.00000000000E+00 0. -1.
</event>
<event>
 7    1  0.5950675E-006  0.3591118E+02  0.7818608E-02  0.1566270E+00
          2   -1    0    0  502    0  0.00000000000E+00  0.00000000000E+00  0.14728148174E+04  0.14728148174E+04  0.00000000000E+00 0. -1.
          1   -1    0    0  501    0 -0.00000000000E+00 -0.00000000000E+00 -0.16597693796E+03  0.16597693796E+03  0.00000000000E+00 0. -1.
         25    2    1    2    0    0  0.41112911368E+02 -0.38045782291E+02 -0.49590634832E+02  0.14567872789E+03  0.12500123065E+03 0.  0.
          2    1    1    2  501    0 -0.33556073230E+02  0.85112970751E+01 -0.63784147211E+02  0.72573202107E+02  0.00000000000E+00 0. -1.
          1    1    1    2  502    0 -0.75568381376E+01  0.29534485216E+02  0.14202126615E+04  0.14205398254E+04  0.00000000000E+00 0. -1.
         22    1    3    3    0    0  0.26085081848E+02 -0.57564491539E+02  0.24361516218E+02  0.67731718224E+02  0.00000000000E+00 0. -1.
         22    1    3    3    0    0  0.15027829520E+02  0.19518709247E+02 -0.73952151050E+02  0.77947009665E+02  0.00000000000E+00 0. -1.
</event>
<event>
 7    1  0.5950675E-006  0.1423625E+03  0.7818608E-02  0.1229044E+00
          2   -1    0    0  502    0  0.00000000000E+00  0.00000000000E+00  0.56697912212E+03  0.56697912212E+03  0.00000000000E+00 0. -1.
          1   -1    0    0  501    0 -0.00000000000E+00 -0.00000000000E+00 -0.11188653901E+04  0.11188653901E+04  0.00000000000E+00 0. -1.
         25    2    1    2    0    0 -0.51859170645E+02  0.10965829839E+03  0.34088560760E+02  0.17748278385E+03  0.12499517032E+03 0.  0.
          2    1    1    2  501    0  0.11276574949E+03  0.30336511101E+02 -0.10311470513E+04  0.10377382423E+04  0.00000000000E+00 0. -1.
          1    1    1    2  502    0 -0.60906578848E+02 -0.13999480950E+03  0.44517222248E+03  0.47062348613E+03  0.00000000000E+00 0. -1.
         22    1    3    3    0    0 -0.43736725098E+02  0.99945833409E+02  0.76484625414E+02  0.13323651400E+03  0.00000000000E+00 0. -1.
         22    1    3    3    0    0 -0.81224455472E+01  0.97124649852E+01 -0.42396064654E+02  0.44246269853E+02  0.00000000000E+00 0. -1.
</event>
<event>
 7    1  0.5950675E-006  0.5070458E+02  0.7818608E-02  0.1560476E+00
          2   -1    0    0  502    0  0.00000000000E+00  0.00000000000E+00  0.11890809491E+04  0.11890809491E+04  0.00000000000E+00 0. -1.
          1   -1    0    0  501    0 -0.00000000000E+00 -0.00000000000E+00 -0.68633699741E+03  0.68633699741E+03  0.00000000000E+00 0. -1.
         25    2    1    2    0    0  0.36408461116E+02  0.44628005320E+02  0.53782994978E+03  0.55515915540E+03  0.12499359203E+03 0.  0.
          2    1    1    2  501    0 -0.44744794706E+02 -0.23841797691E+02 -0.67652840593E+03  0.67842553903E+03  0.00000000000E+00 0. -1.
          1    1    1    2  502    0  0.83363335897E+01 -0.20786207628E+02  0.64144240786E+03  0.64183325209E+03  0.00000000000E+00 0. -1.
         22    1    3    3    0    0  0.59054182375E+01 -0.12633718628E+02  0.52957177406E+00  0.13955832372E+02  0.00000000000E+00 0. -1.
         22    1    3    3    0    0  0.30503042879E+02  0.57261723947E+02  0.53730037801E+03  0.54120332303E+03  0.00000000000E+00 0. -1.
</event>
<event>
 7    1  0.5950675E-006  0.2389046E+03  0.7818608E-02  0.1131603E+00
          2   -1    0    0  502    0  0.00000000000E+00  0.00000000000E+00  0.31047173229E+04  0.31047173229E+04  0.00000000000E+00 0. -1.
          1   -1    0    0  501    0 -0.00000000000E+00 -0.00000000000E+00 -0.27823989719E+03  0.27823989719E+03  0.00000000000E+00 0. -1.
         25    2    1    2    0    0 -0.11407871038E+03 -0.55488682945E+01  0.29978092716E+03  0.34429247956E+03  0.12499586031E+03 0.  0.
          2    1    1    2  501    0  0.19382431412E+02  0.23811704249E+03 -0.19317096700E+03  0.30723025090E+03  0.00000000000E+00 0. -1.
          1    1    1    2  502    0  0.94696278969E+02 -0.23256817420E+03  0.27198674656E+04  0.27314344896E+04  0.00000000000E+00 0. -1.
         22    1    3    3    0    0 -0.51529367332E+02  0.26711278234E+02  0.25350152277E+03  0.26006112768E+03  0.00000000000E+00 0.  1.
         22    1    3    3    0    0 -0.62549343048E+02 -0.32260146528E+02  0.46279404384E+02  0.84231351882E+02  0.00000000000E+00 0.  1.
</event>
<event>
 7    1  0.5950675E-006  0.9990213E+02  0.7818608E-02  0.1330744E+00
          2   -1    0    0  502    0  0.00000000000E+00  0.00000000000E+00  0.37853813779E+03  0.37853813779E+03  0.00000000000E+00 0. -1.
          1   -1    0    0  501    0 -0.00000000000E+00 -0.00000000000E+00 -0.14438221075E+04  0.14438221075E+04  0.00000000000E+00 0. -1.
         25    2    1    2    0    0  0.11225496003E+03 -0.74919803099E+02  0.22815079339E+02  0.18536371749E+03  0.12500010787E+03 0.  0.
          2    1    1    2  501    0 -0.98631411032E+02  0.13291991312E+02 -0.13570725942E+04  0.13607170383E+04  0.00000000000E+00 0. -1.
          1    1    1    2  502    0 -0.13623548999E+02  0.61627811787E+02  0.26897354523E+03  0.27627948948E+03  0.00000000000E+00 0. -1.
         22    1    3    3    0    0  0.12998317089E+03 -0.26926392726E+02  0.18371210625E+02  0.13400804722E+03  0.00000000000E+00 0.  1.
         22    1    3    3    0    0 -0.17728210858E+02 -0.47993410372E+02  0.44438687141E+01  0.51355670267E+02  0.00000000000E+00 0.  1.
</event>
<event>
 7    1  0.5950675E-006  0.6146843E+02  0.7818608E-02  0.1398785E+00
          2   -1    0    0  502    0  0.00000000000E+00  0.00000000000E+00  0.13452225926E+04  0.13452225926E+04  0.00000000000E+00 0. -1.
          1   -1    0    0  501    0 -0.00000000000E+00 -0.00000000000E+00 -0.16127567421E+03  0.16127567421E+03  0.00000000000E+00 0. -1.
         25    2    1    2    0    0 -0.24834081966E+02 -0.35714882619E+02  0.25679246397E+03  0.28889350125E+03  0.12499920417E+03 0.  0.
          2    1    1    2  501    0  0.61837098564E+02 -0.91103677512E+01 -0.13767016257E+03  0.15119490474E+03  0.00000000000E+00 0. -1.
          1    1    1    2  502    0 -0.37003016599E+02  0.44825250370E+02  0.10648246170E+04  0.10664098608E+04  0.00000000000E+00 0. -1.
         22    1    3    3    0    0 -0.56375305619E+01 -0.82023357462E+02  0.16081282661E+03  0.18061112403E+03  0.00000000000E+00 0. -1.
         22    1    3    3    0    0 -0.19196551404E+02  0.46308474843E+02  0.95979637361E+02  0.10828237722E+03  0.00000000000E+00 0. -1.
</event>
<event>
 7    1  0.5950675E-006  0.1242054E+03  0.7818608E-02  0.1360590E+00
          2   -1    0    0  502    0  0.00000000000E+00  0.00000000000E+00  0.20713285039E+04  0.20713285039E+04  0.00000000000E+00 0. -1.
          1   -1    0    0  501    0 -0.00000000000E+00 -0.00000000000E+00 -0.61643332587E+03  0.61643332587E+03  0.00000000000E+00 0. -1.
         25    2    1    2    0    0 -0.93642840867E+02  0.34559320887E+02  0.88837061009E+01  0.16021083420E+03  0.12500105141E+03 0.  0.
          2    1    1    2  501    0 -0.30867145178E+02 -0.24303215936E+02 -0.53808894829E+03  0.53952121666E+03  0.00000000000E+00 0. -1.
          1    1    1    2  502    0  0.12450998605E+03 -0.10256104951E+02  0.19841004202E+04  0.19880297789E+04  0.00000000000E+00 0. -1.
         22    1    3    3    0    0  0.60965713413E+01 -0.19121037253E+02 -0.33683159288E+02  0.39208895258E+02  0.00000000000E+00 0. -1.
         22    1    3    3    0    0 -0.99739412209E+02  0.53680358140E+02  0.42566865388E+02  0.12100193894E+03  0.00000000000E+00 0. -1.
</event>
<event>
 7    1  0.5950675E-006  0.5881752E+02  0.7818608E-02  0.1450861E+00
          2   -1    0    0  502    0  0.00000000000E+00  0.00000000000E+00  0.11450684826E+04  0.11450684826E+04  0.00000000000E+00 0. -1.
          1   -1    0    0  501    0 -0.00000000000E+00 -0.00000000000E+00 -0.28941208457E+03  0.28941208457E+03  0.00000000000E+00 0. -1.
         25    2    1    2    0    0 -0.98033418429E+02  0.11814667012E+02 -0.14187975224E+03  0.21331874200E+03  0.12499953643E+03 0.  0.
          2    1    1    2  501    0  0.40794952936E+02  0.95138234296E+00 -0.10728604412E+03  0.11478426973E+03  0.00000000000E+00 0. -1.
          1    1    1    2  502    0  0.57238465493E+02 -0.12766049355E+02  0.11048221944E+04  0.11063775554E+04  0.00000000000E+00 0. -1.
         22    1    3    3    0    0  0.27851716330E+02  0.15638505317E+02 -0.18015335408E+02  0.36671968326E+02  0.00000000000E+00 0. -1.
         22    1    3    3    0    0 -0.12588513476E+03 -0.38238383047E+01 -0.12386441683E+03  0.17664677368E+03  0.00000000000E+00 0. -1.
</event>
<event>
 7    1  0.5950675E-006  0.4677618E+02  0.7818608E-02  0.1470136E+00
          2   -1    0    0  502    0  0.00000000000E+00  0.00000000000E+00  0.10329839342E+03  0.10329839342E+03  0.00000000000E+00 0. -1.
          1   -1    0    0  501    0 -0.00000000000E+00 -0.00000000000E+00 -0.93636168191E+03  0.93636168191E+03  0.00000000000E+00 0. -1.
         25    2    1    2    0    0 -0.44285076500E+02 -0.29269245998E+02 -0.16063808052E+03  0.21035099107E+03  0.12500035907E+03 0.  0.
          2    1    1    2  501    0  0.44630278198E+02 -0.15340511498E+02 -0.74371542139E+03  0.74521125933E+03  0.00000000000E+00 0. -1.
          1    1    1    2  502    0 -0.34520169798E+00  0.44609757496E+02  0.71290213426E+02  0.84097824933E+02  0.00000000000E+00 0. -1.
         22    1    3    3    0    0  0.30986544636E+02  0.26719875357E+02 -0.37105819121E+02  0.55235491309E+02  0.00000000000E+00 0.  1.
         22    1    3    3    0    0 -0.75271621136E+02 -0.55989121355E+02 -0.12353226140E+03  0.15511549976E+03  0.00000000000E+00 0.  1.
</event>
<event>
 7    1  0.6916888E-006  0.4663288E+02  0.7818608E-02  0.1556604E+00
          2   -1    0    0  502    0  0.00000000000E+00  0.00000000000E+00  0.81547212402E+03  0.81547212402E+03  0.00000000000E+00 0. -1.
          1   -1    0    0  501    0 -0.00000000000E+00 -0.00000000000E+00 -0.19391685221E+04  0.19391685221E+04  0.00000000000E+00 0. -1.
         25    2    1    2    0    0  0.17398898081E+01 -0.31142820831E+02 -0.35970552303E+03  0.38208176861E+03  0.12500204837E+03 0.  0.
          2    1    1    2  501    0 -0.22589889393E+02 -0.10609202950E+02 -0.15674984741E+04  0.15676971406E+04  0.00000000000E+00 0. -1.
          1    1    1    2  502    0  0.20849999585E+02  0.41752023781E+02  0.80350759901E+03  0.80486173697E+03  0.00000000000E+00 0. -1.
         22    1    3    3    0    0  0.61557130648E+02 -0.49859718528E+01 -0.20671943913E+03  0.21574769237E+03  0.00000000000E+00 0.  1.
         22    1    3    3    0    0 -0.59817240840E+02 -0.26156848978E+02 -0.15298608390E+03  0.16633407624E+03  0.00000000000E+00 0.  1.
</event>
<event>
 7    1  0.5950675E-006  0.9905532E+02  0.7818608E-02  0.1373408E+00
          2   -1    0    0  502    0  0.00000000000E+00  0.00000000000E+00  0.17351102300E+03  0.17351102300E+03  0.00000000000E+00 0. -1.
          1   -1    0    0  501    0 -0.00000000000E+00 -0.00000000000E+00 -0.16185227749E+04  0.16185227749E+04  0.00000000000E+00 0. -1.
         25    2    1    2    0    0  0.50467848657E+02  0.52852760965E+02 -0.17558772569E+03  0.22759076971E+03  0.12500436373E+03 0.  0.
          2    1    1    2  501    0 -0.92912688985E+02 -0.40234291383E+02 -0.14117559499E+04  0.14153820784E+04  0.00000000000E+00 0. -1.
          1    1    1    2  502    0  0.42444840328E+02 -0.12618469582E+02  0.14233192367E+03  0.14906094975E+03  0.00000000000E+00 0. -1.
         22    1    3    3    0    0 -0.15661578788E+01  0.43768922050E+02  0.44997081653E+00  0.43799244990E+02  0.00000000000E+00 0. -1.
         22    1    3    3    0    0  0.52034006536E+02  0.90838389151E+01 -0.17603769651E+03  0.18379152472E+03  0.00000000000E+00 0. -1.
</event>
<event>
 7    1  0.5950675E-006  0.9895578E+02  0.7818608E-02  0.1439367E+00
          2   -1    0    0  502    0  0.00000000000E+00  0.00000000000E+00  0.10103211351E+03  0.10103211351E+03  0.00000000000E+00 0. -1.
          1   -1    0    0  501    0 -0.00000000000E+00 -0.00000000000E+00 -0.30092028579E+04  0.30092028579E+04  0.00000000000E+00 0. -1.
         25    2    1    2    0    0 -0.72137836396E+02  0.96065954796E+02 -0.50908683584E+03  0.53779862487E+03  0.12500167747E+03 0.  0.
          2    1    1    2  501    0  0.68043713871E+02 -0.69971787529E+02 -0.24827664960E+04  0.24846841794E+04  0.00000000000E+00 0. -1.
          1    1    1    2  502    0  0.40941225249E+01 -0.26094167267E+02  0.83682587392E+02  0.87752167137E+02  0.00000000000E+00 0. -1.
         22    1    3    3    0    0 -0.66824551513E+02  0.59421647296E+02 -0.48601102389E+03  0.49416916962E+03  0.00000000000E+00 0.  1.
         22    1    3    3    0    0 -0.53132848826E+01  0.36644307501E+02 -0.23075811949E+02  0.43629455252E+02  0.00000000000E+00 0.  1.
</event>
<event>
 7    1  0.1041517E-005  0.4997778E+02  0.7818608E-02  0.1481944E+00
          2   -1    0    0  502    0  0.00000000000E+00  0.00000000000E+00  0.15698801740E+04  0.15698801740E+04  0.00000000000E+00 0. -1.
          1   -1    0    0  501    0 -0.00000000000E+00 -0.00000000000E+00 -0.14357272526E+04  0.14357272526E+04  0.00000000000E+00 0. -1.
         25    2    1    2    0    0  0.45441658487E+02  0.12209464313E+01 -0.66536362521E+03  0.67852766594E+03  0.12499841859E+03 0.  0.
          2    1    1    2  501    0 -0.37563870613E+02  0.36356372898E+02 -0.76265095141E+03  0.76444051693E+03  0.00000000000E+00 0. -1.
          1    1    1    2  502    0 -0.78777878746E+01 -0.37577319329E+02  0.15621674980E+04  0.15626392438E+04  0.00000000000E+00 0. -1.
         22    1    3    3    0    0  0.63653498754E+02 -0.11691853033E+02 -0.15892589265E+03  0.17159809639E+03  0.00000000000E+00 0. -1.
         22    1    3    3    0    0 -0.18211840266E+02  0.12912799465E+02 -0.50643773256E+03  0.50692956955E+03  0.00000000000E+00 0. -1.
</event>
<event>
 7    1  0.5950675E-006  0.1177731E+03  0.7818608E-02  0.1269338E+00
          2   -1    0    0  502    0  0.00000000000E+00  0.00000000000E+00  0.14667759660E+04  0.14667759660E+04  0.00000000000E+00 0. -1.
          1   -1    0    0  501    0 -0.00000000000E+00 -0.00000000000E+00 -0.21339142661E+03  0.21339142661E+03  0.00000000000E+00 0. -1.
         25    2    1    2    0    0  0.32456661110E+02 -0.77972340014E+01  0.11084014225E+03  0.17036450023E+03  0.12499717635E+03 0.  0.
          2    1    1    2  501    0  0.80451169004E+02 -0.49237751458E+02 -0.16826795990E+03  0.19290114850E+03  0.00000000000E+00 0. -1.
          1    1    1    2  502    0 -0.11290783011E+03  0.57034985460E+02  0.13108123570E+04  0.13169017439E+04  0.00000000000E+00 0. -1.
         22    1    3    3    0    0 -0.52913375370E+01  0.47185397542E+02  0.85379610027E+01  0.48242686204E+02  0.00000000000E+00 0. -1.
         22    1    3    3    0    0  0.37747998647E+02 -0.54982631543E+02  0.10230218125E+03  0.12212181403E+03  0.00000000000E+00 0. -1.
</event>
<event>
 7    1  0.5950675E-006  0.2416254E+03  0.7818608E-02  0.1225648E+00
          2   -1    0    0  502    0  0.00000000000E+00  0.00000000000E+00  0.24172975788E+03  0.24172975788E+03  0.00000000000E+00 0. -1.
          1   -1    0    0  501    0 -0.00000000000E+00 -0.00000000000E+00 -0.10524949169E+04  0.10524949169E+04  0.00000000000E+00 0. -1.
         25    2    1    2    0    0 -0.19313103112E+03 -0.31144494898E+02 -0.15433034296E+03  0.27875260290E+03  0.12496233080E+03 0.  0.
          2    1    1    2  501    0 -0.69111473283E+02  0.17399596703E+02 -0.73727241471E+03  0.74070895445E+03  0.00000000000E+00 0. -1.
          1    1    1    2  502    0  0.26224250440E+03  0.13744898195E+02  0.80837598664E+02  0.27476311743E+03  0.00000000000E+00 0. -1.
         22    1    3    3    0    0 -0.12233760716E+03 -0.78620351403E+02 -0.81916568007E+02  0.16690708162E+03  0.00000000000E+00 0.  1.
         22    1    3    3    0    0 -0.70793423962E+02  0.47475856504E+02 -0.72413774956E+02  0.11184552128E+03  0.00000000000E+00 0.  1.
</event>
<event>
 7    1  0.5950675E-006  0.6543967E+02  0.7818608E-02  0.1413480E+00
          2   -1    0    0  502    0  0.00000000000E+00  0.00000000000E+00  0.38425827861E+03  0.38425827861E+03  0.00000000000E+00 0. -1.
          1   -1    0    0  501    0 -0.00000000000E+00 -0.00000000000E+00 -0.46558684631E+03  0.46558684631E+03  0.00000000000E+00 0. -1.
         25    2    1    2    0    0  0.70017523254E+02 -0.60112207841E+02 -0.11189136813E+03  0.19145741926E+03  0.12498133475E+03 0.  0.
          2    1    1    2  501    0 -0.63004493680E+02  0.11969149463E+02 -0.30888443115E+03  0.31547173974E+03  0.00000000000E+00 0. -1.
          1    1    1    2  502    0 -0.70130295739E+01  0.48143058378E+02  0.33944723158E+03  0.34291596592E+03  0.00000000000E+00 0. -1.
         22    1    3    3    0    0  0.20761192839E+02  0.15805185732E+02 -0.96117708002E+02  0.99596409652E+02  0.00000000000E+00 0.  1.
         22    1    3    3    0    0  0.49256330415E+02 -0.75917393573E+02 -0.15773660126E+02  0.91861009610E+02  0.00000000000E+00 0.  1.
</event>
<event>
 7    1  0.5950675E-006  0.5753374E+02  0.7818608E-02  0.1531137E+00
          2   -1    0    0  502    0  0.00000000000E+00  0.00000000000E+00  0.40047095029E+03  0.40047095029E+03  0.00000000000E+00 0. -1.
          1   -1    0    0  501    0 -0.00000000000E+00 -0.00000000000E+00 -0.58319854546E+03  0.58319854546E+03  0.00000000000E+00 0. -1.
         25    2    1    2    0    0 -0.13629680037E+02 -0.39050588941E+02 -0.84114861370E+02  0.15624171964E+03  0.12500179351E+03 0.  0.
          2    1    1    2  501    0  0.36555610577E+02  0.45645600972E+02 -0.46077979391E+03  0.46447588961E+03  0.00000000000E+00 0. -1.
          1    1    1    2  502    0 -0.22925930540E+02 -0.65950120314E+01  0.36216706012E+03  0.36295188649E+03  0.00000000000E+00 0. -1.
         22    1    3    3    0    0  0.44067778788E+02  0.15200789482E+02 -0.97946330977E+01  0.47633685199E+02  0.00000000000E+00 0.  1.
         22    1    3    3    0    0 -0.57697458825E+02 -0.54251378422E+02 -0.74320228273E+02  0.10860803445E+03  0.00000000000E+00 0.  1.
</event>
<event>
 7    1  0.5950675E-006  0.1331676E+03  0.7818608E-02  0.1277698E+00
          2   -1    0    0  502    0  0.00000000000E+00  0.00000000000E+00  0.12694224220E+03  0.12694224220E+03  0.00000000000E+00 0. -1.
          1   -1    0    0  501    0 -0.00000000000E+00 -0.00000000000E+00 -0.13032849510E+04  0.13032849510E+04  0.00000000000E+00 0. -1.
         25    2    1    2    0    0 -0.15934340166E+02 -0.17278301166E+03 -0.17996573705E+03  0.27949738141E+03  0.12499298934E+03 0.  0.
          2    1    1    2  501    0 -0.45392010155E+02  0.62168333078E+02 -0.10192910381E+04  0.10221935025E+04  0.00000000000E+00 0. -1.
          1    1    1    2  502    0  0.61326350321E+02  0.11061467859E+03  0.22914066364E+02  0.12853630927E+03  0.00000000000E+00 0. -1.
         22    1    3    3    0    0  0.30352552484E+02 -0.15988882273E+03 -0.15741948052E+03  0.22642130183E+03  0.00000000000E+00 0.  1.
         22    1    3    3    0    0 -0.46286892649E+02 -0.12894188935E+02 -0.22546256537E+02  0.53076079577E+02  0.00000000000E+00 0.  1.
</event>
<event>
 7    1  0.5950675E-006  0.1311023E+03  0.7818608E-02  0.1383814E+00
          2   -1    0    0  502    0  0.00000000000E+00  0.00000000000E+00  0.24644583927E+03  0.24644583927E+03  0.00000000000E+00 0. -1.
          1   -1    0    0  501    0 -0.00000000000E+00 -0.00000000000E+00 -0.15534901348E+03  0.15534901348E+03  0.00000000000E+00 0. -1.
         25    2    1    2    0    0 -0.53114071025E+02 -0.11056670760E+03  0.35655719971E+02  0.17872358941E+03  0.12499875869E+03 0.  0.
          2    1    1    2  501    0  0.83734072946E+02  0.10797826540E+03 -0.23239366827E+02  0.13860291822E+03  0.00000000000E+00 0. -1.
          1    1    1    2  502    0 -0.30620001921E+02  0.25884422065E+01  0.78680472643E+02  0.84468345112E+02  0.00000000000E+00 0. -1.
         22    1    3    3    0    0 -0.45358276370E+02 -0.12077294290E+03 -0.11817914794E+02  0.12954975910E+03  0.00000000000E+00 0. -1.
         22    1    3    3    0    0 -0.77557946544E+01  0.10206235302E+02  0.47473634765E+02  0.49173830312E+02  0.00000000000E+00 0. -1.
</event>
<event>
 7    1  0.5950675E-006  0.1748965E+03  0.7818608E-02  0.1316543E+00
          2   -1    0    0  502    0  0.00000000000E+00  0.00000000000E+00  0.16474549844E+04  0.16474549844E+04  0.00000000000E+00 0. -1.
          1   -1    0    0  501    0 -0.00000000000E+00 -0.00000000000E+00 -0.14009260514E+04  0.14009260514E+04  0.00000000000E+00 0. -1.
         25    2    1    2    0    0 -0.15136630304E+03 -0.12609200149E+03  0.99912412898E+03  0.10260043376E+04  0.12499970087E+03 0.  0.
          2    1    1    2  501    0  0.38164039476E+02  0.14707387758E+02 -0.13772462650E+04  0.13778534304E+04  0.00000000000E+00 0. -1.
          1    1    1    2  502    0  0.11320226356E+03  0.11138461373E+03  0.62465106903E+03  0.64452326776E+03  0.00000000000E+00 0. -1.
         22    1    3    3    0    0 -0.25879933037E+02 -0.96880904594E+02  0.53562355842E+03  0.54492960732E+03  0.00000000000E+00 0.  1.
         22    1    3    3    0    0 -0.12548637000E+03 -0.29211096894E+02  0.46350057057E+03  0.48107473032E+03  0.00000000000E+00 0.  1.
</event>
<event>
 7    1  0.5950675E-006  0.1136620E+03  0.7818608E-02  0.1312060E+00
          2   -1    0    0  502    0  0.00000000000E+00  0.00000000000E+00  0.24022480650E+04  0.24022480650E+04  0.00000000000E+00 0. -1.
          1   -1    0    0  501    0 -0.00000000000E+00 -0.00000000000E+00 -0.56669358572E+03  0.56669358572E+03  0.00000000000E+00 0. -1.
         25    2    1    2    0    0  0.11531131221E+03 -0.13173423925E+03  0.27038356807E+03  0.34551955507E+03  0.12500352211E+03 0.  0.
          2    1    1    2  501    0 -0.51416593228E+02  0.40625274668E+02 -0.52561138256E+03  0.52968047394E+03  0.00000000000E+00 0. -1.
          1    1    1    2  502    0 -0.63894718983E+02  0.91108964577E+02  0.20907822938E+04  0.20937416217E+04  0.00000000000E+00 0. -1.
         22    1    3    3    0    0  0.10221227240E+03 -0.27500310364E+02  0.10163436167E+03  0.14674181125E+03  0.00000000000E+00 0.  1.
         22    1    3    3    0    0  0.13099039813E+02 -0.10423392888E+03  0.16874920640E+03  0.19877774381E+03  0.00000000000E+00 0.  1.
</event>
<event>
 7    1  0.5950675E-006  0.5865972E+02  0.7818608E-02  0.1523446E+00
          2   -1    0    0  502    0  0.00000000000E+00  0.00000000000E+00  0.27730518874E+03  0.27730518874E+03  0.00000000000E+00 0. -1.
          1   -1    0    0  501    0 -0.00000000000E+00 -0.00000000000E+00 -0.67720492489E+03  0.67720492489E+03  0.00000000000E+00 0. -1.
         25    2    1    2    0    0  0.34359864572E+02  0.49119810951E+02 -0.15906089551E+02  0.13954081965E+03  0.12500112216E+03 0.  0.
          2    1    1    2  501    0 -0.11267161914E+02 -0.57656472551E+02 -0.59733255617E+03  0.60021446203E+03  0.00000000000E+00 0. -1.
          1    1    1    2  502    0 -0.23092702658E+02  0.85366616002E+01  0.21333890957E+03  0.21475483195E+03  0.00000000000E+00 0. -1.
         22    1    3    3    0    0  0.11022902988E+02  0.54174258836E+01  0.53150230847E+02  0.54550893050E+02  0.00000000000E+00 0. -1.
         22    1    3    3    0    0  0.23336961584E+02  0.43702385067E+02 -0.69056320398E+02  0.84989926600E+02  0.00000000000E+00 0. -1.
</event>
<event>
 7    1  0.5950675E-006  0.3912024E+03  0.7818608E-02  0.1211439E+00
          2   -1    0    0  502    0  0.00000000000E+00  0.00000000000E+00  0.78038487778E+03  0.78038487778E+03  0.00000000000E+00 0. -1.
          1   -1    0    0  501    0 -0.00000000000E+00 -0.00000000000E+00 -0.28607255195E+04  0.28607255195E+04  0.00000000000E+00 0. -1.
         25    2    1    2    0    0  0.25664053625E+02 -0.36719694174E+03 -0.48750040613E+02  0.39178462344E+03  0.12500554801E+03 0.  0.
          2    1    1    2  501    0  0.44524782685E+02 -0.25113560595E+02 -0.25749603485E+04  0.25754677136E+04  0.00000000000E+00 0. -1.
          1    1    1    2  502    0 -0.70188836309E+02  0.39231050234E+03  0.54336974741E+03  0.67385806026E+03  0.00000000000E+00 0. -1.
         22    1    3    3    0    0  0.43875505551E+02 -0.11758119854E+03 -0.64317452487E+02  0.14102174631E+03  0.00000000000E+00 0. -1.
         22    1    3    3    0    0 -0.18211451927E+02 -0.24961574321E+03  0.15567411874E+02  0.25076287714E+03  0.00000000000E+00 0. -1.
</event>
<event>
 7    1  0.5950675E-006  0.2162006E+03  0.7818608E-02  0.1334486E+00
          2   -1    0    0  502    0  0.00000000000E+00  0.00000000000E+00  0.23819066610E+04  0.23819066610E+04  0.00000000000E+00 0. -1.
          1   -1    0    0  501    0 -0.00000000000E+00 -0.00000000000E+00 -0.78082783675E+03  0.78082783675E+03  0.00000000000E+00 0. -1.
         25    2    1    2    0    0  0.49550203757E+01 -0.23523603984E+03  0.15782526540E+03  0.30966871443E+03  0.12500140651E+03 0.  0.
          2    1    1    2  501    0  0.18191830907E+02  0.21578820219E+02 -0.69924574201E+03  0.69981511552E+03  0.00000000000E+00 0. -1.
          1    1    1    2  502    0 -0.23146851283E+02  0.21365721962E+03  0.21424993009E+04  0.21532506678E+04  0.00000000000E+00 0. -1.
         22    1    3    3    0    0  0.27131354356E+02 -0.82218335574E+02  0.12426489916E+03  0.15145207248E+03  0.00000000000E+00 0. -1.
         22    1    3    3    0    0 -0.22176333980E+02 -0.15301770426E+03  0.33560366241E+02  0.15821664195E+03  0.00000000000E+00 0. -1.
</event>
<event>
 7    1  0.5950675E-006  0.1377649E+03  0.7818608E-02  0.1247367E+00
          2   -1    0    0  502    0  0.00000000000E+00  0.00000000000E+00  0.33588839995E+03  0.33588839995E+03  0.00000000000E+00 0. -1.
          1   -1    0    0  501    0 -0.00000000000E+00 -0.00000000000E+00 -0.10221628368E+04  0.10221628368E+04  0.00000000000E+00 0. -1.
         25    2    1    2    0    0  0.15063472630E+03 -0.56424159453E+02 -0.61299482232E+02  0.21273707823E+03  0.12499972558E+03 0.  0.
          2    1    1    2  501    0 -0.18428127450E+02  0.98417742731E+02 -0.86355400763E+03  0.86933950334E+03  0.00000000000E+00 0. -1.
          1    1    1    2  502    0 -0.13220659885E+03 -0.41993583279E+02  0.23857905297E+03  0.27597465523E+03  0.00000000000E+00 0. -1.
         22    1    3    3    0    0  0.45123212312E+02 -0.10368068798E+02 -0.83512936342E+02  0.95488280309E+02  0.00000000000E+00 0.  1.
         22    1    3    3    0    0  0.10551151399E+03 -0.46056090655E+02  0.22213454110E+02  0.11724879792E+03  0.00000000000E+00 0.  1.
</event>
<event>
 7    1  0.5950675E-006  0.3399526E+02  0.7818608E-02  0.1588704E+00
          2   -1    0    0  502    0  0.00000000000E+00  0.00000000000E+00  0.18914275186E+04  0.18914275186E+04  0.00000000000E+00 0. -1.
          1   -1    0    0  501    0 -0.00000000000E+00 -0.00000000000E+00 -0.22386738615E+04  0.22386738615E+04  0.00000000000E+00 0. -1.
         25    2    1    2    0    0 -0.13650502849E+02  0.19077654187E+02 -0.34817758069E+02  0.13188641751E+03  0.12502582824E+03 0.  0.
          2    1    1    2  501    0 -0.11121307732E+02 -0.32184504477E+02 -0.21550807148E+04  0.21553497195E+04  0.00000000000E+00 0. -1.
          1    1    1    2  502    0  0.24771810581E+02  0.13106850290E+02  0.18426521300E+04  0.18428652431E+04  0.00000000000E+00 0. -1.
         22    1    3    3    0    0 -0.36367995838E+02 -0.31744988866E+02  0.21368592324E+02  0.52791970765E+02  0.00000000000E+00 0.  1.
         22    1    3    3    0    0  0.22717492990E+02  0.50822643053E+02 -0.56186350393E+02  0.79094446740E+02  0.00000000000E+00 0.  1.
</event>
<event>
 7    1  0.5950675E-006  0.4486287E+02  0.7818608E-02  0.1491588E+00
          2   -1    0    0  502    0  0.00000000000E+00  0.00000000000E+00  0.19701655027E+03  0.19701655027E+03  0.00000000000E+00 0. -1.
          1   -1    0    0  501    0 -0.00000000000E+00 -0.00000000000E+00 -0.18253164831E+03  0.18253164831E+03  0.00000000000E+00 0. -1.
         25    2    1    2    0    0 -0.92204478103E+01 -0.10342055160E+02 -0.52928352076E+02  0.13644096971E+03  0.12499101168E+03 0.  0.
          2    1    1    2  501    0  0.49075891324E+02  0.13500083505E+02 -0.77533484882E+02  0.92747704240E+02  0.00000000000E+00 0. -1.
          1    1    1    2  502    0 -0.39855443514E+02 -0.31580283443E+01  0.14494673892E+03  0.15035952462E+03  0.00000000000E+00 0. -1.
         22    1    3    3    0    0  0.78390907201E+01 -0.56964495572E+02 -0.63517245892E+02  0.85678734963E+02  0.00000000000E+00 0.  1.
         22    1    3    3    0    0 -0.17059538530E+02  0.46622440411E+02  0.10588893816E+02  0.50762234752E+02  0.00000000000E+00 0.  1.
</event>
<event>
 7    1  0.5950675E-006  0.6962368E+02  0.7818608E-02  0.1459008E+00
          2   -1    0    0  502    0  0.00000000000E+00  0.00000000000E+00  0.76597012955E+03  0.76597012955E+03  0.00000000000E+00 0. -1.
          1   -1    0    0  501    0 -0.00000000000E+00 -0.00000000000E+00 -0.20202282618E+03  0.20202282618E+03  0.00000000000E+00 0. -1.
         25    2    1    2    0    0  0.11011472547E+01  0.39871994726E+02  0.24990058882E+03  0.28225098543E+03  0.12499730394E+03 0.  0.
          2    1    1    2  501    0  0.12819148578E+02 -0.69215549227E+02 -0.17862815363E+03  0.19199776065E+03  0.00000000000E+00 0. -1.
          1    1    1    2  502    0 -0.13920295832E+02  0.29343554502E+02  0.49267486817E+03  0.49374420964E+03  0.00000000000E+00 0. -1.
         22    1    3    3    0    0  0.52135798387E+02 -0.16925491304E+02  0.10766152650E+03  0.12081232560E+03  0.00000000000E+00 0. -1.
         22    1    3    3    0    0 -0.51034651132E+02  0.56797486030E+02  0.14223906233E+03  0.16143865983E+03  0.00000000000E+00 0. -1.
</event>
<event>
 7    1  0.5950675E-006  0.1142180E+03  0.7818608E-02  0.1387645E+00
          2   -1    0    0  502    0  0.00000000000E+00  0.00000000000E+00  0.27277867185E+03  0.27277867185E+03  0.00000000000E+00 0. -1.
          1   -1    0    0  501    0 -0.00000000000E+00 -0.00000000000E+00 -0.21817292343E+04  0.21817292343E+04  0.00000000000E+00 0. -1.
         25    2    1    2    0    0 -0.80862506296E+02  0.29286954051E+02 -0.62551640916E+03  0.64365542082E+03  0.12500020811E+03 0.  0.
          2    1    1    2  501    0 -0.32443155534E+02 -0.10807362212E+02 -0.15344492824E+04  0.15348302700E+04  0.00000000000E+00 0. -1.
          1    1    1    2  502    0  0.11330566183E+03 -0.18479591839E+02  0.25101512910E+03  0.27602221533E+03  0.00000000000E+00 0. -1.
         22    1    3    3    0    0 -0.20743773024E+02  0.50646190280E+02 -0.97599737420E+02  0.11189749530E+03  0.00000000000E+00 0.  1.
         22    1    3    3    0    0 -0.60118733272E+02 -0.21359236229E+02 -0.52791667174E+03  0.53175792553E+03  0.00000000000E+00 0.  1.
</event>
<event>
 7    1  0.5950675E-006  0.3854862E+02  0.7818608E-02  0.1543832E+00
          2   -1    0    0  502    0  0.00000000000E+00  0.00000000000E+00  0.92059509268E+03  0.92059509268E+03  0.00000000000E+00 0. -1.
          1   -1    0    0  501    0 -0.00000000000E+00 -0.00000000000E+00 -0.18319840743E+03  0.18319840743E+03  0.00000000000E+00 0. -1.
         25    2    1    2    0    0 -0.24284699404E+02 -0.62791146441E+02  0.32242250895E+03  0.35229511327E+03  0.12499239122E+03 0.  0.
          2    1    1    2  501    0  0.23912576474E+02  0.30021775271E+02 -0.16560526397E+03  0.16999476980E+03  0.00000000000E+00 0. -1.
          1    1    1    2  502    0  0.37212292983E+00  0.32769371170E+02  0.58057944027E+03  0.58150361704E+03  0.00000000000E+00 0. -1.
         22    1    3    3    0    0 -0.74265106257E+02 -0.22238652696E+02  0.18219351763E+03  0.19800086249E+03  0.00000000000E+00 0.  1.
         22    1    3    3    0    0  0.49980406853E+02 -0.40552493745E+02  0.14022899132E+03  0.15429425078E+03  0.00000000000E+00 0.  1.
</event>
<event>
 7    1  0.5950675E-006  0.9904764E+02  0.7818608E-02  0.1402120E+00
          2   -1    0    0  502    0  0.00000000000E+00  0.00000000000E+00  0.65168641508E+03  0.65168641508E+03  0.00000000000E+00 0. -1.
          1   -1    0    0  501    0 -0.00000000000E+00 -0.00000000000E+00 -0.14562711538E+03  0.14562711538E+03  0.00000000000E+00 0. -1.
         25    2    1    2    0    0 -0.78031253853E+02 -0.24261728101E+02  0.84017039809E+01  0.14957498369E+03  0.12499831634E+03 0.  0.
          2    1    1    2  501    0  0.10839548699E+03  0.65890541769E+01 -0.34867442341E+02  0.11405584497E+03  0.00000000000E+00 0. -1.
          1    1    1    2  502    0 -0.30364233141E+02  0.17672673924E+02  0.53252503806E+03  0.53368270181E+03  0.00000000000E+00 0. -1.
         22    1    3    3    0    0 -0.63970435588E+02 -0.69111636286E+02  0.28594140247E+02  0.98418797777E+02  0.00000000000E+00 0. -1.
         22    1    3    3    0    0 -0.14060818265E+02  0.44849908185E+02 -0.20192436266E+02  0.51156185909E+02  0.00000000000E+00 0. -1.
</event>
<event>
 7    1  0.5950675E-006  0.1361566E+03  0.7818608E-02  0.1286823E+00
          2   -1    0    0  502    0  0.00000000000E+00  0.00000000000E+00  0.78111425051E+03  0.78111425051E+03  0.00000000000E+00 0. -1.
          1   -1    0    0  501    0 -0.00000000000E+00 -0.00000000000E+00 -0.13664663959E+04  0.13664663959E+04  0.00000000000E+00 0. -1.
         25    2    1    2    0    0  0.60107392737E+02 -0.64228654704E+02  0.27873338773E+03  0.31789223886E+03  0.12499982139E+03 0.  0.
          2    1    1    2  501    0 -0.40923151353E+02  0.13055624991E+03 -0.13409193983E+04  0.13478814753E+04  0.00000000000E+00 0. -1.
          1    1    1    2  502    0 -0.19184241384E+02 -0.66327595206E+02  0.47683386517E+03  0.48180693226E+03  0.00000000000E+00 0. -1.
         22    1    3    3    0    0 -0.23194981213E+02  0.42956292259E+00  0.14858571779E+03  0.15038586106E+03  0.00000000000E+00 0.  1.
         22    1    3    3    0    0  0.83302373950E+02 -0.64658217626E+02  0.13014766994E+03  0.16750637780E+03  0.00000000000E+00 0.  1.
</event>
<event>
 7    1  0.5950675E-006  0.1207571E+03  0.7818608E-02  0.1420154E+00
          2   -1    0    0  502    0  0.00000000000E+00  0.00000000000E+00  0.12534424749E+04  0.12534424749E+04  0.00000000000E+00 0. -1.
          1   -1    0    0  501    0 -0.00000000000E+00 -0.00000000000E+00 -0.96961402517E+03  0.96961402517E+03  0.00000000000E+00 0. -1.
         25    2    1    2    0    0 -0.43844148417E+02  0.11721377533E+03 -0.30352613765E+03  0.35130433040E+03  0.12500095136E+03 0.  0.
          2    1    1    2  501    0 -0.20168696019E+02 -0.14839563631E+02 -0.63898887937E+03  0.63947930139E+03  0.00000000000E+00 0. -1.
          1    1    1    2  502    0  0.64012844437E+02 -0.10237421170E+03  0.12263434668E+04  0.12322728683E+04  0.00000000000E+00 0. -1.
         22    1    3    3    0    0 -0.73984966955E+02  0.48878486476E+02 -0.22998774730E+03  0.24648984905E+03  0.00000000000E+00 0.  1.
         22    1    3    3    0    0  0.30140818537E+02  0.68335288856E+02 -0.73538390347E+02  0.10481448135E+03  0.00000000000E+00 0.  1.
</event>
<event>
 7    1  0.5950675E-006  0.8238757E+02  0.7818608E-02  0.1407243E+00
          2   -1    0    0  502    0  0.00000000000E+00  0.00000000000E+00  0.15948778955E+03  0.15948778955E+03  0.00000000000E+00 0. -1.
          1   -1    0    0  501    0 -0.00000000000E+00 -0.00000000000E+00 -0.22971068468E+04  0.22971068468E+04  0.00000000000E+00 0. -1.
         25    2    1    2    0    0 -0.41311316931E+02 -0.11047534024E+02 -0.80852085320E+01  0.13235933126E+03  0.12499979624E+03 0.  0.
          2    1    1    2  501    0  0.77496478051E+02  0.29392011012E+02 -0.22218513800E+04  0.22233967593E+04  0.00000000000E+00 0. -1.
          1    1    1    2  502    0 -0.36185161120E+02 -0.18344476989E+02  0.92317531319E+02  0.10083854576E+03  0.00000000000E+00 0. -1.
         22    1    3    3    0    0 -0.24161546112E+02  0.37254027001E+02  0.41693375641E+02  0.60909608524E+02  0.00000000000E+00 0. -1.
         22    1    3    3    0    0 -0.17149770820E+02 -0.48301561024E+02 -0.49778584173E+02  0.71449722734E+02  0.00000000000E+00 0. -1.
</event>
<event>
 7    1  0.5950675E-006  0.1139074E+03  0.7818608E-02  0.1253916E+00
          2   -1    0    0  502    0  0.00000000000E+00  0.00000000000E+00  0.55511780912E+03  0.55511780912E+03  0.00000000000E+00 0. -1.
          1   -1    0    0  501    0 -0.00000000000E+00 -0.00000000000E+00 -0.19648366117E+03  0.19648366117E+03  0.00000000000E+00 0. -1.
         25    2    1    2    0    0 -0.12097977612E+03  0.35415808242E+02  0.15776580293E+03  0.23749706579E+03  0.12499768792E+03 0.  0.
          2    1    1    2  501    0  0.36676786292E+02 -0.11201803791E+03 -0.12325795527E+03  0.17054545144E+03  0.00000000000E+00 0. -1.
          1    1    1    2  502    0  0.84302989825E+02  0.76602229669E+02  0.32412630029E+03  0.34355895306E+03  0.00000000000E+00 0. -1.
         22    1    3    3    0    0 -0.33908101924E+02 -0.19332368355E+02  0.12281371104E+03  0.12886701463E+03  0.00000000000E+00 0.  1.
         22    1    3    3    0    0 -0.87071674193E+02  0.54748176596E+02  0.34952091891E+02  0.10863005116E+03  0.00000000000E+00 0.  1.
</event>
<event>
 7    1  0.5950675E-006  0.1353896E+03  0.7818608E-02  0.1223695E+00
          2   -1    0    0  502    0  0.00000000000E+00  0.00000000000E+00  0.43582549339E+03  0.43582549339E+03  0.00000000000E+00 0. -1.
          1   -1    0    0  501    0 -0.00000000000E+00 -0.00000000000E+00 -0.66431273451E+03  0.66431273451E+03  0.00000000000E+00 0. -1.
         25    2    1    2    0    0  0.85722982381E+02 -0.27296801085E+02  0.38474511431E+02  0.15872641612E+03  0.12498096689E+03 0.  0.
          2    1    1    2  501    0 -0.34881371574E+02 -0.12502998602E+03 -0.57744656383E+03  0.59185618318E+03  0.00000000000E+00 0. -1.
          1    1    1    2  502    0 -0.50841610807E+02  0.15232678711E+03  0.31048481127E+03  0.34955562861E+03  0.00000000000E+00 0. -1.
         22    1    3    3    0    0 -0.16565244982E+02  0.30774337615E+02  0.18078012615E+02  0.39348211358E+02  0.00000000000E+00 0.  1.
         22    1    3    3    0    0  0.10228822736E+03 -0.58071138701E+02  0.20396498816E+02  0.11937820476E+03  0.00000000000E+00 0.  1.
</event>
<event>
 7    1  0.7911964E-006  0.1063645E+03  0.7818608E-02  0.1270754E+00
          2   -1    0    0  502    0  0.00000000000E+00  0.00000000000E+00  0.12852996057E+04  0.12852996057E+04  0.00000000000E+00 0. -1.
          1   -1    0    0  501    0 -0.00000000000E+00 -0.00000000000E+00 -0.13833313931E+04  0.13833313931E+04  0.00000000000E+00 0. -1.
         25    2    1    2    0    0 -0.92372401827E+01  0.47797511368E+01 -0.10960215130E+03  0.16657323049E+03  0.12500334763E+03 0.  0.
          2    1    1    2  501    0  0.15086154586E+01  0.10300884118E+03 -0.12407820745E+04  0.12450515064E+04  0.00000000000E+00 0. -1.
          1    1    1    2  502    0  0.77286247242E+01 -0.10778859232E+03  0.12523524384E+04  0.12570062618E+04  0.00000000000E+00 0. -1.
         22    1    3    3    0    0 -0.57355477546E+02  0.31350646792E+02 -0.35723750386E+02  0.74489597934E+02  0.00000000000E+00 0. -1.
         22    1    3    3    0    0  0.48118237363E+02 -0.26570895655E+02 -0.73878400914E+02  0.92083632555E+02  0.00000000000E+00 0. -1.
</event>
<event>
 7    1  0.5950675E-006  0.2306908E+02  0.7818608E-02  0.1705592E+00
          2   -1    0    0  502    0  0.00000000000E+00  0.00000000000E+00  0.27501720779E+03  0.27501720779E+03  0.00000000000E+00 0. -1.
          1   -1    0    0  501    0 -0.00000000000E+00 -0.00000000000E+00 -0.11370261885E+04  0.11370261885E+04  0.00000000000E+00 0. -1.
         25    2    1    2    0    0 -0.17571588574E+02 -0.32475114732E+02  0.23605332926E+03  0.26964711187E+03  0.12499998752E+03 0.  0.
          2    1    1    2  501    0  0.20080921110E+02  0.11347258589E+02 -0.11149770311E+04  0.11152155772E+04  0.00000000000E+00 0. -1.
          1    1    1    2  502    0 -0.25093325356E+01  0.21127856142E+02  0.16914721140E+02  0.27180707242E+02  0.00000000000E+00 0. -1.
         22    1    3    3    0    0 -0.61601437763E+02  0.59871610550E+01  0.69159710246E+02  0.92809744927E+02  0.00000000000E+00 0. -1.
         22    1    3    3    0    0  0.44029849189E+02 -0.38462275786E+02  0.16689361902E+03  0.17683736694E+03  0.00000000000E+00 0. -1.
</event>
<event>
 7    1  0.5950675E-006  0.1870534E+03  0.7818608E-02  0.1362135E+00
          2   -1    0    0  502    0  0.00000000000E+00  0.00000000000E+00  0.26244793587E+04  0.26244793587E+04  0.00000000000E+00 0. -1.
          1   -1    0    0  501    0 -0.00000000000E+00 -0.00000000000E+00 -0.55288909393E+02  0.55288909393E+02  0.00000000000E+00 0. -1.
         25    2    1    2    0    0  0.15997439256E+03 -0.58301730557E+02  0.64064886446E+03  0.67456464645E+03  0.12496238090E+03 0.  0.
          2    1    1    2  501    0 -0.18547828522E+03  0.54744202276E+02  0.20630131980E+03  0.28277085515E+03  0.00000000000E+00 0. -1.
          1    1    1    2  502    0  0.25503892663E+02  0.35575282811E+01  0.17222402651E+04  0.17224327665E+04  0.00000000000E+00 0. -1.
         22    1    3    3    0    0  0.67927723323E+02 -0.45798801354E+01  0.85584785026E+02  0.10936135664E+03  0.00000000000E+00 0. -1.
         22    1    3    3    0    0  0.92046669235E+02 -0.53721850421E+02  0.55506407944E+03  0.56520328981E+03  0.00000000000E+00 0. -1.
</event>
<event>
 7    1  0.5950675E-006  0.3210780E+02  0.7818608E-02  0.1604415E+00
          2   -1    0    0  502    0  0.00000000000E+00  0.00000000000E+00  0.19819056399E+04  0.19819056399E+04  0.00000000000E+00 0. -1.
          1   -1    0    0  501    0 -0.00000000000E+00 -0.00000000000E+00 -0.40753793970E+02  0.40753793970E+02  0.00000000000E+00 0. -1.
         25    2    1    2    0    0 -0.32567443442E+02  0.33131448075E+02  0.64540320096E+03  0.65903725893E+03  0.12500594238E+03 0.  0.
          2    1    1    2  501    0  0.12472821032E+01 -0.26956617367E+02 -0.28349299834E+02  0.39139465167E+02  0.00000000000E+00 0. -1.
          1    1    1    2  502    0  0.31320161339E+02 -0.61748307083E+01  0.13240979448E+04  0.13244827098E+04  0.00000000000E+00 0. -1.
         22    1    3    3    0    0 -0.73521550949E+02 -0.45399598269E+01  0.44485482219E+03  0.45091223371E+03  0.00000000000E+00 0. -1.
         22    1    3    3    0    0  0.40954107506E+02  0.37671407902E+02  0.20054837877E+03  0.20812502522E+03  0.00000000000E+00 0. -1.
</event>
<event>
 7    1  0.5950675E-006  0.7225134E+02  0.7818608E-02  0.1407536E+00
          2   -1    0    0  502    0  0.00000000000E+00  0.00000000000E+00  0.11213012331E+04  0.11213012331E+04  0.00000000000E+00 0. -1.
          1   -1    0    0  501    0 -0.00000000000E+00 -0.00000000000E+00 -0.31172025196E+02  0.31172025196E+02  0.00000000000E+00 0. -1.
         25    2    1    2    0    0  0.12836895327E+02  0.52936243857E+02  0.20830911471E+03  0.24896642753E+03  0.12499825187E+03 0.  0.
          2    1    1    2  501    0 -0.54631943642E+02 -0.72517813955E+02  0.19459975126E+03  0.21473831935E+03  0.00000000000E+00 0. -1.
          1    1    1    2  502    0  0.41795048315E+02  0.19581570099E+02  0.68722034197E+03  0.68876851145E+03  0.00000000000E+00 0. -1.
         22    1    3    3    0    0 -0.23831736732E+02  0.63381519210E+02  0.45088868873E+02  0.81352164994E+02  0.00000000000E+00 0. -1.
         22    1    3    3    0    0  0.36668632059E+02 -0.10445275354E+02  0.16322024584E+03  0.16761426254E+03  0.00000000000E+00 0. -1.
</event>
<event>
 7    1  0.5950675E-006  0.5408851E+02  0.7818608E-02  0.1492554E+00
          2   -1    0    0  502    0  0.00000000000E+00  0.00000000000E+00  0.24363586942E+03  0.24363586942E+03  0.00000000000E+00 0. -1.
          1   -1    0    0  501    0 -0.00000000000E+00 -0.00000000000E+00 -0.14170272292E+04  0.14170272292E+04  0.00000000000E+00 0. -1.
         25    2    1    2    0    0  0.16421472613E+02 -0.43564420242E+02  0.11704255052E+03  0.17745909898E+03  0.12500099881E+03 0.  0.
          2    1    1    2  501    0 -0.45861773034E+02  0.28790283690E+02 -0.13834594932E+04  0.13845188161E+04  0.00000000000E+00 0. -1.
          1    1    1    2  502    0  0.29440300421E+02  0.14774136552E+02  0.93025582872E+02  0.98685183631E+02  0.00000000000E+00 0. -1.
         22    1    3    3    0    0  0.36485447555E+00 -0.37829942878E+02 -0.17611354447E+02  0.41730055145E+02  0.00000000000E+00 0. -1.
         22    1    3    3    0    0  0.16056618138E+02 -0.57344773640E+01  0.13465390497E+03  0.13572904383E+03  0.00000000000E+00 0. -1.
</event>
<event>
 7    1  0.5950675E-006  0.1554390E+03  0.7818608E-02  0.1328410E+00
          2   -1    0    0  502    0  0.00000000000E+00  0.00000000000E+00  0.19522523538E+04  0.19522523538E+04  0.00000000000E+00 0. -1.
          1   -1    0    0  501    0 -0.00000000000E+00 -0.00000000000E+00 -0.51125642681E+03  0.51125642681E+03  0.00000000000E+00 0. -1.
         25    2    1    2    0    0 -0.18373537183E+02  0.16456483936E+03  0.89928163205E+02  0.22614806925E+03  0.12504679711E+03 0.  0.
          2    1    1    2  501    0 -0.21520551680E+02 -0.15347354405E+03 -0.42934911023E+03  0.45646239858E+03  0.00000000000E+00 0. -1.
          1    1    1    2  502    0  0.39894088864E+02 -0.11091295310E+02  0.17804168740E+04  0.17808983128E+04  0.00000000000E+00 0. -1.
         22    1    3    3    0    0 -0.32949315920E+02 -0.77834822372E+01  0.21702553803E+02  0.40214933257E+02  0.00000000000E+00 0. -1.
         22    1    3    3    0    0  0.14575778736E+02  0.17234832159E+03  0.68225609402E+02  0.18593313599E+03  0.00000000000E+00 0. -1.
</event>
<event>
 7    1  0.5950675E-006  0.6926601E+02  0.7818608E-02  0.1454562E+00
          2   -1    0    0  502    0  0.00000000000E+00  0.00000000000E+00  0.54284129842E+03  0.54284129842E+03  0.00000000000E+00 0. -1.
          1   -1    0    0  501    0 -0.00000000000E+00 -0.00000000000E+00 -0.10526425892E+04  0.10526425892E+04  0.00000000000E+00 0. -1.
         25    2    1    2    0    0 -0.71846739286E+02  0.53771208074E+00 -0.12857130706E+03  0.19317858351E+03  0.12500056419E+03 0.  0.
          2    1    1    2  501    0  0.10612861302E+02  0.32008701633E+02 -0.88909172162E+03  0.88973101512E+03  0.00000000000E+00 0. -1.
          1    1    1    2  502    0  0.61233877984E+02 -0.32546413714E+02  0.50786173792E+03  0.51257428896E+03  0.00000000000E+00 0. -1.
         22    1    3    3    0    0  0.34931692924E+02  0.47517996120E+01 -0.46946481498E+02  0.58709240288E+02  0.00000000000E+00 0. -1.
         22    1    3    3    0    0 -0.10677843221E+03 -0.42140875313E+01 -0.81624825560E+02  0.13446934322E+03  0.00000000000E+00 0. -1.
</event>
<event>
 7    1  0.5950675E-006  0.1291785E+03  0.7818608E-02  0.1358099E+00
          2   -1    0    0  502    0  0.00000000000E+00  0.00000000000E+00  0.85548462092E+03  0.85548462092E+03  0.00000000000E+00 0. -1.
          1   -1    0    0  501    0 -0.00000000000E+00 -0.00000000000E+00 -0.32680786439E+04  0.32680786439E+04  0.00000000000E+00 0. -1.
         25    2    1    2    0    0 -0.16437751935E+01 -0.16624944583E+03  0.49868156277E+03  0.54032199792E+03  0.12499192034E+03 0.  0.
          2    1    1    2  501    0 -0.78086960290E+01  0.12885156352E+03 -0.32448636737E+04  0.32474303630E+04  0.00000000000E+00 0. -1.
          1    1    1    2  502    0  0.94524712225E+01  0.37397882307E+02  0.33358808795E+03  0.33581090398E+03  0.00000000000E+00 0. -1.
         22    1    3    3    0    0 -0.41423791628E+02 -0.11242769056E+03  0.19119152756E+03  0.22563270226E+03  0.00000000000E+00 0. -1.
         22    1    3    3    0    0  0.39780016435E+02 -0.53821755266E+02  0.30749003521E+03  0.31468929565E+03  0.00000000000E+00 0. -1.
</event>
<event>
 7    1  0.5950675E-006  0.4917891E+02  0.7818608E-02  0.1486655E+00
          2   -1    0    0  502    0  0.00000000000E+00  0.00000000000E+00  0.24710213704E+03  0.24710213704E+03  0.00000000000E+00 0. -1.
          1   -1    0    0  501    0 -0.00000000000E+00 -0.00000000000E+00 -0.11331104900E+03  0.11331104900E+03  0.00000000000E+00 0. -1.
         25    2    1    2    0    0  0.80422132062E+02  0.14726656825E+02  0.30473972395E+02  0.15244147056E+03  0.12500058082E+03 0.  0.
          2    1    1    2  501    0 -0.42694741507E+02 -0.15984352070E+02 -0.39456458893E+02  0.60292226794E+02  0.00000000000E+00 0. -1.
          1    1    1    2  502    0 -0.37727390554E+02  0.12576952447E+01  0.14277357453E+03  0.14767948869E+03  0.00000000000E+00 0. -1.
         22    1    3    3    0    0 -0.22241497534E+02  0.49831226540E+01 -0.26234463166E+02  0.34752881630E+02  0.00000000000E+00 0. -1.
         22    1    3    3    0    0  0.10266362960E+03  0.97435341709E+01  0.56708435561E+02  0.11768858893E+03  0.00000000000E+00 0. -1.
</event>
<event>
 7    1  0.5950675E-006  0.1553987E+03  0.7818608E-02  0.1284718E+00
          2   -1    0    0  502    0  0.00000000000E+00  0.00000000000E+00  0.23373679462E+03  0.23373679462E+03  0.00000000000E+00 0. -1.
          1   -1    0    0  501    0 -0.00000000000E+00 -0.00000000000E+00 -0.51911917522E+03  0.51911917522E+03  0.00000000000E+00 0. -1.
         25    2    1    2    0    0  0.40251832284E+02 -0.12089647567E+03 -0.19791815564E+03  0.26652006763E+03  0.12500072915E+03 0.  0.
          2    1    1    2  501    0 -0.20363777507E+02  0.17931338552E+03 -0.25237366381E+03  0.31025866603E+03  0.00000000000E+00 0. -1.
          1    1    1    2  502    0 -0.19888054776E+02 -0.58416909850E+02  0.16490943885E+03  0.17607723618E+03  0.00000000000E+00 0. -1.
         22    1    3    3    0    0  0.69712192903E+02 -0.89150358044E+02 -0.19191268697E+03  0.22279599548E+03  0.00000000000E+00 0. -1.
         22    1    3    3    0    0 -0.29460360619E+02 -0.31746117624E+02 -0.60054686652E+01  0.43724072155E+02  0.00000000000E+00 0. -1.
</event>
<event>
 7    1  0.5950675E-006  0.2363918E+03  0.7818608E-02  0.1283285E+00
          2   -1    0    0  502    0  0.00000000000E+00  0.00000000000E+00  0.42889423162E+04  0.42889423162E+04  0.00000000000E+00 0. -1.
          1   -1    0    0  501    0 -0.00000000000E+00 -0.00000000000E+00 -0.43102837943E+02  0.43102837943E+02  0.00000000000E+00 0. -1.
         25    2    1    2    0    0  0.13608633207E+03 -0.21199013055E+03  0.90689628878E+03  0.94949729897E+03  0.12499974770E+03 0.  0.
          2    1    1    2  501    0 -0.41084080099E+02 -0.17164789502E+01  0.61714995284E+01  0.41580468299E+02  0.00000000000E+00 0. -1.
          1    1    1    2  502    0 -0.95002251966E+02  0.21370660950E+03  0.33327716899E+04  0.33409673869E+04  0.00000000000E+00 0. -1.
         22    1    3    3    0    0  0.47391817460E+02 -0.10837902127E+03  0.22609381298E+03  0.25516741343E+03  0.00000000000E+00 0. -1.
         22    1    3    3    0    0  0.88694514605E+02 -0.10361110928E+03  0.68080247580E+03  0.69432988554E+03  0.00000000000E+00 0. -1.
</event>
<event>
 7    1  0.5950675E-006  0.2079258E+03  0.7818608E-02  0.1330635E+00
          2   -1    0    0  502    0  0.00000000000E+00  0.00000000000E+00  0.13973201334E+04  0.13973201334E+04  0.00000000000E+00 0. -1.
          1   -1    0    0  501    0 -0.00000000000E+00 -0.00000000000E+00 -0.29004609776E+04  0.29004609776E+04  0.00000000000E+00 0. -1.
         25    2    1    2    0    0  0.18114171880E+03  0.20077942481E+01  0.33838432737E+03  0.40366564589E+03  0.12500258850E+03 0.  0.
          2    1    1    2  501    0 -0.20783040929E+03  0.12452566626E+02 -0.28638158711E+04  0.28713742161E+04  0.00000000000E+00 0. -1.
          1    1    1    2  502    0  0.26688690485E+02 -0.14460360874E+02  0.10222906994E+04  0.10227412490E+04  0.00000000000E+00 0. -1.
         22    1    3    3    0    0  0.16592514770E+03 -0.22595041725E+02  0.33502331351E+03  0.37454280282E+03  0.00000000000E+00 0. -1.
         22    1    3    3    0    0  0.15216571101E+02  0.24602835973E+02  0.33610138577E+01  0.29122843064E+02  0.00000000000E+00 0. -1.
</event>
<event>
 7    1  0.5950675E-006  0.1267438E+03  0.7818608E-02  0.1403047E+00
          2   -1    0    0  502    0  0.00000000000E+00  0.00000000000E+00  0.16516118123E+03  0.16516118123E+03  0.00000000000E+00 0. -1.
          1   -1    0    0  501    0 -0.00000000000E+00 -0.00000000000E+00 -0.43621124773E+03  0.43621124773E+03  0.00000000000E+00 0. -1.
         25    2    1    2    0    0  0.96944074903E+02 -0.48454861393E+02 -0.99490369044E+02  0.19305032565E+03  0.12499626974E+03 0.  0.
          2    1    1    2  501    0 -0.11240442989E+03  0.70901314084E+02 -0.27281483365E+03  0.30346282418E+03  0.00000000000E+00 0. -1.
          1    1    1    2  502    0  0.15460354989E+02 -0.22446452692E+02  0.10125513620E+03  0.10485927914E+03  0.00000000000E+00 0. -1.
         22    1    3    3    0    0  0.68073819178E+02 -0.56265106459E+02 -0.12546899057E+03  0.15343491994E+03  0.00000000000E+00 0.  1.
         22    1    3    3    0    0  0.28870255725E+02  0.78102450669E+01  0.25978621523E+02  0.39615405714E+02  0.00000000000E+00 0.  1.
</event>
<event>
 7    1  0.5950675E-006  0.9211999E+02  0.7818608E-02  0.1379851E+00
          2   -1    0    0  502    0  0.00000000000E+00  0.00000000000E+00  0.40449149832E+03  0.40449149832E+03  0.00000000000E+00 0. -1.
          1   -1    0    0  501    0 -0.00000000000E+00 -0.00000000000E+00 -0.55550965018E+03  0.55550965018E+03  0.00000000000E+00 0. -1.
         25    2    1    2    0    0 -0.77963846967E+02  0.10823918326E+03 -0.53110739785E+02  0.19036757024E+03  0.12499991557E+03 0.  0.
          2    1    1    2  501    0  0.58723257524E+02 -0.67377284975E+02 -0.42761063365E+03  0.43685120294E+03  0.00000000000E+00 0. -1.
          1    1    1    2  502    0  0.19240589443E+02 -0.40861898286E+02  0.32970322156E+03  0.33278237532E+03  0.00000000000E+00 0. -1.
         22    1    3    3    0    0  0.55259942255E+01 -0.22138347650E+02  0.76303515225E+01  0.24059619972E+02  0.00000000000E+00 0.  1.
         22    1    3    3    0    0 -0.83489841193E+02  0.13037753091E+03 -0.60741091308E+02  0.16630795027E+03  0.00000000000E+00 0.  1.
</event>
<event>
 7    1  0.5950675E-006  0.6440734E+02  0.7818608E-02  0.1423053E+00
          2   -1    0    0  502    0  0.00000000000E+00  0.00000000000E+00  0.11916459529E+04  0.11916459529E+04  0.00000000000E+00 0. -1.
          1   -1    0    0  501    0 -0.00000000000E+00 -0.00000000000E+00 -0.11931880078E+03  0.11931880078E+03  0.00000000000E+00 0. -1.
         25    2    1    2    0    0  0.96278111434E+01  0.27404894771E+02  0.63186067872E+03  0.64476177645E+03  0.12500443212E+03 0.  0.
          2    1    1    2  501    0 -0.54947836395E+02 -0.34766127033E+02 -0.10245338071E+03  0.12134514218E+03  0.00000000000E+00 0. -1.
          1    1    1    2  502    0  0.45320025252E+02  0.73612322623E+01  0.54291985411E+03  0.54485783505E+03  0.00000000000E+00 0. -1.
         22    1    3    3    0    0 -0.61372095550E+00 -0.45258315485E+02  0.13202552744E+03  0.13956873457E+03  0.00000000000E+00 0. -1.
         22    1    3    3    0    0  0.10241532099E+02  0.72663210256E+02  0.49983515128E+03  0.50519304188E+03  0.00000000000E+00 0. -1.
</event>
<event>
 7    1  0.5950675E-006  0.6216465E+02  0.7818608E-02  0.1420036E+00
          2   -1    0    0  502    0  0.00000000000E+00  0.00000000000E+00  0.19179729500E+04  0.19179729500E+04  0.00000000000E+00 0. -1.
          1   -1    0    0  501    0 -0.00000000000E+00 -0.00000000000E+00 -0.21496828558E+03  0.21496828558E+03  0.00000000000E+00 0. -1.
         25    2    1    2    0    0 -0.16055523657E+02  0.20272679058E+02 -0.19859524026E+02  0.12918500531E+03  0.12500241416E+03 0.  0.
          2    1    1    2  501    0  0.64715872131E+02 -0.21815372835E+02 -0.13180543861E+03  0.14844772900E+03  0.00000000000E+00 0. -1.
          1    1    1    2  502    0 -0.48660348474E+02  0.15426937773E+01  0.18546696271E+04  0.18553085013E+04  0.00000000000E+00 0. -1.
         22    1    3    3    0    0 -0.86205283542E+01  0.26887221369E+02 -0.71354190898E+02  0.76737583626E+02  0.00000000000E+00 0.  1.
         22    1    3    3    0    0 -0.74349953024E+01 -0.66145423110E+01  0.51494666872E+02  0.52447421685E+02  0.00000000000E+00 0.  1.
</event>
<event>
 7    1  0.5950675E-006  0.5944591E+02  0.7818608E-02  0.1460480E+00
          2   -1    0    0  502    0  0.00000000000E+00  0.00000000000E+00  0.21664698059E+04  0.21664698059E+04  0.00000000000E+00 0. -1.
          1   -1    0    0  501    0 -0.00000000000E+00 -0.00000000000E+00 -0.23827495815E+02  0.23827495815E+02  0.00000000000E+00 0. -1.
         25    2    1    2    0    0  0.59115862323E+02  0.61628800855E+02  0.67558529247E+03  0.69233909002E+03  0.12500053560E+03 0.  0.
          2    1    1    2  501    0 -0.36753578385E+02 -0.80926374109E+01  0.89320646211E+01  0.38679427126E+02  0.00000000000E+00 0. -1.
          1    1    1    2  502    0 -0.22362283938E+02 -0.53536163444E+02  0.14581249530E+04  0.14592787845E+04  0.00000000000E+00 0. -1.
         22    1    3    3    0    0 -0.21832761430E+01  0.78706884886E+02  0.48657818451E+03  0.49290756746E+03  0.00000000000E+00 0.  1.
         22    1    3    3    0    0  0.61299138466E+02 -0.17078084032E+02  0.18900710796E+03  0.19943152256E+03  0.00000000000E+00 0.  1.
</event>
<event>
 7    1  0.5950675E-006  0.1228303E+03  0.7818608E-02  0.1239942E+00
          2   -1    0    0  502    0  0.00000000000E+00  0.00000000000E+00  0.62932166966E+03  0.62932166966E+03  0.00000000000E+00 0. -1.
          1   -1    0    0  501    0 -0.00000000000E+00 -0.00000000000E+00 -0.15709482765E+04  0.15709482765E+04  0.00000000000E+00 0. -1.
         25    2    1    2    0    0  0.21296592279E+02  0.14707351098E+02 -0.97716792938E+02  0.16075804772E+03  0.12499890906E+03 0.  0.
          2    1    1    2  501    0 -0.63650603221E+02  0.10505184847E+03 -0.14323043645E+04  0.14375615057E+04  0.00000000000E+00 0. -1.
          1    1    1    2  502    0  0.42354010942E+02 -0.11975919957E+03  0.58839455060E+03  0.60195039273E+03  0.00000000000E+00 0. -1.
         22    1    3    3    0    0 -0.54092639515E+01 -0.34803687416E+02  0.12206357114E+02  0.37276694438E+02  0.00000000000E+00 0.  1.
         22    1    3    3    0    0  0.26705856230E+02  0.49511038514E+02 -0.10992315005E+03  0.12348135328E+03  0.00000000000E+00 0.  1.
</event>
<event>
 7    1  0.5950675E-006  0.5263202E+02  0.7818608E-02  0.1539781E+00
          2   -1    0    0  502    0  0.00000000000E+00  0.00000000000E+00  0.60908961687E+03  0.60908961687E+03  0.00000000000E+00 0. -1.
          1   -1    0    0  501    0 -0.00000000000E+00 -0.00000000000E+00 -0.20790732762E+03  0.20790732762E+03  0.00000000000E+00 0. -1.
         25    2    1    2    0    0 -0.38750606427E+02  0.12103540248E+02  0.27165639251E+03  0.30177876660E+03  0.12500049278E+03 0.  0.
          2    1    1    2  501    0 -0.15855665346E+02 -0.18863642469E+02 -0.18969552390E+03  0.19128939050E+03  0.00000000000E+00 0. -1.
          1    1    1    2  502    0  0.54606271773E+02  0.67601022215E+01  0.31922142065E+03  0.32392878739E+03  0.00000000000E+00 0. -1.
         22    1    3    3    0    0 -0.11292246096E+02 -0.75200425381E+01 -0.10782868161E+02  0.17330207946E+02  0.00000000000E+00 0.  1.
         22    1    3    3    0    0 -0.27458360331E+02  0.19623582786E+02  0.28243926067E+03  0.28444855866E+03  0.00000000000E+00 0.  1.
</event>
<event>
 7    1  0.5950675E-006  0.1489530E+03  0.7818608E-02  0.1353274E+00
          2   -1    0    0  502    0  0.00000000000E+00  0.00000000000E+00  0.65828741254E+03  0.65828741254E+03  0.00000000000E+00 0. -1.
          1   -1    0    0  501    0 -0.00000000000E+00 -0.00000000000E+00 -0.25901646298E+03  0.25901646298E+03  0.00000000000E+00 0. -1.
         25    2    1    2    0    0  0.13687494841E+03  0.35729121194E+02 -0.37829963023E+02  0.19252818575E+03  0.12499869840E+03 0.  0.
          2    1    1    2  501    0 -0.15410501550E+03 -0.54406826729E+01 -0.10178448766E+03  0.18476482014E+03  0.00000000000E+00 0. -1.
          1    1    1    2  502    0  0.17230067092E+02 -0.30288438521E+02  0.53888540024E+03  0.54001086963E+03  0.00000000000E+00 0. -1.
         22    1    3    3    0    0  0.16533266745E+02  0.62297193533E+02 -0.22837231456E+02  0.68380029043E+02  0.00000000000E+00 0. -1.
         22    1    3    3    0    0  0.12034168167E+03 -0.26568072339E+02 -0.14992731567E+02  0.12414815671E+03  0.00000000000E+00 0. -1.
</event>
<event>
 7    1  0.5950675E-006  0.1895291E+03  0.7818608E-02  0.1265925E+00
          2   -1    0    0  502    0  0.00000000000E+00  0.00000000000E+00  0.27039933472E+04  0.27039933472E+04  0.00000000000E+00 0. -1.
          1   -1    0    0  501    0 -0.00000000000E+00 -0.00000000000E+00 -0.18614389500E+04  0.18614389500E+04  0.00000000000E+00 0. -1.
         25    2    1    2    0    0  0.89345662960E+01  0.24884769676E+03 -0.14769719915E+03  0.31535052862E+03  0.12500596230E+03 0.  0.
          2    1    1    2  501    0  0.24768601912E+01 -0.60535573475E+02 -0.16259542240E+04  0.16270826129E+04  0.00000000000E+00 0. -1.
          1    1    1    2  502    0 -0.11411426487E+02 -0.18831212328E+03  0.26162058204E+04  0.26229991558E+04  0.00000000000E+00 0. -1.
         22    1    3    3    0    0  0.53471876178E+01  0.24550589886E+02  0.22530901801E+02  0.33748561675E+02  0.00000000000E+00 0.  1.
         22    1    3    3    0    0  0.35873786782E+01  0.22429710687E+03 -0.17022810095E+03  0.28160196695E+03  0.00000000000E+00 0.  1.
</event>
<event>
 7    1  0.5950675E-006  0.4472834E+02  0.7818608E-02  0.1526133E+00
          2   -1    0    0  502    0  0.00000000000E+00  0.00000000000E+00  0.16166831618E+03  0.16166831618E+03  0.00000000000E+00 0. -1.
          1   -1    0    0  501    0 -0.00000000000E+00 -0.00000000000E+00 -0.15031172954E+04  0.15031172954E+04  0.00000000000E+00 0. -1.
         25    2    1    2    0    0  0.88916418926E+01  0.62738669360E+02 -0.17043951670E+03  0.22066038097E+03  0.12500469170E+03 0.  0.
          2    1    1    2  501    0  0.17182312592E+02 -0.26659661801E+02 -0.13037416771E+04  0.13041274210E+04  0.00000000000E+00 0. -1.
          1    1    1    2  502    0 -0.26073954484E+02 -0.36079007559E+02  0.13273221464E+03  0.13999780960E+03  0.00000000000E+00 0. -1.
         22    1    3    3    0    0  0.65359693658E+01 -0.31533176788E+02 -0.93702923236E+02  0.99082278722E+02  0.00000000000E+00 0.  1.
         22    1    3    3    0    0  0.23556725268E+01  0.94271846148E+02 -0.76736593468E+02  0.12157810225E+03  0.00000000000E+00 0.  1.
</event>
<event>
 7    1  0.5950675E-006  0.2139522E+03  0.7818608E-02  0.1185340E+00
          2   -1    0    0  502    0  0.00000000000E+00  0.00000000000E+00  0.41286345214E+04  0.41286345214E+04  0.00000000000E+00 0. -1.
          1   -1    0    0  501    0 -0.00000000000E+00 -0.00000000000E+00 -0.63377768309E+03  0.63377768309E+03  0.00000000000E+00 0. -1.
         25    2    1    2    0    0  0.18412010388E+03 -0.97719911994E+01  0.48753516017E+03  0.53601401726E+03  0.12499915935E+03 0.  0.
          2    1    1    2  501    0 -0.67966129559E+01 -0.12401068712E+03 -0.59975962276E+03  0.61248383617E+03  0.00000000000E+00 0. -1.
          1    1    1    2  502    0 -0.17732349093E+03  0.13378267832E+03  0.36070813009E+04  0.36139143511E+04  0.00000000000E+00 0. -1.
         22    1    3    3    0    0  0.17560700627E+03 -0.11674440447E+02  0.49447855856E+03  0.52486489508E+03  0.00000000000E+00 0. -1.
         22    1    3    3    0    0  0.85130976110E+01  0.19024492477E+01 -0.69433983975E+01  0.11149122180E+02  0.00000000000E+00 0. -1.
</event>
<event>
 7    1  0.5950675E-006  0.2095924E+03  0.7818608E-02  0.1155881E+00
          2   -1    0    0  502    0  0.00000000000E+00  0.00000000000E+00  0.83134109920E+03  0.83134109920E+03  0.00000000000E+00 0. -1.
          1   -1    0    0  501    0 -0.00000000000E+00 -0.00000000000E+00 -0.13425598037E+04  0.13425598037E+04  0.00000000000E+00 0. -1.
         25    2    1    2    0    0 -0.10971248457E+03 -0.22098818705E+02  0.11363329516E+03  0.20264002086E+03  0.12500106089E+03 0.  0.
          2    1    1    2  501    0 -0.16243660084E+03  0.71598310868E+02 -0.12631712733E+04  0.12755836441E+04  0.00000000000E+00 0. -1.
          1    1    1    2  502    0  0.27214908541E+03 -0.49499492163E+02  0.63831927359E+03  0.69567723799E+03  0.00000000000E+00 0. -1.
         22    1    3    3    0    0 -0.46874608724E+02  0.16180843028E+02 -0.17240635305E+02  0.52500363140E+02  0.00000000000E+00 0. -1.
         22    1    3    3    0    0 -0.62837875849E+02 -0.38279661733E+02  0.13087393047E+03  0.15013965772E+03  0.00000000000E+00 0. -1.
</event>
<event>
 7    1  0.5950675E-006  0.4930142E+02  0.7818608E-02  0.1516552E+00
          2   -1    0    0  502    0  0.00000000000E+00  0.00000000000E+00  0.80179807835E+03  0.80179807835E+03  0.00000000000E+00 0. -1.
          1   -1    0    0  501    0 -0.00000000000E+00 -0.00000000000E+00 -0.16890622502E+03  0.16890622502E+03  0.00000000000E+00 0. -1.
         25    2    1    2    0    0 -0.63962856614E+02  0.26603746772E+02 -0.18413306243E+02  0.14409362430E+03  0.12499966539E+03 0.  0.
          2    1    1    2  501    0  0.14809477512E+02 -0.26863503664E+02 -0.84123190271E+02  0.89541496496E+02  0.00000000000E+00 0. -1.
          1    1    1    2  502    0  0.49153379103E+02  0.25975689188E+00  0.73542834984E+03  0.73706918257E+03  0.00000000000E+00 0. -1.
         22    1    3    3    0    0 -0.18919158953E+02  0.41199736287E+02 -0.63957206817E+02  0.78395644965E+02  0.00000000000E+00 0.  1.
         22    1    3    3    0    0 -0.45043697661E+02 -0.14595989515E+02  0.45543900574E+02  0.65697979333E+02  0.00000000000E+00 0.  1.
</event>
<event>
 7    1  0.5950675E-006  0.8144559E+02  0.7818608E-02  0.1388200E+00
          2   -1    0    0  502    0  0.00000000000E+00  0.00000000000E+00  0.21943740672E+03  0.21943740672E+03  0.00000000000E+00 0. -1.
          1   -1    0    0  501    0 -0.00000000000E+00 -0.00000000000E+00 -0.23404471856E+04  0.23404471856E+04  0.00000000000E+00 0. -1.
         25    2    1    2    0    0  0.79054606514E+00 -0.11836978897E+03 -0.14490196464E+04  0.14592109403E+04  0.12500640225E+03 0.  0.
          2    1    1    2  501    0 -0.24883332637E+02  0.40744053408E+02 -0.87795472336E+03  0.87925181512E+03  0.00000000000E+00 0. -1.
          1    1    1    2  502    0  0.24092786572E+02  0.77625735559E+02  0.20596459087E+03  0.22142183695E+03  0.00000000000E+00 0. -1.
         22    1    3    3    0    0 -0.59652692136E+02 -0.50016524152E+02 -0.53242794855E+03  0.53808885582E+03  0.00000000000E+00 0. -1.
         22    1    3    3    0    0  0.60443238201E+02 -0.68353264815E+02 -0.91659169786E+03  0.92112208444E+03  0.00000000000E+00 0. -1.
</event>
<event>
 7    1  0.5950675E-006  0.1028558E+03  0.7818608E-02  0.1373950E+00
          2   -1    0    0  502    0  0.00000000000E+00  0.00000000000E+00  0.76177958074E+03  0.76177958074E+03  0.00000000000E+00 0. -1.
          1   -1    0    0  501    0 -0.00000000000E+00 -0.00000000000E+00 -0.42443767632E+03  0.42443767632E+03  0.00000000000E+00 0. -1.
         25    2    1    2    0    0 -0.46500262047E+02 -0.12636158719E+03 -0.91903052767E+02  0.20543057472E+03  0.12500409927E+03 0.  0.
          2    1    1    2  501    0  0.15870942203E+02  0.96963326272E+02 -0.26635145793E+03  0.28389588336E+03  0.00000000000E+00 0. -1.
          1    1    1    2  502    0  0.30629319844E+02  0.29398260918E+02  0.69559641512E+03  0.69689079898E+03  0.00000000000E+00 0. -1.
         22    1    3    3    0    0 -0.84394408520E+02 -0.79800100441E+02 -0.31668073827E+02  0.12038828481E+03  0.00000000000E+00 0.  1.
         22    1    3    3    0    0  0.37894146473E+02 -0.46561486749E+02 -0.60234978940E+02  0.85042289910E+02  0.00000000000E+00 0.  1.
</event>
<event>
 7    1  0.5950675E-006  0.4639793E+02  0.7818608E-02  0.1469022E+00
          2   -1    0    0  502    0  0.00000000000E+00  0.00000000000E+00  0.16563373426E+04  0.16563373426E+04  0.00000000000E+00 0. -1.
          1   -1    0    0  501    0 -0.00000000000E+00 -0.00000000000E+00 -0.10776951984E+02  0.10776951984E+02  0.00000000000E+00 0. -1.
         25    2    1    2    0    0  0.20789024026E+02 -0.95412020396E+01  0.45087184012E+03  0.46843822473E+03  0.12500294443E+03 0.  0.
          2    1    1    2  501    0 -0.25206940666E+02 -0.38953542536E+02  0.44641190664E+03  0.44881662038E+03  0.00000000000E+00 0. -1.
          1    1    1    2  502    0  0.44179166394E+01  0.48494744576E+02  0.74827664386E+03  0.74985944948E+03  0.00000000000E+00 0. -1.
         22    1    3    3    0    0  0.28582973922E+02 -0.18452509726E+02  0.24556057075E+02  0.41958091621E+02  0.00000000000E+00 0. -1.
         22    1    3    3    0    0 -0.77939498961E+01  0.89113076868E+01  0.42631578305E+03  0.42648013311E+03  0.00000000000E+00 0. -1.
</event>
<event>
 7    1  0.5950675E-006  0.1024755E+03  0.7818608E-02  0.1370366E+00
          2   -1    0    0  502    0  0.00000000000E+00  0.00000000000E+00  0.78443420243E+03  0.78443420243E+03  0.00000000000E+00 0. -1.
          1   -1    0    0  501    0 -0.00000000000E+00 -0.00000000000E+00 -0.10684692062E+03  0.10684692062E+03  0.00000000000E+00 0. -1.
         25    2    1    2    0    0  0.63108618905E+02  0.12660980161E+03  0.16490406453E+03  0.25066697090E+03  0.12501136012E+03 0.  0.
          2    1    1    2  501    0 -0.12123292187E+02 -0.42183695743E+02 -0.51619743844E+02  0.67757186737E+02  0.00000000000E+00 0. -1.
          1    1    1    2  502    0 -0.50985326718E+02 -0.84426105862E+02  0.56430296112E+03  0.57285696541E+03  0.00000000000E+00 0. -1.
         22    1    3    3    0    0  0.84221679102E+02  0.29248912205E+02  0.78983018306E+02  0.11910964393E+03  0.00000000000E+00 0.  1.
         22    1    3    3    0    0 -0.21113060197E+02  0.97360889400E+02  0.85921046228E+02  0.13155732697E+03  0.00000000000E+00 0.  1.
</event>
<event>
 7    1  0.5950675E-006  0.8978514E+02  0.7818608E-02  0.1364381E+00
          2   -1    0    0  502    0  0.00000000000E+00  0.00000000000E+00  0.25060470435E+04  0.25060470435E+04  0.00000000000E+00 0. -1.
          1   -1    0    0  501    0 -0.00000000000E+00 -0.00000000000E+00 -0.25452248674E+02  0.25452248674E+02  0.00000000000E+00 0. -1.
         25    2    1    2    0    0  0.12554853847E+03  0.41520557935E+02  0.11496641547E+04  0.11639757133E+04  0.12500160192E+03 0.  0.
          2    1    1    2  501    0 -0.44235204733E+02 -0.28551953212E+02  0.23760656718E+02  0.57762757704E+02  0.00000000000E+00 0. -1.
          1    1    1    2  502    0 -0.81313333734E+02 -0.12968604724E+02  0.13071699834E+04  0.13097608211E+04  0.00000000000E+00 0. -1.
         22    1    3    3    0    0  0.25946383876E+02 -0.56051310403E+01  0.35248307189E+02  0.44125678350E+02  0.00000000000E+00 0.  1.
         22    1    3    3    0    0  0.99602154591E+02  0.47125688976E+02  0.11144158475E+04  0.11198500350E+04  0.00000000000E+00 0.  1.
</event>
<event>
 7    1  0.5950675E-006  0.8407180E+02  0.7818608E-02  0.1447849E+00
          2   -1    0    0  502    0  0.00000000000E+00  0.00000000000E+00  0.12216629140E+04  0.12216629140E+04  0.00000000000E+00 0. -1.
          1   -1    0    0  501    0 -0.00000000000E+00 -0.00000000000E+00 -0.28102443484E+02  0.28102443484E+02  0.00000000000E+00 0. -1.
         25    2    1    2    0    0 -0.53237338367E+02  0.49635177755E+02  0.44747552409E+03  0.47027530696E+03  0.12500661826E+03 0.  0.
          2    1    1    2  501    0 -0.26059933324E+02 -0.13149522856E+02  0.89296924422E+00  0.29203209930E+02  0.00000000000E+00 0. -1.
          1    1    1    2  502    0  0.79297271691E+02 -0.36485654899E+02  0.74519197722E+03  0.75028684063E+03  0.00000000000E+00 0. -1.
         22    1    3    3    0    0  0.36897491681E+02  0.25972973565E+02  0.87704194690E+02  0.98630857313E+02  0.00000000000E+00 0. -1.
         22    1    3    3    0    0 -0.90134830048E+02  0.23662204190E+02  0.35977132940E+03  0.37164444965E+03  0.00000000000E+00 0. -1.
</event>
<event>
 7    1  0.5950675E-006  0.1549988E+03  0.7818608E-02  0.1412307E+00
          2   -1    0    0  502    0  0.00000000000E+00  0.00000000000E+00  0.68357943185E+03  0.68357943185E+03  0.00000000000E+00 0. -1.
          1   -1    0    0  501    0 -0.00000000000E+00 -0.00000000000E+00 -0.19937784341E+04  0.19937784341E+04  0.00000000000E+00 0. -1.
         25    2    1    2    0    0 -0.12742049904E+03 -0.11202289880E+03 -0.14362593205E+04  0.14516374360E+04  0.12500118589E+03 0.  0.
          2    1    1    2  501    0  0.23663073556E+01  0.20592917464E+02 -0.54075244020E+03  0.54114958121E+03  0.00000000000E+00 0. -1.
          1    1    1    2  502    0  0.12505419169E+03  0.91429981331E+02  0.66681275836E+03  0.68457084882E+03  0.00000000000E+00 0. -1.
         22    1    3    3    0    0 -0.51482936104E+01 -0.52535182497E+02 -0.76071431993E+03  0.76254359015E+03  0.00000000000E+00 0.  1.
         22    1    3    3    0    0 -0.12227220543E+03 -0.59487716298E+02 -0.67554500052E+03  0.68909384582E+03  0.00000000000E+00 0.  1.
</event>
<event>
 7    1  0.5950675E-006  0.4976950E+02  0.7818608E-02  0.1449368E+00
          2   -1    0    0  502    0  0.00000000000E+00  0.00000000000E+00  0.62908422724E+03  0.62908422724E+03  0.00000000000E+00 0. -1.
          1   -1    0    0  501    0 -0.00000000000E+00 -0.00000000000E+00 -0.50383176188E+03  0.50383176188E+03  0.00000000000E+00 0. -1.
         25    2    1    2    0    0 -0.15196784377E+02  0.65186637953E+01 -0.15702231553E+03  0.20138161514E+03  0.12500044843E+03 0.  0.
          2    1    1    2  501    0  0.41645525644E+02  0.34442447849E+02 -0.32139081699E+03  0.32590288318E+03  0.00000000000E+00 0. -1.
          1    1    1    2  502    0 -0.26448741268E+02 -0.40961111644E+02  0.60366559788E+03  0.60563149080E+03  0.00000000000E+00 0. -1.
         22    1    3    3    0    0  0.98558029567E+01 -0.44003665499E+01 -0.17054783598E+03  0.17088904130E+03  0.00000000000E+00 0.  1.
         22    1    3    3    0    0 -0.25052587333E+02  0.10919030345E+02  0.13525520454E+02  0.30492573839E+02  0.00000000000E+00 0.  1.
</event>
<event>
 7    1  0.5950675E-006  0.1004918E+03  0.7818608E-02  0.1441488E+00
          2   -1    0    0  502    0  0.00000000000E+00  0.00000000000E+00  0.60377863466E+03  0.60377863466E+03  0.00000000000E+00 0. -1.
          1   -1    0    0  501    0 -0.00000000000E+00 -0.00000000000E+00 -0.16682245855E+04  0.16682245855E+04  0.00000000000E+00 0. -1.
         25    2    1    2    0    0 -0.12446706264E+03 -0.16737002058E+02 -0.18777627547E+03  0.25818108020E+03  0.12500145449E+03 0.  0.
          2    1    1    2  501    0  0.25277378877E+02  0.40566119601E+01 -0.14407346324E+04  0.14409620686E+04  0.00000000000E+00 0. -1.
          1    1    1    2  502    0  0.99189683765E+02  0.12680390098E+02  0.56406495704E+03  0.57286007141E+03  0.00000000000E+00 0. -1.
         22    1    3    3    0    0 -0.13676881740E+03 -0.39067647838E+02 -0.18374950648E+03  0.23237011781E+03  0.00000000000E+00 0.  1.
         22    1    3    3    0    0  0.12301754756E+02  0.22330645780E+02 -0.40267689862E+01  0.25810962390E+02  0.00000000000E+00 0.  1.
</event>
<event>
 7    1  0.5950675E-006  0.3720951E+02  0.7818608E-02  0.1556343E+00
          2   -1    0    0  502    0  0.00000000000E+00  0.00000000000E+00  0.12553615750E+03  0.12553615750E+03  0.00000000000E+00 0. -1.
          1   -1    0    0  501    0 -0.00000000000E+00 -0.00000000000E+00 -0.50416565872E+03  0.50416565872E+03  0.00000000000E+00 0. -1.
         25    2    1    2    0    0 -0.59812525865E+02  0.46222266072E+01 -0.30795603053E+02  0.14202515604E+03  0.12499549012E+03 0.  0.
          2    1    1    2  501    0  0.31850007465E+02 -0.18751935513E+02 -0.41337941236E+03  0.41502842869E+03  0.00000000000E+00 0. -1.
          1    1    1    2  502    0  0.27962518400E+02  0.14129708906E+02  0.65545514189E+02  0.72648231494E+02  0.00000000000E+00 0. -1.
         22    1    3    3    0    0 -0.83935554964E+02 -0.35761010819E+02 -0.25210365808E+02  0.94655109878E+02  0.00000000000E+00 0. -1.
         22    1    3    3    0    0  0.24123029099E+02  0.40383237426E+02 -0.55852372444E+01  0.47370046157E+02  0.00000000000E+00 0. -1.
</event>
<event>
 7    1  0.5950675E-006  0.1192983E+03  0.7818608E-02  0.1336431E+00
          2   -1    0    0  502    0  0.00000000000E+00  0.00000000000E+00  0.35464891848E+04  0.35464891848E+04  0.00000000000E+00 0. -1.
          1   -1    0    0  501    0 -0.00000000000E+00 -0.00000000000E+00 -0.61942072285E+03  0.61942072285E+03  0.00000000000E+00 0. -1.
         25    2    1    2    0    0 -0.11438150466E+02  0.16742073141E+03  0.12695888901E+03  0.24475326729E+03  0.12500027904E+03 0.  0.
          2    1    1    2  501    0  0.11423207918E+02 -0.11713188819E+03 -0.55415555219E+03  0.56651455845E+03  0.00000000000E+00 0. -1.
          1    1    1    2  502    0  0.14942548109E-01 -0.50288843224E+02  0.33542651251E+04  0.33546420819E+04  0.00000000000E+00 0. -1.
         22    1    3    3    0    0 -0.37629976025E+02  0.69756932940E+02  0.11945788676E+03  0.14336049490E+03  0.00000000000E+00 0.  1.
         22    1    3    3    0    0  0.26191825560E+02  0.97663798471E+02  0.75010022450E+01  0.10139277239E+03  0.00000000000E+00 0.  1.
</event>
<event>
 7    1  0.5950675E-006  0.6325707E+02  0.7818608E-02  0.1488147E+00
          2   -1    0    0  502    0  0.00000000000E+00  0.00000000000E+00  0.77807506765E+03  0.77807506765E+03  0.00000000000E+00 0. -1.
          1   -1    0    0  501    0 -0.00000000000E+00 -0.00000000000E+00 -0.34485841501E+03  0.34485841501E+03  0.00000000000E+00 0. -1.
         25    2    1    2    0    0  0.14979811312E+02 -0.34917766927E+02  0.73806666593E+02  0.15005423085E+03  0.12500081187E+03 0.  0.
          2    1    1    2  501    0 -0.39577274754E+02  0.50359447994E+02 -0.30306937440E+03  0.30976358789E+03  0.00000000000E+00 0. -1.
          1    1    1    2  502    0  0.24597463442E+02 -0.15441681067E+02  0.66247936045E+03  0.66311566392E+03  0.00000000000E+00 0. -1.
         22    1    3    3    0    0  0.20401581476E+02 -0.45164383350E+02 -0.21517158410E+02  0.54028086734E+02  0.00000000000E+00 0.  1.
         22    1    3    3    0    0 -0.54217701643E+01  0.10246616423E+02  0.95323825002E+02  0.96026144111E+02  0.00000000000E+00 0.  1.
</event>
<event>
 7    1  0.5950675E-006  0.7707853E+02  0.7818608E-02  0.1371483E+00
          2   -1    0    0  502    0  0.00000000000E+00  0.00000000000E+00  0.27986277972E+04  0.27986277972E+04  0.00000000000E+00 0. -1.
          1   -1    0    0  501    0 -0.00000000000E+00 -0.00000000000E+00 -0.37200668581E+03  0.37200668581E+03  0.00000000000E+00 0. -1.
         25    2    1    2    0    0  0.86503105541E+02  0.33498198862E+01  0.26985309533E+03  0.30974143038E+03  0.12500020829E+03 0.  0.
          2    1    1    2  501    0 -0.29920636645E+02  0.49472952645E+02 -0.34908710380E+03  0.35384265370E+03  0.00000000000E+00 0. -1.
          1    1    1    2  502    0 -0.56582468896E+02 -0.52822772531E+02  0.25058551199E+04  0.25070503990E+04  0.00000000000E+00 0. -1.
         22    1    3    3    0    0  0.38153118755E+02 -0.38436718833E+02  0.30819337559E+02  0.62312706513E+02  0.00000000000E+00 0. -1.
         22    1    3    3    0    0  0.48349986786E+02  0.41786538720E+02  0.23903375777E+03  0.24742872386E+03  0.00000000000E+00 0. -1.
</event>
<event>
 7    1  0.5950675E-006  0.5940408E+02  0.7818608E-02  0.1448433E+00
          2   -1    0    0  502    0  0.00000000000E+00  0.00000000000E+00  0.73520076373E+03  0.73520076373E+03  0.00000000000E+00 0. -1.
          1   -1    0    0  501    0 -0.00000000000E+00 -0.00000000000E+00 -0.97955561203E+03  0.97955561203E+03  0.00000000000E+00 0. -1.
         25    2    1    2    0    0 -0.69742675454E+02  0.72225916368E+02 -0.38376669430E+03  0.41591182502E+03  0.12500058705E+03 0.  0.
          2    1    1    2  501    0  0.28085021835E+02 -0.30052400915E+02 -0.57776232999E+03  0.57922467594E+03  0.00000000000E+00 0. -1.
          1    1    1    2  502    0  0.41657653619E+02 -0.42173515452E+02  0.71717417599E+03  0.71961987481E+03  0.00000000000E+00 0. -1.
         22    1    3    3    0    0  0.24687201208E+02  0.91013690853E+01 -0.18596446307E+03  0.18781659763E+03  0.00000000000E+00 0. -1.
         22    1    3    3    0    0 -0.94429876662E+02  0.63124547282E+02 -0.19780223123E+03  0.22809522739E+03  0.00000000000E+00 0. -1.
</event>
<event>
 7    1  0.5950675E-006  0.9766603E+02  0.7818608E-02  0.1433871E+00
          2   -1    0    0  502    0  0.00000000000E+00  0.00000000000E+00  0.73045926178E+03  0.73045926178E+03  0.00000000000E+00 0. -1.
          1   -1    0    0  501    0 -0.00000000000E+00 -0.00000000000E+00 -0.11820557896E+03  0.11820557896E+03  0.00000000000E+00 0. -1.
         25    2    1    2    0    0 -0.92537618336E+02  0.42047557966E+02  0.10285887810E+03  0.19114386927E+03  0.12499928806E+03 0.  0.
          2    1    1    2  501    0  0.18148293707E+02  0.21177141731E+02 -0.67180060974E+02  0.72739208745E+02  0.00000000000E+00 0. -1.
          1    1    1    2  502    0  0.74389324629E+02 -0.63224699697E+02  0.57657486570E+03  0.58478176273E+03  0.00000000000E+00 0. -1.
         22    1    3    3    0    0 -0.53513339514E+02  0.16175389166E+02 -0.20228627930E+02  0.59451813332E+02  0.00000000000E+00 0. -1.
         22    1    3    3    0    0 -0.39024278822E+02  0.25872168800E+02  0.12308750603E+03  0.13169205594E+03  0.00000000000E+00 0. -1.
</event>
<event>
 7    1  0.5950675E-006  0.1362694E+03  0.7818608E-02  0.1323941E+00
          2   -1    0    0  502    0  0.00000000000E+00  0.00000000000E+00  0.17107874610E+04  0.17107874610E+04  0.00000000000E+00 0. -1.
          1   -1    0    0  501    0 -0.00000000000E+00 -0.00000000000E+00 -0.37715508691E+03  0.37715508691E+03  0.00000000000E+00 0. -1.
         25    2    1    2    0    0  0.73637808138E+02  0.12624626068E+03  0.16164721630E+03  0.25122805098E+03  0.12500026376E+03 0.  0.
          2    1    1    2  501    0 -0.48552573990E+02  0.75574123300E+01 -0.32744792597E+03  0.33111419653E+03  0.00000000000E+00 0. -1.
          1    1    1    2  502    0 -0.25085234148E+02 -0.13380367301E+03  0.14994330837E+04  0.15056003004E+04  0.00000000000E+00 0. -1.
         22    1    3    3    0    0  0.69718031776E+02  0.13239437236E+03  0.17846845352E+03  0.23289453126E+03  0.00000000000E+00 0. -1.
         22    1    3    3    0    0  0.39197763617E+01 -0.61481116813E+01 -0.16821237219E+02  0.18333519726E+02  0.00000000000E+00 0. -1.
</event>
<event>
 7    1  0.5950675E-006  0.6072339E+02  0.7818608E-02  0.1470436E+00
          2   -1    0    0  502    0  0.00000000000E+00  0.00000000000E+00  0.59660408175E+03  0.59660408175E+03  0.00000000000E+00 0. -1.
          1   -1    0    0  501    0 -0.00000000000E+00 -0.00000000000E+00 -0.36747249845E+03  0.36747249845E+03  0.00000000000E+00 0. -1.
         25    2    1    2    0    0  0.41756326204E+02  0.44912254147E+02 -0.54395135561E+02  0.14948107149E+03  0.12500023444E+03 0.  0.
          2    1    1    2  501    0 -0.59361278645E+02 -0.15485536863E+02 -0.26144492012E+03  0.26854610314E+03  0.00000000000E+00 0. -1.
          1    1    1    2  502    0  0.17604952441E+02 -0.29426717284E+02  0.54497163898E+03  0.54604940558E+03  0.00000000000E+00 0. -1.
         22    1    3    3    0    0  0.49789536030E+02 -0.33750716986E+02 -0.22616661725E+02  0.64262136463E+02  0.00000000000E+00 0. -1.
         22    1    3    3    0    0 -0.80332098266E+01  0.78662971132E+02 -0.31778473836E+02  0.85218935025E+02  0.00000000000E+00 0. -1.
</event>
<event>
 7    1  0.5950675E-006  0.5586694E+02  0.7818608E-02  0.1555574E+00
          2   -1    0    0  502    0  0.00000000000E+00  0.00000000000E+00  0.64875063274E+03  0.64875063274E+03  0.00000000000E+00 0. -1.
          1   -1    0    0  501    0 -0.00000000000E+00 -0.00000000000E+00 -0.18742069189E+03  0.18742069189E+03  0.00000000000E+00 0. -1.
         25    2    1    2    0    0 -0.25472392591E+02  0.64716848645E+02  0.19176556982E+03  0.23923982551E+03  0.12499818823E+03 0.  0.
          2    1    1    2  501    0  0.18330407351E+02 -0.10183486081E+02 -0.16125651737E+03  0.16261418024E+03  0.00000000000E+00 0. -1.
          1    1    1    2  502    0  0.71419852402E+01 -0.54533362564E+02  0.43082088841E+03  0.43431731887E+03  0.00000000000E+00 0. -1.
         22    1    3    3    0    0 -0.32435414606E+02  0.24863441826E+02  0.19444556512E+03  0.19869404786E+03  0.00000000000E+00 0. -1.
         22    1    3    3    0    0  0.69630220151E+01  0.39853406819E+02 -0.26799953043E+01  0.40545777653E+02  0.00000000000E+00 0. -1.
</event>
<event>
 7    1  0.5950675E-006  0.1113314E+03  0.7818608E-02  0.1270839E+00
          2   -1    0    0  502    0  0.00000000000E+00  0.00000000000E+00  0.37448204633E+03  0.37448204633E+03  0.00000000000E+00 0. -1.
          1   -1    0    0  501    0 -0.00000000000E+00 -0.00000000000E+00 -0.10876227303E+04  0.10876227303E+04  0.00000000000E+00 0. -1.
         25    2    1    2    0    0 -0.18975567174E+02 -0.44262768911E+02 -0.32857581559E+03  0.35483227855E+03  0.12499845780E+03 0.  0.
          2    1    1    2  501    0  0.69292119089E+02  0.12875841934E+03 -0.73185914203E+03  0.74632294089E+03  0.00000000000E+00 0. -1.
          1    1    1    2  502    0 -0.50316551915E+02 -0.84495650427E+02  0.34729427364E+03  0.36094955719E+03  0.00000000000E+00 0. -1.
         22    1    3    3    0    0  0.29730964786E+02 -0.70149616962E+02 -0.15518381664E+03  0.17287832708E+03  0.00000000000E+00 0. -1.
         22    1    3    3    0    0 -0.48706531961E+02  0.25886848051E+02 -0.17339199894E+03  0.18195395147E+03  0.00000000000E+00 0. -1.
</event>
<event>
 7    1  0.5950675E-006  0.1426151E+03  0.7818608E-02  0.1355738E+00
          2   -1    0    0  502    0  0.00000000000E+00  0.00000000000E+00  0.15977839440E+04  0.15977839440E+04  0.00000000000E+00 0. -1.
          1   -1    0    0  501    0 -0.00000000000E+00 -0.00000000000E+00 -0.41688008603E+02  0.41688008603E+02  0.00000000000E+00 0. -1.
         25    2    1    2    0    0  0.96179383762E+02 -0.74057346593E+02  0.26372618349E+03  0.31608787170E+03  0.12500031332E+03 0.  0.
          2    1    1    2  501    0  0.65221300194E+00 -0.35637068683E+02  0.16719278621E+02  0.39369535478E+02  0.00000000000E+00 0. -1.
          1    1    1    2  502    0 -0.96831596764E+02  0.10969441528E+03  0.12756504733E+04  0.12840145454E+04  0.00000000000E+00 0. -1.
         22    1    3    3    0    0  0.11585360887E+03 -0.24685268546E+02  0.20594381860E+03  0.23758004460E+03  0.00000000000E+00 0. -1.
         22    1    3    3    0    0 -0.19674225104E+02 -0.49372078047E+02  0.57782364891E+02  0.78507827103E+02  0.00000000000E+00 0. -1.
</event>
<event>
 7    1  0.5950675E-006  0.5924599E+02  0.7818608E-02  0.1502788E+00
          2   -1    0    0  502    0  0.00000000000E+00  0.00000000000E+00  0.16732561729E+04  0.16732561729E+04  0.00000000000E+00 0. -1.
          1   -1    0    0  501    0 -0.00000000000E+00 -0.00000000000E+00 -0.11273087160E+03  0.11273087160E+03  0.00000000000E+00 0. -1.
         25    2    1    2    0    0  0.69767154013E+02 -0.50902465714E+02  0.26844698191E+03  0.30845942907E+03  0.12499968197E+03 0.  0.
          2    1    1    2  501    0 -0.23570778067E+02  0.15157204711E+02 -0.89976225536E+02  0.94239289020E+02  0.00000000000E+00 0. -1.
          1    1    1    2  502    0 -0.46196375946E+02  0.35745261003E+02  0.13820545449E+04  0.13832883264E+04  0.00000000000E+00 0. -1.
         22    1    3    3    0    0 -0.35607643741E+02 -0.16295938644E+02  0.92823249965E+02  0.10074531077E+03  0.00000000000E+00 0. -1.
         22    1    3    3    0    0  0.10537479775E+03 -0.34606527069E+02  0.17562373195E+03  0.20771411830E+03  0.00000000000E+00 0. -1.
</event>
<event>
 7    1  0.5950675E-006  0.2868325E+02  0.7818608E-02  0.1639186E+00
          2   -1    0    0  502    0  0.00000000000E+00  0.00000000000E+00  0.19205784296E+04  0.19205784296E+04  0.00000000000E+00 0. -1.
          1   -1    0    0  501    0 -0.00000000000E+00 -0.00000000000E+00 -0.72352751333E+03  0.72352751333E+03  0.00000000000E+00 0. -1.
         25    2    1    2    0    0 -0.11342935937E+02  0.14887669176E+01 -0.13920311076E+03  0.18743772120E+03  0.12499805863E+03 0.  0.
          2    1    1    2  501    0 -0.52541184458E+00  0.24640423385E+02 -0.55982738735E+03  0.56036963707E+03  0.00000000000E+00 0. -1.
          1    1    1    2  502    0  0.11868347781E+02 -0.26129190303E+02  0.18960814143E+04  0.18962985846E+04  0.00000000000E+00 0. -1.
         22    1    3    3    0    0 -0.28378205333E+02  0.45091764148E+02 -0.12893918546E+03  0.13951309357E+03  0.00000000000E+00 0. -1.
         22    1    3    3    0    0  0.17035269396E+02 -0.43602997231E+02 -0.10263925303E+02  0.47924627630E+02  0.00000000000E+00 0. -1.
</event>
<event>
 7    1  0.5950675E-006  0.6939650E+02  0.7818608E-02  0.1389870E+00
          2   -1    0    0  502    0  0.00000000000E+00  0.00000000000E+00  0.54483074177E+03  0.54483074177E+03  0.00000000000E+00 0. -1.
          1   -1    0    0  501    0 -0.00000000000E+00 -0.00000000000E+00 -0.13339519525E+03  0.13339519525E+03  0.00000000000E+00 0. -1.
         25    2    1    2    0    0 -0.10041205304E+03  0.68357958636E+02  0.18875018547E+03  0.25691840198E+03  0.12500016742E+03 0.  0.
          2    1    1    2  501    0  0.58178084195E+02 -0.32686093379E+02 -0.85355687275E+02  0.10834511309E+03  0.00000000000E+00 0. -1.
          1    1    1    2  502    0  0.42233968844E+02 -0.35671865257E+02  0.30804104832E+03  0.31296242194E+03  0.00000000000E+00 0. -1.
         22    1    3    3    0    0 -0.11640163536E+03  0.13648226925E+02  0.12282072903E+03  0.16976615178E+03  0.00000000000E+00 0. -1.
         22    1    3    3    0    0  0.15989582322E+02  0.54709731711E+02  0.65929456447E+02  0.87152250196E+02  0.00000000000E+00 0. -1.
</event>
<event>
 7    1  0.7721801E-006  0.9336409E+02  0.7818608E-02  0.1319415E+00
          2   -1    0    0  502    0  0.00000000000E+00  0.00000000000E+00  0.27307860729E+04  0.27307860729E+04  0.00000000000E+00 0. -1.
          1   -1    0    0  501    0 -0.00000000000E+00 -0.00000000000E+00 -0.54128614194E+03  0.54128614194E+03  0.00000000000E+00 0. -1.
         25    2    1    2    0    0  0.11360982345E+03 -0.10013380588E+03 -0.17254260887E+03  0.26140045217E+03  0.12500109382E+03 0.  0.
          2    1    1    2  501    0 -0.72863404064E+02  0.16322918087E+02 -0.31919643069E+03  0.32781378048E+03  0.00000000000E+00 0. -1.
          1    1    1    2  502    0 -0.40746419385E+02  0.83810887797E+02  0.26812389705E+04  0.26828579822E+04  0.00000000000E+00 0. -1.
         22    1    3    3    0    0  0.43486946336E+02 -0.56640032528E+02 -0.14211532370E+01  0.71422877728E+02  0.00000000000E+00 0. -1.
         22    1    3    3    0    0  0.70122877113E+02 -0.43493773356E+02 -0.17112145563E+03  0.18997757445E+03  0.00000000000E+00 0. -1.
</event>
<event>
 7    1  0.5950675E-006  0.4240246E+02  0.7818608E-02  0.1503815E+00
          2   -1    0    0  502    0  0.00000000000E+00  0.00000000000E+00  0.96949675449E+02  0.96949675449E+02  0.00000000000E+00 0. -1.
          1   -1    0    0  501    0 -0.00000000000E+00 -0.00000000000E+00 -0.54513459586E+03  0.54513459586E+03  0.00000000000E+00 0. -1.
         25    2    1    2    0    0 -0.19064374805E+02  0.99473984370E+00 -0.56900763128E+02  0.13866506055E+03  0.12500344907E+03 0.  0.
          2    1    1    2  501    0  0.16969812102E+02 -0.39819673205E+02 -0.43941718132E+03  0.44154392775E+03  0.00000000000E+00 0. -1.
          1    1    1    2  502    0  0.20945627033E+01  0.38824933362E+02  0.48133024038E+02  0.61875283001E+02  0.00000000000E+00 0. -1.
         22    1    3    3    0    0 -0.16727159354E+01 -0.34069378757E+02 -0.84265376239E+02  0.90907503431E+02  0.00000000000E+00 0. -1.
         22    1    3    3    0    0 -0.17391658870E+02  0.35064118601E+02  0.27364613110E+02  0.47757557121E+02  0.00000000000E+00 0. -1.
</event>
<event>
 7    1  0.5950675E-006  0.8913927E+02  0.7818608E-02  0.1312296E+00
          2   -1    0    0  502    0  0.00000000000E+00  0.00000000000E+00  0.13126735348E+04  0.13126735348E+04  0.00000000000E+00 0. -1.
          1   -1    0    0  501    0 -0.00000000000E+00 -0.00000000000E+00 -0.46340295131E+02  0.46340295131E+02  0.00000000000E+00 0. -1.
         25    2    1    2    0    0  0.31572836577E+02 -0.89795235295E+02  0.16416599944E+03  0.22723565864E+03  0.12500216356E+03 0.  0.
          2    1    1    2  501    0  0.55351522172E+02  0.62355666491E+02  0.12431802279E+03  0.14968964875E+03  0.00000000000E+00 0. -1.
          1    1    1    2  502    0 -0.86924358749E+02  0.27439568804E+02  0.97784921745E+03  0.98208852256E+03  0.00000000000E+00 0. -1.
         22    1    3    3    0    0  0.27097596733E+02  0.19748991046E+02  0.86799810400E+02  0.93051112199E+02  0.00000000000E+00 0. -1.
         22    1    3    3    0    0  0.44752398440E+01 -0.10954422634E+03  0.77366189037E+02  0.13418454644E+03  0.00000000000E+00 0. -1.
</event>
<event>
 7    1  0.5950675E-006  0.1285965E+03  0.7818608E-02  0.1266984E+00
          2   -1    0    0  502    0  0.00000000000E+00  0.00000000000E+00  0.95714081299E+03  0.95714081299E+03  0.00000000000E+00 0. -1.
          1   -1    0    0  501    0 -0.00000000000E+00 -0.00000000000E+00 -0.47523429476E+03  0.47523429476E+03  0.00000000000E+00 0. -1.
         25    2    1    2    0    0  0.80304938359E+02 -0.42746955837E+02  0.94488755729E+01  0.15489798886E+03  0.12501168083E+03 0.  0.
          2    1    1    2  501    0 -0.51908260852E+02  0.12643906366E+03 -0.38857926520E+03  0.41191643534E+03  0.00000000000E+00 0. -1.
          1    1    1    2  502    0 -0.28396677507E+02 -0.83692107821E+02  0.86103690786E+03  0.86556068354E+03  0.00000000000E+00 0. -1.
         22    1    3    3    0    0  0.55491669286E+02 -0.80699493571E+02 -0.21150266696E+02  0.10019514661E+03  0.00000000000E+00 0.  1.
         22    1    3    3    0    0  0.24813269073E+02  0.37952537735E+02  0.30599142269E+02  0.54702842249E+02  0.00000000000E+00 0.  1.
</event>
<event>
 7    1  0.5950675E-006  0.1344426E+03  0.7818608E-02  0.1335223E+00
          2   -1    0    0  502    0  0.00000000000E+00  0.00000000000E+00  0.36136405374E+03  0.36136405374E+03  0.00000000000E+00 0. -1.
          1   -1    0    0  501    0 -0.00000000000E+00 -0.00000000000E+00 -0.10509591502E+04  0.10509591502E+04  0.00000000000E+00 0. -1.
         25    2    1    2    0    0 -0.13794854807E+03  0.34514478998E+02 -0.11924443450E+02  0.18970640308E+03  0.12500110337E+03 0.  0.
          2    1    1    2  501    0  0.11330659755E+03 -0.72283149849E+02 -0.94348228723E+03  0.95300685470E+03  0.00000000000E+00 0. -1.
          1    1    1    2  502    0  0.24641950522E+02  0.37768670851E+02  0.26581163418E+03  0.26960994620E+03  0.00000000000E+00 0. -1.
         22    1    3    3    0    0 -0.14516390920E+03 -0.79908779037E+01 -0.16653537902E+02  0.14633439442E+03  0.00000000000E+00 0.  1.
         22    1    3    3    0    0  0.72153611303E+01  0.42505356902E+02  0.47290944521E+01  0.43372008668E+02  0.00000000000E+00 0.  1.
</event>
<event>
 7    1  0.5950675E-006  0.7699018E+02  0.7818608E-02  0.1364639E+00
          2   -1    0    0  502    0  0.00000000000E+00  0.00000000000E+00  0.62580319715E+03  0.62580319715E+03  0.00000000000E+00 0. -1.
          1   -1    0    0  501    0 -0.00000000000E+00 -0.00000000000E+00 -0.97038060342E+03  0.97038060342E+03  0.00000000000E+00 0. -1.
         25    2    1    2    0    0 -0.81186836318E+02 -0.34931906372E+02 -0.94346942236E+02  0.17983658756E+03  0.12501324827E+03 0.  0.
          2    1    1    2  501    0  0.31493066053E+02  0.70768292728E+02 -0.82987076986E+03  0.83347792961E+03  0.00000000000E+00 0. -1.
          1    1    1    2  502    0  0.49693770265E+02 -0.35836386356E+02  0.57964030583E+03  0.58286928340E+03  0.00000000000E+00 0. -1.
         22    1    3    3    0    0 -0.11353881289E+03 -0.18211289414E+02 -0.59669410413E+02  0.12954980368E+03  0.00000000000E+00 0.  1.
         22    1    3    3    0    0  0.32351976573E+02 -0.16720616958E+02 -0.34677531823E+02  0.50286783879E+02  0.00000000000E+00 0.  1.
</event>
<event>
 7    1  0.5950675E-006  0.3409045E+02  0.7818608E-02  0.1595763E+00
          2   -1    0    0  502    0  0.00000000000E+00  0.00000000000E+00  0.17808006905E+04  0.17808006905E+04  0.00000000000E+00 0. -1.
          1   -1    0    0  501    0 -0.00000000000E+00 -0.00000000000E+00 -0.19409786789E+04  0.19409786789E+04  0.00000000000E+00 0. -1.
         25    2    1    2    0    0  0.15448742604E+02 -0.11207820788E+02 -0.56837014070E+02  0.13863430636E+03  0.12499898334E+03 0.  0.
          2    1    1    2  501    0 -0.16261675038E+01  0.34137536969E+02 -0.18429815825E+04  0.18432984374E+04  0.00000000000E+00 0. -1.
          1    1    1    2  502    0 -0.13822575100E+02 -0.22929716181E+02  0.17396406081E+04  0.17398466256E+04  0.00000000000E+00 0. -1.
         22    1    3    3    0    0 -0.15164731828E+02  0.13424572740E+02  0.34049511108E+02  0.39617640659E+02  0.00000000000E+00 0. -1.
         22    1    3    3    0    0  0.30613474431E+02 -0.24632393528E+02 -0.90886525178E+02  0.99016665701E+02  0.00000000000E+00 0. -1.
</event>
<event>
 7    1  0.5950675E-006  0.5628591E+02  0.7818608E-02  0.1421142E+00
          2   -1    0    0  502    0  0.00000000000E+00  0.00000000000E+00  0.18623021417E+04  0.18623021417E+04  0.00000000000E+00 0. -1.
          1   -1    0    0  501    0 -0.00000000000E+00 -0.00000000000E+00 -0.84471698073E+03  0.84471698073E+03  0.00000000000E+00 0. -1.
         25    2    1    2    0    0  0.54644420347E+02  0.56350229771E+02  0.33917089108E+03  0.36989478622E+03  0.12499559373E+03 0.  0.
          2    1    1    2  501    0 -0.53314291217E+02 -0.15425699304E+00 -0.82797345901E+03  0.82968818617E+03  0.00000000000E+00 0. -1.
          1    1    1    2  502    0 -0.13301291299E+01 -0.56195972778E+02  0.15063877289E+04  0.15074361500E+04  0.00000000000E+00 0. -1.
         22    1    3    3    0    0 -0.30436497733E+02  0.44110183385E+02  0.75650512153E+02  0.92709701010E+02  0.00000000000E+00 0. -1.
         22    1    3    3    0    0  0.85080918079E+02  0.12240046386E+02  0.26352037892E+03  0.27718508521E+03  0.00000000000E+00 0. -1.
</event>
<event>
 7    1  0.5950675E-006  0.3681688E+02  0.7818608E-02  0.1613084E+00
          2   -1    0    0  502    0  0.00000000000E+00  0.00000000000E+00  0.16945010215E+04  0.16945010215E+04  0.00000000000E+00 0. -1.
          1   -1    0    0  501    0 -0.00000000000E+00 -0.00000000000E+00 -0.29686094329E+03  0.29686094329E+03  0.00000000000E+00 0. -1.
         25    2    1    2    0    0 -0.19427848697E+02 -0.17748768382E+02 -0.57681908394E+02  0.14016044286E+03  0.12500114841E+03 0.  0.
          2    1    1    2  501    0  0.75834149863E+01  0.36703121967E+02 -0.19608940810E+03  0.19963888227E+03  0.00000000000E+00 0. -1.
          1    1    1    2  502    0  0.11844433711E+02 -0.18954353584E+02  0.16514113947E+04  0.16515626396E+04  0.00000000000E+00 0. -1.
         22    1    3    3    0    0  0.29489652095E+02 -0.35394363527E+02  0.17043444844E+02  0.49121070452E+02  0.00000000000E+00 0.  1.
         22    1    3    3    0    0 -0.48917500793E+02  0.17645595145E+02 -0.74725353238E+02  0.91039372408E+02  0.00000000000E+00 0.  1.
</event>
<event>
 7    1  0.5950675E-006  0.9765299E+02  0.7818608E-02  0.1449826E+00
          2   -1    0    0  502    0  0.00000000000E+00  0.00000000000E+00  0.73567286802E+02  0.73567286802E+02  0.00000000000E+00 0. -1.
          1   -1    0    0  501    0 -0.00000000000E+00 -0.00000000000E+00 -0.11750555779E+04  0.11750555779E+04  0.00000000000E+00 0. -1.
         25    2    1    2    0    0 -0.11882183803E+03  0.14827172298E-01 -0.50624223237E+03  0.53481294335E+03  0.12500022848E+03 0.  0.
          2    1    1    2  501    0  0.23133690083E+02  0.88425083583E+01 -0.61517057393E+03  0.61566889852E+03  0.00000000000E+00 0. -1.
          1    1    1    2  502    0  0.95688147944E+02 -0.88573355306E+01  0.19924515241E+02  0.98141022805E+02  0.00000000000E+00 0. -1.
         22    1    3    3    0    0 -0.50730101426E+02 -0.38551548359E+02 -0.38683716691E+03  0.39204943410E+03  0.00000000000E+00 0.  1.
         22    1    3    3    0    0 -0.68091736600E+02  0.38566375531E+02 -0.11940506546E+03  0.14276350925E+03  0.00000000000E+00 0.  1.
</event>
<event>
 7    1  0.5950675E-006  0.8526570E+02  0.7818608E-02  0.1365005E+00
          2   -1    0    0  502    0  0.00000000000E+00  0.00000000000E+00  0.27340260409E+03  0.27340260409E+03  0.00000000000E+00 0. -1.
          1   -1    0    0  501    0 -0.00000000000E+00 -0.00000000000E+00 -0.22395579028E+03  0.22395579028E+03  0.00000000000E+00 0. -1.
         25    2    1    2    0    0 -0.15477872050E+02  0.31516038327E+02 -0.77666690394E+02  0.15128312579E+03  0.12498657591E+03 0.  0.
          2    1    1    2  501    0 -0.70836680175E+01  0.54695700275E+02 -0.93269912075E+02  0.10835623877E+03  0.00000000000E+00 0. -1.
          1    1    1    2  502    0  0.22561540067E+02 -0.86211738602E+02  0.22038341628E+03  0.23771902981E+03  0.00000000000E+00 0. -1.
         22    1    3    3    0    0 -0.23400318474E+02  0.74362369256E+02 -0.22807198677E+02  0.81225028024E+02  0.00000000000E+00 0. -1.
         22    1    3    3    0    0  0.79224464238E+01 -0.42846330929E+02 -0.54859491717E+02  0.70058097768E+02  0.00000000000E+00 0. -1.
</event>
<event>
 7    1  0.5950675E-006  0.8301463E+02  0.7818608E-02  0.1392660E+00
          2   -1    0    0  502    0  0.00000000000E+00  0.00000000000E+00  0.32008204887E+03  0.32008204887E+03  0.00000000000E+00 0. -1.
          1   -1    0    0  501    0 -0.00000000000E+00 -0.00000000000E+00 -0.19406253552E+03  0.19406253552E+03  0.00000000000E+00 0. -1.
         25    2    1    2    0    0 -0.57112894674E+02  0.23548221782E+02 -0.10273120017E+02  0.13982228306E+03  0.12501332872E+03 0.  0.
          2    1    1    2  501    0 -0.27924597158E+02 -0.35531700746E+02 -0.10708898110E+03  0.11623396559E+03  0.00000000000E+00 0. -1.
          1    1    1    2  502    0  0.85037491832E+02  0.11983478964E+02  0.24338161447E+03  0.25808833574E+03  0.00000000000E+00 0. -1.
         22    1    3    3    0    0 -0.93126280085E+00 -0.32046861354E+02  0.36022045174E+02  0.48222985304E+02  0.00000000000E+00 0.  1.
         22    1    3    3    0    0 -0.56181631874E+02  0.55595083136E+02 -0.46295165192E+02  0.91599297754E+02  0.00000000000E+00 0.  1.
</event>
<event>
 7    1  0.6872573E-006  0.6435783E+02  0.7818608E-02  0.1489482E+00
          2   -1    0    0  502    0  0.00000000000E+00  0.00000000000E+00  0.87382113109E+03  0.87382113109E+03  0.00000000000E+00 0. -1.
          1   -1    0    0  501    0 -0.00000000000E+00 -0.00000000000E+00 -0.19603701490E+04  0.19603701490E+04  0.00000000000E+00 0. -1.
         25    2    1    2    0    0  0.13202744804E+02  0.43744228642E+02 -0.21882793754E+03  0.25612197192E+03  0.12499971296E+03 0.  0.
          2    1    1    2  501    0  0.27599440856E+02  0.61726652158E+01 -0.17215637804E+04  0.17217960625E+04  0.00000000000E+00 0. -1.
          1    1    1    2  502    0 -0.40802185661E+02 -0.49916893858E+02  0.85384270008E+03  0.85627324560E+03  0.00000000000E+00 0. -1.
         22    1    3    3    0    0 -0.38753695793E+02  0.37219288499E+02 -0.18762144609E+03  0.19516385784E+03  0.00000000000E+00 0. -1.
         22    1    3    3    0    0  0.51956440597E+02  0.65249401438E+01 -0.31206491450E+02  0.60958114079E+02  0.00000000000E+00 0. -1.
</event>
<event>
 7    1  0.5950675E-006  0.1127032E+03  0.7818608E-02  0.1394612E+00
          2   -1    0    0  502    0  0.00000000000E+00  0.00000000000E+00  0.55680793823E+03  0.55680793823E+03  0.00000000000E+00 0. -1.
          1   -1    0    0  501    0 -0.00000000000E+00 -0.00000000000E+00 -0.60177545105E+02  0.60177545105E+02  0.00000000000E+00 0. -1.
         25    2    1    2    0    0 -0.76847236894E+02 -0.67641591289E+02  0.12013578174E+03  0.20134866011E+03  0.12501117623E+03 0.  0.
          2    1    1    2  501    0 -0.27559413249E+02  0.17732985765E+02  0.14944204344E+02  0.36018179940E+02  0.00000000000E+00 0. -1.
          1    1    1    2  502    0  0.10440665014E+03  0.49908605524E+02  0.36155040705E+03  0.37961864329E+03  0.00000000000E+00 0. -1.
         22    1    3    3    0    0 -0.83920444202E+02 -0.84911330427E+02  0.51144963383E+02  0.12987833641E+03  0.00000000000E+00 0.  1.
         22    1    3    3    0    0  0.70732073084E+01  0.17269739138E+02  0.68990818357E+02  0.71470323695E+02  0.00000000000E+00 0.  1.
</event>
<event>
 7    1  0.5950675E-006  0.5690681E+02  0.7818608E-02  0.1459207E+00
          2   -1    0    0  502    0  0.00000000000E+00  0.00000000000E+00  0.24433565569E+04  0.24433565569E+04  0.00000000000E+00 0. -1.
          1   -1    0    0  501    0 -0.00000000000E+00 -0.00000000000E+00 -0.41367131439E+02  0.41367131439E+02  0.00000000000E+00 0. -1.
         25    2    1    2    0    0 -0.24771454079E+02  0.30368638156E+02  0.17148519963E+03  0.21579544041E+03  0.12499847715E+03 0.  0.
          2    1    1    2  501    0  0.29772417589E+01 -0.63525811029E+02  0.34091085138E+02  0.72156737186E+02  0.00000000000E+00 0. -1.
          1    1    1    2  502    0  0.21794212321E+02  0.33157172873E+02  0.21964131407E+04  0.21967715108E+04  0.00000000000E+00 0. -1.
         22    1    3    3    0    0 -0.57217217982E+02 -0.50935630600E+01  0.15447321746E+03  0.16480815918E+03  0.00000000000E+00 0. -1.
         22    1    3    3    0    0  0.32445763902E+02  0.35462201216E+02  0.17011982169E+02  0.50987281234E+02  0.00000000000E+00 0. -1.
</event>
<event>
 7    1  0.5950675E-006  0.5263716E+02  0.7818608E-02  0.1503153E+00
          2   -1    0    0  502    0  0.00000000000E+00  0.00000000000E+00  0.56492468729E+03  0.56492468729E+03  0.00000000000E+00 0. -1.
          1   -1    0    0  501    0 -0.00000000000E+00 -0.00000000000E+00 -0.64495845775E+03  0.64495845775E+03  0.00000000000E+00 0. -1.
         25    2    1    2    0    0 -0.64815131260E+02  0.48445686945E+02 -0.10439841409E+03  0.18185876004E+03  0.12500237563E+03 0.  0.
          2    1    1    2  501    0  0.17358255960E+02 -0.26241846937E+02 -0.50002993658E+03  0.50101884302E+03  0.00000000000E+00 0. -1.
          1    1    1    2  502    0  0.47456875300E+02 -0.22203840008E+02  0.52439458021E+03  0.52700554198E+03  0.00000000000E+00 0. -1.
         22    1    3    3    0    0 -0.78316032631E+02  0.25969398902E+02 -0.90888797110E+01  0.83008544023E+02  0.00000000000E+00 0.  1.
         22    1    3    3    0    0  0.13500901371E+02  0.22476288042E+02 -0.95309534383E+02  0.98850216015E+02  0.00000000000E+00 0.  1.
</event>
<event>
 7    1  0.5950675E-006  0.2292873E+03  0.7818608E-02  0.1163768E+00
          2   -1    0    0  502    0  0.00000000000E+00  0.00000000000E+00  0.89679796719E+03  0.89679796719E+03  0.00000000000E+00 0. -1.
          1   -1    0    0  501    0 -0.00000000000E+00 -0.00000000000E+00 -0.27330553882E+03  0.27330553882E+03  0.00000000000E+00 0. -1.
         25    2    1    2    0    0  0.27972051861E+02  0.32328636504E+02  0.51894338457E+02  0.14193205555E+03  0.12499643837E+03 0.  0.
          2    1    1    2  501    0 -0.22661111331E+03  0.82192854542E+02 -0.14122516518E+03  0.27937932868E+03  0.00000000000E+00 0. -1.
          1    1    1    2  502    0  0.19863906145E+03 -0.11452149105E+03  0.71282325509E+03  0.74879212178E+03  0.00000000000E+00 0. -1.
         22    1    3    3    0    0 -0.17181074367E+02 -0.15624539905E+00  0.78438838709E+02  0.80298599907E+02  0.00000000000E+00 0.  1.
         22    1    3    3    0    0  0.45153126228E+02  0.32484881903E+02 -0.26544500252E+02  0.61633455640E+02  0.00000000000E+00 0.  1.
</event>
<event>
 7    1  0.5950675E-006  0.6939389E+02  0.7818608E-02  0.1394464E+00
          2   -1    0    0  502    0  0.00000000000E+00  0.00000000000E+00  0.24169274831E+03  0.24169274831E+03  0.00000000000E+00 0. -1.
          1   -1    0    0  501    0 -0.00000000000E+00 -0.00000000000E+00 -0.29491715603E+03  0.29491715603E+03  0.00000000000E+00 0. -1.
         25    2    1    2    0    0  0.49148335404E+01  0.11881577068E+03  0.20186953276E+02  0.17370752380E+03  0.12500179115E+03 0.  0.
          2    1    1    2  501    0  0.54411615366E+01 -0.66544146110E+02 -0.20783819539E+03  0.21829898095E+03  0.00000000000E+00 0. -1.
          1    1    1    2  502    0 -0.10355995077E+02 -0.52271624575E+02  0.13442683439E+03  0.14460339959E+03  0.00000000000E+00 0. -1.
         22    1    3    3    0    0 -0.13544672717E+02 -0.17201933206E+02  0.28794833470E+02  0.36173292629E+02  0.00000000000E+00 0.  1.
         22    1    3    3    0    0  0.18459506257E+02  0.13601770389E+03 -0.86078801939E+01  0.13753423117E+03  0.00000000000E+00 0.  1.
</event>
<event>
 7    1  0.5950675E-006  0.5313139E+02  0.7818608E-02  0.1557107E+00
          2   -1    0    0  502    0  0.00000000000E+00  0.00000000000E+00  0.11110669331E+04  0.11110669331E+04  0.00000000000E+00 0. -1.
          1   -1    0    0  501    0 -0.00000000000E+00 -0.00000000000E+00 -0.33123572322E+02  0.33123572322E+02  0.00000000000E+00 0. -1.
         25    2    1    2    0    0  0.50023418835E+02  0.81241389413E+01  0.24319190013E+03  0.27809399905E+03  0.12500251178E+03 0.  0.
          2    1    1    2  501    0 -0.45528589317E+02 -0.29491072396E+02  0.31863111966E+02  0.62911316155E+02  0.00000000000E+00 0. -1.
          1    1    1    2  502    0 -0.44948295184E+01  0.21366933455E+02  0.80288834864E+03  0.80318519018E+03  0.00000000000E+00 0. -1.
         22    1    3    3    0    0  0.58140177547E+02  0.39222101649E+02  0.23455258126E+03  0.24481333068E+03  0.00000000000E+00 0.  1.
         22    1    3    3    0    0 -0.81167587120E+01 -0.31097962707E+02  0.86393188736E+01  0.33280668370E+02  0.00000000000E+00 0.  1.
</event>
<event>
 7    1  0.5950675E-006  0.8081681E+02  0.7818608E-02  0.1497529E+00
          2   -1    0    0  502    0  0.00000000000E+00  0.00000000000E+00  0.18102885634E+04  0.18102885634E+04  0.00000000000E+00 0. -1.
          1   -1    0    0  501    0 -0.00000000000E+00 -0.00000000000E+00 -0.40675070953E+03  0.40675070953E+03  0.00000000000E+00 0. -1.
         25    2    1    2    0    0 -0.60257768703E+02 -0.36799902693E+01  0.11270230906E+03  0.17880522715E+03  0.12499983109E+03 0.  0.
          2    1    1    2  501    0 -0.21166679722E+02  0.23758720558E+01 -0.37239873539E+03  0.37300736081E+03  0.00000000000E+00 0. -1.
          1    1    1    2  502    0  0.81424448425E+02  0.13041182135E+01  0.16632342802E+04  0.16652266850E+04  0.00000000000E+00 0. -1.
         22    1    3    3    0    0 -0.72146544198E+02  0.39260859188E+02  0.35103056492E+02  0.89323924449E+02  0.00000000000E+00 0. -1.
         22    1    3    3    0    0  0.11888775495E+02 -0.42940849457E+02  0.77599252567E+02  0.89481302705E+02  0.00000000000E+00 0. -1.
</event>
<event>
 7    1  0.5950675E-006  0.8152489E+02  0.7818608E-02  0.1341577E+00
          2   -1    0    0  502    0  0.00000000000E+00  0.00000000000E+00  0.12409469902E+04  0.12409469902E+04  0.00000000000E+00 0. -1.
          1   -1    0    0  501    0 -0.00000000000E+00 -0.00000000000E+00 -0.86048987101E+03  0.86048987101E+03  0.00000000000E+00 0. -1.
         25    2    1    2    0    0 -0.47319628623E+02 -0.10714851237E+03  0.77652111025E+03  0.79519197582E+03  0.12500117118E+03 0.  0.
          2    1    1    2  501    0  0.70584566079E+02  0.40728549088E+02 -0.84646500549E+03  0.85037873986E+03  0.00000000000E+00 0. -1.
          1    1    1    2  502    0 -0.23264937456E+02  0.66419963285E+02  0.45040101445E+03  0.45586614555E+03  0.00000000000E+00 0. -1.
         22    1    3    3    0    0  0.19072906860E+01 -0.78907822301E+01  0.45581170079E+03  0.45588398610E+03  0.00000000000E+00 0.  1.
         22    1    3    3    0    0 -0.49226919309E+02 -0.99257730143E+02  0.32070940945E+03  0.33930798972E+03  0.00000000000E+00 0.  1.
</event>
<event>
 7    1  0.5950675E-006  0.2479691E+03  0.7818608E-02  0.1350071E+00
          2   -1    0    0  502    0  0.00000000000E+00  0.00000000000E+00  0.11778521051E+04  0.11778521051E+04  0.00000000000E+00 0. -1.
          1   -1    0    0  501    0 -0.00000000000E+00 -0.00000000000E+00 -0.31483151868E+03  0.31483151868E+03  0.00000000000E+00 0. -1.
         25    2    1    2    0    0 -0.23622364188E+03 -0.11802181823E+03 -0.43079876303E+02  0.29531799358E+03  0.12500433204E+03 0.  0.
          2    1    1    2  501    0  0.10444512483E+02  0.18804435771E+02 -0.13028138210E+03  0.13204519366E+03  0.00000000000E+00 0. -1.
          1    1    1    2  502    0  0.22577912939E+03  0.99217382462E+02  0.10363818449E+04  0.10653204366E+04  0.00000000000E+00 0. -1.
         22    1    3    3    0    0 -0.10967121204E+03 -0.42795155451E+02 -0.81477194169E+02  0.14317029458E+03  0.00000000000E+00 0. -1.
         22    1    3    3    0    0 -0.12655242983E+03 -0.75226662782E+02  0.38397317866E+02  0.15214769899E+03  0.00000000000E+00 0. -1.
</event>
<event>
 7    1  0.5950675E-006  0.5930884E+02  0.7818608E-02  0.1425565E+00
          2   -1    0    0  502    0  0.00000000000E+00  0.00000000000E+00  0.74459669603E+03  0.74459669603E+03  0.00000000000E+00 0. -1.
          1   -1    0    0  501    0 -0.00000000000E+00 -0.00000000000E+00 -0.32942483265E+03  0.32942483265E+03  0.00000000000E+00 0. -1.
         25    2    1    2    0    0 -0.98713210380E+02  0.15561928927E+02 -0.17142102298E+03  0.23450644326E+03  0.12498653239E+03 0.  0.
          2    1    1    2  501    0  0.52431310978E+02  0.26430619410E+00 -0.12014452679E+03  0.13108706857E+03  0.00000000000E+00 0. -1.
          1    1    1    2  502    0  0.46281899402E+02 -0.15826235121E+02  0.70673741314E+03  0.70842801686E+03  0.00000000000E+00 0. -1.
         22    1    3    3    0    0 -0.32493292620E+02 -0.35840425423E+02 -0.55997707238E+01  0.48700180615E+02  0.00000000000E+00 0.  1.
         22    1    3    3    0    0 -0.66219917760E+02  0.51402354350E+02 -0.16582125225E+03  0.18580626265E+03  0.00000000000E+00 0.  1.
</event>
<event>
 7    1  0.5950675E-006  0.1565418E+03  0.7818608E-02  0.1373263E+00
          2   -1    0    0  502    0  0.00000000000E+00  0.00000000000E+00  0.25154208988E+04  0.25154208988E+04  0.00000000000E+00 0. -1.
          1   -1    0    0  501    0 -0.00000000000E+00 -0.00000000000E+00 -0.14250477042E+03  0.14250477042E+03  0.00000000000E+00 0. -1.
         25    2    1    2    0    0 -0.12193869059E+03 -0.58963979324E+02  0.15783557914E+03  0.24265581320E+03  0.12499591399E+03 0.  0.
          2    1    1    2  501    0 -0.11442635132E+02 -0.25613376577E+02 -0.95378786759E+02  0.99418770472E+02  0.00000000000E+00 0. -1.
          1    1    1    2  502    0  0.13338132573E+03  0.84577355901E+02  0.23104593360E+04  0.23158510856E+04  0.00000000000E+00 0. -1.
         22    1    3    3    0    0 -0.70963910913E+02 -0.85978669684E+02  0.54003779194E+02  0.12387338883E+03  0.00000000000E+00 0. -1.
         22    1    3    3    0    0 -0.50974779680E+02  0.27014690360E+02  0.10383179995E+03  0.11878242437E+03  0.00000000000E+00 0. -1.
</event>
<event>
 7    1  0.5950675E-006  0.1173086E+03  0.7818608E-02  0.1302125E+00
          2   -1    0    0  502    0  0.00000000000E+00  0.00000000000E+00  0.24132249174E+04  0.24132249174E+04  0.00000000000E+00 0. -1.
          1   -1    0    0  501    0 -0.00000000000E+00 -0.00000000000E+00 -0.22460288780E+04  0.22460288780E+04  0.00000000000E+00 0. -1.
         25    2    1    2    0    0 -0.57851494261E+02 -0.16901365931E+03  0.29178572415E+02  0.21997536507E+03  0.12500143889E+03 0.  0.
          2    1    1    2  501    0  0.44551690510E+02  0.53356704616E+02 -0.21485875549E+04  0.21497116718E+04  0.00000000000E+00 0. -1.
          1    1    1    2  502    0  0.13299803752E+02  0.11565695470E+03  0.22866050218E+04  0.22895667585E+04  0.00000000000E+00 0. -1.
         22    1    3    3    0    0  0.94453072186E+01 -0.64488428939E+02 -0.41213588867E+02  0.77113754952E+02  0.00000000000E+00 0.  1.
         22    1    3    3    0    0 -0.67296801480E+02 -0.10452523037E+03  0.70392161282E+02  0.14286161011E+03  0.00000000000E+00 0.  1.
</event>
<event>
 7    1  0.5950675E-006  0.1170562E+03  0.7818608E-02  0.1437484E+00
          2   -1    0    0  502    0  0.00000000000E+00  0.00000000000E+00  0.39235184509E+03  0.39235184509E+03  0.00000000000E+00 0. -1.
          1   -1    0    0  501    0 -0.00000000000E+00 -0.00000000000E+00 -0.13974186601E+04  0.13974186601E+04  0.00000000000E+00 0. -1.
         25    2    1    2    0    0 -0.66620851657E+02  0.11643825477E+03 -0.74470911609E+03  0.76695077299E+03  0.12500246221E+03 0.  0.
          2    1    1    2  501    0  0.20812949725E+02 -0.89260033174E+01 -0.63242526598E+03  0.63283060093E+03  0.00000000000E+00 0. -1.
          1    1    1    2  502    0  0.45807901932E+02 -0.10751225146E+03  0.37206756703E+03  0.38998913130E+03  0.00000000000E+00 0. -1.
         22    1    3    3    0    0 -0.57458628905E+02  0.13745587728E+03 -0.51546459604E+03  0.53656254249E+03  0.00000000000E+00 0.  1.
         22    1    3    3    0    0 -0.91622227521E+01 -0.21017622504E+02 -0.22924452005E+03  0.23038823051E+03  0.00000000000E+00 0.  1.
</event>
<event>
 7    1  0.5950675E-006  0.5494990E+02  0.7818608E-02  0.1538047E+00
          2   -1    0    0  502    0  0.00000000000E+00  0.00000000000E+00  0.35226235261E+03  0.35226235261E+03  0.00000000000E+00 0. -1.
          1   -1    0    0  501    0 -0.00000000000E+00 -0.00000000000E+00 -0.29308194688E+03  0.29308194688E+03  0.00000000000E+00 0. -1.
         25    2    1    2    0    0  0.13382271147E+02  0.33247471669E+02  0.34775140008E+02  0.13460508134E+03  0.12499895203E+03 0.  0.
          2    1    1    2  501    0  0.21173547398E+02  0.11023032954E+02 -0.23962053794E+03  0.24080662069E+03  0.00000000000E+00 0. -1.
          1    1    1    2  502    0 -0.34555818545E+02 -0.44270504623E+02  0.26402580366E+03  0.26993259746E+03  0.00000000000E+00 0. -1.
         22    1    3    3    0    0  0.14732830160E+02  0.79162512351E+02  0.37001148392E+02  0.88616277447E+02  0.00000000000E+00 0.  1.
         22    1    3    3    0    0 -0.13505590134E+01 -0.45915040682E+02 -0.22260083840E+01  0.45988803896E+02  0.00000000000E+00 0.  1.
</event>
<event>
 7    1  0.5950675E-006  0.1963726E+03  0.7818608E-02  0.1284039E+00
          2   -1    0    0  502    0  0.00000000000E+00  0.00000000000E+00  0.31953759703E+03  0.31953759703E+03  0.00000000000E+00 0. -1.
          1   -1    0    0  501    0 -0.00000000000E+00 -0.00000000000E+00 -0.17629766431E+04  0.17629766431E+04  0.00000000000E+00 0. -1.
         25    2    1    2    0    0  0.18965859012E+03  0.11666485890E+03 -0.10572670789E+04  0.10876668786E+04  0.12499797007E+03 0.  0.
          2    1    1    2  501    0 -0.60908494104E+01 -0.48768900053E+02 -0.65803070481E+03  0.65986355599E+03  0.00000000000E+00 0. -1.
          1    1    1    2  502    0 -0.18356774071E+03 -0.67895958845E+02  0.27185873772E+03  0.33498380548E+03  0.00000000000E+00 0. -1.
         22    1    3    3    0    0  0.65425333554E+02  0.10972038814E+03 -0.62097871576E+03  0.63398233672E+03  0.00000000000E+00 0. -1.
         22    1    3    3    0    0  0.12423325657E+03  0.69444707571E+01 -0.43628836319E+03  0.45368454191E+03  0.00000000000E+00 0. -1.
</event>
<event>
 7    1  0.5950675E-006  0.1417545E+03  0.7818608E-02  0.1383011E+00
          2   -1    0    0  502    0  0.00000000000E+00  0.00000000000E+00  0.98574691293E+03  0.98574691293E+03  0.00000000000E+00 0. -1.
          1   -1    0    0  501    0 -0.00000000000E+00 -0.00000000000E+00 -0.10606611322E+04  0.10606611322E+04  0.00000000000E+00 0. -1.
         25    2    1    2    0    0  0.22801661425E+02 -0.12418032221E+03  0.19758980741E+03  0.26572109675E+03  0.12500120430E+03 0.  0.
          2    1    1    2  501    0 -0.50001008224E+02  0.13303941282E+03 -0.10214020429E+04  0.10312428033E+04  0.00000000000E+00 0. -1.
          1    1    1    2  502    0  0.27199346799E+02 -0.88590906048E+01  0.74889801618E+03  0.74944414508E+03  0.00000000000E+00 0. -1.
         22    1    3    3    0    0 -0.27641158379E+02 -0.89716454133E+01  0.10659973891E+03  0.11048994702E+03  0.00000000000E+00 0.  1.
         22    1    3    3    0    0  0.50442819804E+02 -0.11520867680E+03  0.90990068505E+02  0.15523114973E+03  0.00000000000E+00 0.  1.
</event>
<event>
 7    1  0.5950675E-006  0.8915804E+02  0.7818608E-02  0.1314972E+00
          2   -1    0    0  502    0  0.00000000000E+00  0.00000000000E+00  0.21771511817E+04  0.21771511817E+04  0.00000000000E+00 0. -1.
          1   -1    0    0  501    0 -0.00000000000E+00 -0.00000000000E+00 -0.29332547997E+03  0.29332547997E+03  0.00000000000E+00 0. -1.
         25    2    1    2    0    0  0.37215413897E+01  0.13383914429E+03  0.10728017497E+03  0.21227236753E+03  0.12499502253E+03 0.  0.
          2    1    1    2  501    0  0.50679945554E+02 -0.63663019534E+02 -0.23294731866E+03  0.24675066405E+03  0.00000000000E+00 0. -1.
          1    1    1    2  502    0 -0.54401486943E+02 -0.70176124755E+02  0.20094928454E+04  0.20114536301E+04  0.00000000000E+00 0. -1.
         22    1    3    3    0    0  0.26696653885E+02  0.10100889550E+02  0.77999156751E+02  0.83057857859E+02  0.00000000000E+00 0. -1.
         22    1    3    3    0    0 -0.22975112495E+02  0.12373825474E+03  0.29281018221E+02  0.12921450967E+03  0.00000000000E+00 0. -1.
</event>
<event>
 7    1  0.5950675E-006  0.5459323E+02  0.7818608E-02  0.1469076E+00
          2   -1    0    0  502    0  0.00000000000E+00  0.00000000000E+00  0.12911518736E+04  0.12911518736E+04  0.00000000000E+00 0. -1.
          1   -1    0    0  501    0 -0.00000000000E+00 -0.00000000000E+00 -0.30012393353E+03  0.30012393353E+03  0.00000000000E+00 0. -1.
         25    2    1    2    0    0 -0.30607731499E+02 -0.75745060229E+02 -0.14128023094E+03  0.20556926008E+03  0.12499787862E+03 0.  0.
          2    1    1    2  501    0  0.11552739630E+01  0.50927148887E+02 -0.12127123284E+03  0.13153562660E+03  0.00000000000E+00 0. -1.
          1    1    1    2  502    0  0.29452457536E+02  0.24817911342E+02  0.12535794038E+04  0.12541709204E+04  0.00000000000E+00 0. -1.
         22    1    3    3    0    0  0.21407549951E+02 -0.15024138665E+02 -0.12002076035E+03  0.12283725352E+03  0.00000000000E+00 0.  1.
         22    1    3    3    0    0 -0.52015281450E+02 -0.60720921564E+02 -0.21259470592E+02  0.82732006562E+02  0.00000000000E+00 0.  1.
</event>
<event>
 7    1  0.5950675E-006  0.5132734E+02  0.7818608E-02  0.1438599E+00
          2   -1    0    0  502    0  0.00000000000E+00  0.00000000000E+00  0.26910094992E+03  0.26910094992E+03  0.00000000000E+00 0. -1.
          1   -1    0    0  501    0 -0.00000000000E+00 -0.00000000000E+00 -0.78825685902E+03  0.78825685902E+03  0.00000000000E+00 0. -1.
         25    2    1    2    0    0  0.13456385668E+02  0.19648922326E+02 -0.71588863159E+02  0.14599521044E+03  0.12498992631E+03 0.  0.
          2    1    1    2  501    0  0.33526804322E+02 -0.40314736513E+02 -0.67559633593E+03  0.67762802017E+03  0.00000000000E+00 0. -1.
          1    1    1    2  502    0 -0.46983189990E+02  0.20665814187E+02  0.22802928999E+03  0.23373457833E+03  0.00000000000E+00 0. -1.
         22    1    3    3    0    0 -0.27313428805E+02  0.22220542964E+02  0.23615565122E+02  0.42396589942E+02  0.00000000000E+00 0.  1.
         22    1    3    3    0    0  0.40769814473E+02 -0.25716206384E+01 -0.95204428280E+02  0.10359862050E+03  0.00000000000E+00 0.  1.
</event>
<event>
 7    1  0.5950675E-006  0.6703027E+02  0.7818608E-02  0.1447402E+00
          2   -1    0    0  502    0  0.00000000000E+00  0.00000000000E+00  0.45999184026E+03  0.45999184026E+03  0.00000000000E+00 0. -1.
          1   -1    0    0  501    0 -0.00000000000E+00 -0.00000000000E+00 -0.25046914283E+03  0.25046914283E+03  0.00000000000E+00 0. -1.
         25    2    1    2    0    0  0.32873534788E+02  0.82633291396E+01 -0.29537092580E+02  0.13283073400E+03  0.12499044827E+03 0.  0.
          2    1    1    2  501    0  0.26422874701E+02  0.25515691274E+02 -0.16439298096E+03  0.16844664140E+03  0.00000000000E+00 0. -1.
          1    1    1    2  502    0 -0.59296409488E+02 -0.33779020414E+02  0.40345277097E+03  0.40918360769E+03  0.00000000000E+00 0. -1.
         22    1    3    3    0    0  0.25330138727E+02  0.50443942672E+02  0.26443065858E+02  0.62333321845E+02  0.00000000000E+00 0. -1.
         22    1    3    3    0    0  0.75433960609E+01 -0.42180613533E+02 -0.55980158438E+02  0.70497412158E+02  0.00000000000E+00 0. -1.
</event>
<event>
 7    1  0.5950675E-006  0.1182632E+03  0.7818608E-02  0.1371892E+00
          2   -1    0    0  502    0  0.00000000000E+00  0.00000000000E+00  0.11905790275E+04  0.11905790275E+04  0.00000000000E+00 0. -1.
          1   -1    0    0  501    0 -0.00000000000E+00 -0.00000000000E+00 -0.34806378761E+03  0.34806378761E+03  0.00000000000E+00 0. -1.
         25    2    1    2    0    0  0.23060870857E+02  0.12658804987E+03  0.28175206194E+03  0.33401482551E+03  0.12500136447E+03 0.  0.
          2    1    1    2  501    0  0.13335003512E+02 -0.11732787287E+03 -0.31068626744E+03  0.33236968702E+03  0.00000000000E+00 0. -1.
          1    1    1    2  502    0 -0.36395874368E+02 -0.92601770019E+01  0.87144944536E+03  0.87225830255E+03  0.00000000000E+00 0. -1.
         22    1    3    3    0    0  0.61004194947E+02  0.10800820296E+03  0.14466654888E+03  0.19056677064E+03  0.00000000000E+00 0.  1.
         22    1    3    3    0    0 -0.37943324091E+02  0.18579846910E+02  0.13708551307E+03  0.14344805487E+03  0.00000000000E+00 0.  1.
</event>
<event>
 7    1  0.5950675E-006  0.1387437E+03  0.7818608E-02  0.1285259E+00
          2   -1    0    0  502    0  0.00000000000E+00  0.00000000000E+00  0.11136399249E+04  0.11136399249E+04  0.00000000000E+00 0. -1.
          1   -1    0    0  501    0 -0.00000000000E+00 -0.00000000000E+00 -0.14300374942E+04  0.14300374942E+04  0.00000000000E+00 0. -1.
         25    2    1    2    0    0 -0.22707502494E+02  0.85830513129E+02  0.13207071238E+03  0.20236130808E+03  0.12499967314E+03 0.  0.
          2    1    1    2  501    0 -0.21810540655E+02 -0.13823990488E+03 -0.13901250118E+04  0.13971519314E+04  0.00000000000E+00 0. -1.
          1    1    1    2  502    0  0.44518043149E+02  0.52409391750E+02  0.94165673014E+03  0.94416417954E+03  0.00000000000E+00 0. -1.
         22    1    3    3    0    0  0.27782764808E+02  0.85769125374E+02  0.42797070057E+02  0.99798868197E+02  0.00000000000E+00 0.  1.
         22    1    3    3    0    0 -0.50490267302E+02  0.61387755072E-01  0.89273642321E+02  0.10256243988E+03  0.00000000000E+00 0.  1.
</event>
<event>
 7    1  0.5950675E-006  0.9843300E+02  0.7818608E-02  0.1466918E+00
          2   -1    0    0  502    0  0.00000000000E+00  0.00000000000E+00  0.11088721632E+04  0.11088721632E+04  0.00000000000E+00 0. -1.
          1   -1    0    0  501    0 -0.00000000000E+00 -0.00000000000E+00 -0.27055802099E+04  0.27055802099E+04  0.00000000000E+00 0. -1.
         25    2    1    2    0    0  0.97168272211E+02 -0.27559349079E+01 -0.66583854736E+03  0.68440873436E+03  0.12500030482E+03 0.  0.
          2    1    1    2  501    0 -0.95803978793E+02  0.24407781239E+02 -0.20291459377E+04  0.20315529475E+04  0.00000000000E+00 0. -1.
          1    1    1    2  502    0 -0.13642934180E+01 -0.21651846331E+02  0.10982764383E+04  0.10984906912E+04  0.00000000000E+00 0. -1.
         22    1    3    3    0    0 -0.26611179446E+02  0.18798487605E+02 -0.14843659791E+03  0.15197026554E+03  0.00000000000E+00 0.  1.
         22    1    3    3    0    0  0.12377945166E+03 -0.21554422513E+02 -0.51740194945E+03  0.53243846882E+03  0.00000000000E+00 0.  1.
</event>
<event>
 7    1  0.5950675E-006  0.6287070E+02  0.7818608E-02  0.1477721E+00
          2   -1    0    0  502    0  0.00000000000E+00  0.00000000000E+00  0.13734412638E+03  0.13734412638E+03  0.00000000000E+00 0. -1.
          1   -1    0    0  501    0 -0.00000000000E+00 -0.00000000000E+00 -0.91340361533E+03  0.91340361533E+03  0.00000000000E+00 0. -1.
         25    2    1    2    0    0 -0.23161505911E+02 -0.45328544736E+02 -0.33947555695E+03  0.36532032224E+03  0.12499660696E+03 0.  0.
          2    1    1    2  501    0 -0.10194506713E+01  0.65430147564E+02 -0.55707270686E+03  0.56090297220E+03  0.00000000000E+00 0. -1.
          1    1    1    2  502    0  0.24180956582E+02 -0.20101602828E+02  0.12048877486E+03  0.12452444726E+03  0.00000000000E+00 0. -1.
         22    1    3    3    0    0  0.26911014643E+02  0.38756955680E+01 -0.25056461944E+03  0.25203541863E+03  0.00000000000E+00 0.  1.
         22    1    3    3    0    0 -0.50072520554E+02 -0.49204240304E+02 -0.88910937512E+02  0.11328490362E+03  0.00000000000E+00 0.  1.
</event>
<event>
 7    1  0.5950675E-006  0.1751548E+03  0.7818608E-02  0.1305965E+00
          2   -1    0    0  502    0  0.00000000000E+00  0.00000000000E+00  0.17423931273E+03  0.17423931273E+03  0.00000000000E+00 0. -1.
          1   -1    0    0  501    0 -0.00000000000E+00 -0.00000000000E+00 -0.56099896032E+03  0.56099896032E+03  0.00000000000E+00 0. -1.
         25    2    1    2    0    0  0.64248916037E+02  0.14847087210E+03 -0.30379093453E+03  0.36617231796E+03  0.12498684516E+03 0.  0.
          2    1    1    2  501    0 -0.46129763535E+02 -0.18960203406E+03 -0.17788543677E+03  0.26404566843E+03  0.00000000000E+00 0. -1.
          1    1    1    2  502    0 -0.18119152501E+02  0.41131161955E+02  0.94916723706E+02  0.10502028666E+03  0.00000000000E+00 0. -1.
         22    1    3    3    0    0 -0.17771197705E+02  0.77675239683E+02 -0.20345303847E+03  0.21850033682E+03  0.00000000000E+00 0. -1.
         22    1    3    3    0    0  0.82020113742E+02  0.70795632418E+02 -0.10033789605E+03  0.14767198113E+03  0.00000000000E+00 0. -1.
</event>
<event>
 7    1  0.5950675E-006  0.5536130E+02  0.7818608E-02  0.1431185E+00
          2   -1    0    0  502    0  0.00000000000E+00  0.00000000000E+00  0.26533476048E+04  0.26533476048E+04  0.00000000000E+00 0. -1.
          1   -1    0    0  501    0 -0.00000000000E+00 -0.00000000000E+00 -0.21556816915E+02  0.21556816915E+02  0.00000000000E+00 0. -1.
         25    2    1    2    0    0 -0.77476869488E+02  0.20480115069E+02  0.62328347163E+03  0.64072531898E+03  0.12499819182E+03 0.  0.
          2    1    1    2  501    0  0.50015879614E+02  0.21555265051E+02  0.46740145935E+02  0.71769484512E+02  0.00000000000E+00 0. -1.
          1    1    1    2  502    0  0.27460989873E+02 -0.42035380120E+02  0.19617671703E+04  0.19624096182E+04  0.00000000000E+00 0. -1.
         22    1    3    3    0    0 -0.68255006764E+02  0.59439815615E+02  0.26123304773E+03  0.27646797799E+03  0.00000000000E+00 0.  1.
         22    1    3    3    0    0 -0.92218627243E+01 -0.38959700547E+02  0.36205042390E+03  0.36425734099E+03  0.00000000000E+00 0.  1.
</event>
<event>
 7    1  0.5950675E-006  0.1664024E+03  0.7818608E-02  0.1248387E+00
          2   -1    0    0  502    0  0.00000000000E+00  0.00000000000E+00  0.23256176132E+04  0.23256176132E+04  0.00000000000E+00 0. -1.
          1   -1    0    0  501    0 -0.00000000000E+00 -0.00000000000E+00 -0.87690251860E+02  0.87690251860E+02  0.00000000000E+00 0. -1.
         25    2    1    2    0    0  0.21034521422E+03 -0.66319867854E+01  0.11089870001E+04  0.11356789547E+04  0.12500171721E+03 0.  0.
          2    1    1    2  501    0 -0.15476241489E+03 -0.53726449052E+02  0.19296395744E+02  0.16495540997E+03  0.00000000000E+00 0. -1.
          1    1    1    2  502    0 -0.55582799326E+02  0.60358435837E+02  0.11096439655E+04  0.11126735004E+04  0.00000000000E+00 0. -1.
         22    1    3    3    0    0  0.14928399525E+03  0.28873408043E+02  0.94460067590E+03  0.95676006493E+03  0.00000000000E+00 0. -1.
         22    1    3    3    0    0  0.61061218971E+02 -0.35505394829E+02  0.16438632420E+03  0.17891888975E+03  0.00000000000E+00 0. -1.
</event>
<event>
 7    1  0.5950675E-006  0.2177427E+03  0.7818608E-02  0.1308912E+00
          2   -1    0    0  502    0  0.00000000000E+00  0.00000000000E+00  0.35646035067E+04  0.35646035067E+04  0.00000000000E+00 0. -1.
          1   -1    0    0  501    0 -0.00000000000E+00 -0.00000000000E+00 -0.16113083886E+03  0.16113083886E+03  0.00000000000E+00 0. -1.
         25    2    1    2    0    0 -0.17895528933E+03 -0.13769280173E+03  0.69119608658E+03  0.73780908058E+03  0.12500362420E+03 0.  0.
          2    1    1    2  501    0  0.29481399313E+02 -0.19226476392E+02 -0.13138492652E+03  0.13601767979E+03  0.00000000000E+00 0. -1.
          1    1    1    2  502    0  0.14947389001E+03  0.15691927812E+03  0.28436615078E+04  0.28519075852E+04  0.00000000000E+00 0. -1.
         22    1    3    3    0    0 -0.17286519376E+03 -0.15456196063E+03  0.67471802925E+03  0.71345370830E+03  0.00000000000E+00 0.  1.
         22    1    3    3    0    0 -0.60900955618E+01  0.16869158898E+02  0.16478057331E+02  0.24355372288E+02  0.00000000000E+00 0.  1.
</event>
<event>
 7    1  0.5950675E-006  0.3481257E+02  0.7818608E-02  0.1594079E+00
          2   -1    0    0  502    0  0.00000000000E+00  0.00000000000E+00  0.98148575278E+03  0.98148575278E+03  0.00000000000E+00 0. -1.
          1   -1    0    0  501    0 -0.00000000000E+00 -0.00000000000E+00 -0.15654332863E+04  0.15654332863E+04  0.00000000000E+00 0. -1.
         25    2    1    2    0    0 -0.84470672259E+01 -0.11110568450E+01 -0.57768529240E+02  0.13796682195E+03  0.12500021439E+03 0.  0.
          2    1    1    2  501    0 -0.26451709137E+02  0.13717009744E+01 -0.14671225730E+04  0.14673616523E+04  0.00000000000E+00 0. -1.
          1    1    1    2  502    0  0.34898776363E+02 -0.26064412949E+00  0.94094356864E+03  0.94159056489E+03  0.00000000000E+00 0. -1.
         22    1    3    3    0    0 -0.39338287951E+01  0.61748802301E+02 -0.23150297088E+02  0.66063044509E+02  0.00000000000E+00 0. -1.
         22    1    3    3    0    0 -0.45132384308E+01 -0.62859859146E+02 -0.34618232152E+02  0.71903777441E+02  0.00000000000E+00 0. -1.
</event>
<event>
 7    1  0.5950675E-006  0.4929504E+02  0.7818608E-02  0.1515889E+00
          2   -1    0    0  502    0  0.00000000000E+00  0.00000000000E+00  0.42070171188E+03  0.42070171188E+03  0.00000000000E+00 0. -1.
          1   -1    0    0  501    0 -0.00000000000E+00 -0.00000000000E+00 -0.43127956015E+03  0.43127956015E+03  0.00000000000E+00 0. -1.
         25    2    1    2    0    0  0.22653555004E+02  0.92894310800E+01 -0.10890483807E+03  0.16758422614E+03  0.12499892804E+03 0.  0.
          2    1    1    2  501    0  0.26552568741E+02 -0.15639607152E+02 -0.29064475919E+03  0.29227386517E+03  0.00000000000E+00 0. -1.
          1    1    1    2  502    0 -0.49206123745E+02  0.63501760716E+01  0.38897174898E+03  0.39212318072E+03  0.00000000000E+00 0. -1.
         22    1    3    3    0    0 -0.27025393695E+02 -0.30191236171E+02  0.11603127842E+01  0.40536760745E+02  0.00000000000E+00 0.  1.
         22    1    3    3    0    0  0.49678948699E+02  0.39480667251E+02 -0.11006515085E+03  0.12704746539E+03  0.00000000000E+00 0.  1.
</event>
<event>
 7    1  0.5950675E-006  0.1906540E+03  0.7818608E-02  0.1248089E+00
          2   -1    0    0  502    0  0.00000000000E+00  0.00000000000E+00  0.46796782847E+03  0.46796782847E+03  0.00000000000E+00 0. -1.
          1   -1    0    0  501    0 -0.00000000000E+00 -0.00000000000E+00 -0.33496999369E+04  0.33496999369E+04  0.00000000000E+00 0. -1.
         25    2    1    2    0    0 -0.63937431851E+02 -0.24541507508E+03 -0.63774860235E+03  0.69761397392E+03  0.12500169014E+03 0.  0.
          2    1    1    2  501    0 -0.89991534756E+01  0.71263534167E+02 -0.26611658147E+04  0.26621350396E+04  0.00000000000E+00 0. -1.
          1    1    1    2  502    0  0.72936585326E+02  0.17415154092E+03  0.41718230858E+03  0.45791875183E+03  0.00000000000E+00 0. -1.
         22    1    3    3    0    0 -0.72559910585E+02 -0.62322468552E+02 -0.16720980472E+03  0.19263475674E+03  0.00000000000E+00 0. -1.
         22    1    3    3    0    0  0.86224787347E+01 -0.18309260653E+03 -0.47053879763E+03  0.50497921717E+03  0.00000000000E+00 0. -1.
</event>
<event>
 7    1  0.5950675E-006  0.4530503E+02  0.7818608E-02  0.1520308E+00
          2   -1    0    0  502    0  0.00000000000E+00  0.00000000000E+00  0.10268729868E+04  0.10268729868E+04  0.00000000000E+00 0. -1.
          1   -1    0    0  501    0 -0.00000000000E+00 -0.00000000000E+00 -0.67496213759E+03  0.67496213759E+03  0.00000000000E+00 0. -1.
         25    2    1    2    0    0 -0.52101126780E+02  0.10851829717E+02 -0.15108353409E+02  0.13669427419E+03  0.12499909053E+03 0.  0.
          2    1    1    2  501    0  0.11272906798E+02 -0.30537142593E+02 -0.59808634964E+03  0.59897151613E+03  0.00000000000E+00 0. -1.
          1    1    1    2  502    0  0.40828219982E+02  0.19685312876E+02  0.96510555222E+03  0.96616933403E+03  0.00000000000E+00 0. -1.
         22    1    3    3    0    0 -0.85410108881E+02  0.11828881629E+02 -0.40047995162E+02  0.95071820516E+02  0.00000000000E+00 0.  1.
         22    1    3    3    0    0  0.33308982101E+02 -0.97705191138E+00  0.24939641752E+02  0.41622453673E+02  0.00000000000E+00 0.  1.
</event>
<event>
 7    1  0.1136887E-005  0.7541531E+02  0.7818608E-02  0.1396783E+00
          2   -1    0    0  502    0  0.00000000000E+00  0.00000000000E+00  0.11483264907E+04  0.11483264907E+04  0.00000000000E+00 0. -1.
          1   -1    0    0  501    0 -0.00000000000E+00 -0.00000000000E+00 -0.89478485127E+03  0.89478485127E+03  0.00000000000E+00 0. -1.
         25    2    1    2    0    0  0.81713197878E+02 -0.42552097720E+02 -0.34648687474E+03  0.37969275345E+03  0.12500281971E+03 0.  0.
          2    1    1    2  501    0 -0.42796455085E+02 -0.22033155964E+02 -0.52934580577E+03  0.53152984735E+03  0.00000000000E+00 0. -1.
          1    1    1    2  502    0 -0.38916742793E+02  0.64585253683E+02  0.11293743199E+04  0.11318887412E+04  0.00000000000E+00 0. -1.
         22    1    3    3    0    0  0.10522162178E+03  0.16274657326E+01 -0.23325059985E+03  0.25589075924E+03  0.00000000000E+00 0. -1.
         22    1    3    3    0    0 -0.23508423903E+02 -0.44179563452E+02 -0.11323627489E+03  0.12380199421E+03  0.00000000000E+00 0. -1.
</event>
<event>
 7    1  0.5950675E-006  0.1053612E+03  0.7818608E-02  0.1405474E+00
          2   -1    0    0  502    0  0.00000000000E+00  0.00000000000E+00  0.32228371646E+03  0.32228371646E+03  0.00000000000E+00 0. -1.
          1   -1    0    0  501    0 -0.00000000000E+00 -0.00000000000E+00 -0.46736029908E+03  0.46736029908E+03  0.00000000000E+00 0. -1.
         25    2    1    2    0    0 -0.10744186332E+03 -0.26926249401E+02  0.16901194123E+03  0.23761043382E+03  0.12499962032E+03 0.  0.
          2    1    1    2  501    0  0.90340222122E+02  0.54170156748E+02 -0.42432279303E+03  0.43720200628E+03  0.00000000000E+00 0. -1.
          1    1    1    2  502    0  0.17101641197E+02 -0.27243907347E+02  0.11023426917E+03  0.11483157545E+03  0.00000000000E+00 0. -1.
         22    1    3    3    0    0 -0.97755163198E+02 -0.70428173299E+02  0.13864523977E+03  0.18368097898E+03  0.00000000000E+00 0. -1.
         22    1    3    3    0    0 -0.96867001218E+01  0.43501923898E+02  0.30366701458E+02  0.53929454842E+02  0.00000000000E+00 0. -1.
</event>
<event>
 7    1  0.5950675E-006  0.1032220E+03  0.7818608E-02  0.1388909E+00
          2   -1    0    0  502    0  0.00000000000E+00  0.00000000000E+00  0.46431554841E+03  0.46431554841E+03  0.00000000000E+00 0. -1.
          1   -1    0    0  501    0 -0.00000000000E+00 -0.00000000000E+00 -0.10694539433E+04  0.10694539433E+04  0.00000000000E+00 0. -1.
         25    2    1    2    0    0 -0.86850084291E+02 -0.10635359664E+03 -0.89103537004E+03  0.91017734226E+03  0.12499895616E+03 0.  0.
          2    1    1    2  501    0  0.12147803932E+02  0.35430678755E+02 -0.16083477128E+03  0.16513850487E+03  0.00000000000E+00 0. -1.
          1    1    1    2  502    0  0.74702280359E+02  0.70922917886E+02  0.44673174643E+03  0.45845364459E+03  0.00000000000E+00 0. -1.
         22    1    3    3    0    0 -0.60029493313E+02 -0.94745646487E+02 -0.86098279689E+03  0.86825782699E+03  0.00000000000E+00 0.  1.
         22    1    3    3    0    0 -0.26820590979E+02 -0.11607950153E+02 -0.30052573153E+02  0.41919515268E+02  0.00000000000E+00 0.  1.
</event>
<event>
 7    1  0.5950675E-006  0.2603242E+03  0.7818608E-02  0.1201815E+00
          2   -1    0    0  502    0  0.00000000000E+00  0.00000000000E+00  0.55666247943E+03  0.55666247943E+03  0.00000000000E+00 0. -1.
          1   -1    0    0  501    0 -0.00000000000E+00 -0.00000000000E+00 -0.29035276293E+03  0.29035276293E+03  0.00000000000E+00 0. -1.
         25    2    1    2    0    0  0.23039799749E+03 -0.83363627683E+02  0.24444071653E+02  0.27614815144E+03  0.12501022852E+03 0.  0.
          2    1    1    2  501    0 -0.18603683351E+02 -0.83126342506E+02 -0.10273713752E+03  0.13345787830E+03  0.00000000000E+00 0. -1.
          1    1    1    2  502    0 -0.21179431414E+03  0.16648997019E+03  0.34460278237E+03  0.43740921263E+03  0.00000000000E+00 0. -1.
         22    1    3    3    0    0  0.49499020773E+02 -0.58169050533E+02 -0.35077812064E+02  0.84049059463E+02  0.00000000000E+00 0. -1.
         22    1    3    3    0    0  0.18089897672E+03 -0.25194577150E+02  0.59521883717E+02  0.19209909197E+03  0.00000000000E+00 0. -1.
</event>
<event>
 7    1  0.5950675E-006  0.1486257E+03  0.7818608E-02  0.1348873E+00
          2   -1    0    0  502    0  0.00000000000E+00  0.00000000000E+00  0.33887035466E+03  0.33887035466E+03  0.00000000000E+00 0. -1.
          1   -1    0    0  501    0 -0.00000000000E+00 -0.00000000000E+00 -0.76992592143E+03  0.76992592143E+03  0.00000000000E+00 0. -1.
         25    2    1    2    0    0 -0.16701518128E+03  0.60961395277E+02  0.25898872419E+02  0.21887628757E+03  0.12500286066E+03 0.  0.
          2    1    1    2  501    0  0.33282278857E+02 -0.14382889624E+02 -0.64971864450E+03  0.65072950956E+03  0.00000000000E+00 0. -1.
          1    1    1    2  502    0  0.13373290242E+03 -0.46578505653E+02  0.19276420531E+03  0.23919047896E+03  0.00000000000E+00 0. -1.
         22    1    3    3    0    0 -0.81074434627E+02  0.67425127321E+02 -0.37465908108E+02  0.11190579080E+03  0.00000000000E+00 0.  1.
         22    1    3    3    0    0 -0.85940746651E+02 -0.64637320437E+01  0.63364780527E+02  0.10697049676E+03  0.00000000000E+00 0.  1.
</event>
<event>
 7    1  0.5950675E-006  0.4536230E+02  0.7818608E-02  0.1552465E+00
          2   -1    0    0  502    0  0.00000000000E+00  0.00000000000E+00  0.19602881631E+04  0.19602881631E+04  0.00000000000E+00 0. -1.
          1   -1    0    0  501    0 -0.00000000000E+00 -0.00000000000E+00 -0.29652034529E+03  0.29652034529E+03  0.00000000000E+00 0. -1.
         25    2    1    2    0    0  0.53189665201E+02  0.44309242950E+02  0.30976086140E+02  0.14620853751E+03  0.12499987613E+03 0.  0.
          2    1    1    2  501    0 -0.38977365433E+02 -0.22128661994E+02 -0.23670828963E+03  0.24091435632E+03  0.00000000000E+00 0. -1.
          1    1    1    2  502    0 -0.14212299768E+02 -0.22180580956E+02  0.18695000213E+04  0.18696856146E+04  0.00000000000E+00 0. -1.
         22    1    3    3    0    0  0.23335362937E+01  0.78843876414E+02  0.30955288311E+02  0.84735070154E+02  0.00000000000E+00 0.  1.
         22    1    3    3    0    0  0.50856128907E+02 -0.34534633464E+02  0.20797829216E-01  0.61473467354E+02  0.00000000000E+00 0.  1.
</event>
<event>
 7    1  0.5950675E-006  0.1301916E+03  0.7818608E-02  0.1307765E+00
          2   -1    0    0  502    0  0.00000000000E+00  0.00000000000E+00  0.38135740826E+03  0.38135740826E+03  0.00000000000E+00 0. -1.
          1   -1    0    0  501    0 -0.00000000000E+00 -0.00000000000E+00 -0.10652219917E+04  0.10652219917E+04  0.00000000000E+00 0. -1.
         25    2    1    2    0    0  0.87876519737E+02  0.38342954720E+02 -0.26834995692E+03  0.31117382672E+03  0.12499994464E+03 0.  0.
          2    1    1    2  501    0 -0.14136035810E+03 -0.12309522537E+02 -0.76644523087E+03  0.77946941384E+03  0.00000000000E+00 0. -1.
          1    1    1    2  502    0  0.53483838367E+02 -0.26033432182E+02  0.35093060431E+03  0.35593615944E+03  0.00000000000E+00 0. -1.
         22    1    3    3    0    0 -0.18847340986E+02 -0.59463726623E+01 -0.12735735596E+03  0.12888164232E+03  0.00000000000E+00 0.  1.
         22    1    3    3    0    0  0.10672386072E+03  0.44289327382E+02 -0.14099260096E+03  0.18229218440E+03  0.00000000000E+00 0.  1.
</event>
<event>
 7    1  0.5950675E-006  0.1524474E+03  0.7818608E-02  0.1322994E+00
          2   -1    0    0  502    0  0.00000000000E+00  0.00000000000E+00  0.35264334014E+03  0.35264334014E+03  0.00000000000E+00 0. -1.
          1   -1    0    0  501    0 -0.00000000000E+00 -0.00000000000E+00 -0.45753412718E+04  0.45753412718E+04  0.00000000000E+00 0. -1.
         25    2    1    2    0    0 -0.63340146345E+02  0.10235060214E+03 -0.11478110716E+04  0.11608544938E+04  0.12500111918E+03 0.  0.
          2    1    1    2  501    0  0.99521571078E+02 -0.12790136768E+03 -0.34176634317E+04  0.34215035636E+04  0.00000000000E+00 0. -1.
          1    1    1    2  502    0 -0.36181424733E+02  0.25550765541E+02  0.34277657168E+03  0.34562655455E+03  0.00000000000E+00 0. -1.
         22    1    3    3    0    0 -0.66526322928E+02 -0.14830337539E+01 -0.34587106416E+03  0.35221405999E+03  0.00000000000E+00 0. -1.
         22    1    3    3    0    0  0.31861765832E+01  0.10383363589E+03 -0.80194000741E+03  0.80864043378E+03  0.00000000000E+00 0. -1.
</event>
<event>
 7    1  0.5950675E-006  0.4297425E+02  0.7818608E-02  0.1523911E+00
          2   -1    0    0  502    0  0.00000000000E+00  0.00000000000E+00  0.28142466260E+04  0.28142466260E+04  0.00000000000E+00 0. -1.
          1   -1    0    0  501    0 -0.00000000000E+00 -0.00000000000E+00 -0.10426397514E+04  0.10426397514E+04  0.00000000000E+00 0. -1.
         25    2    1    2    0    0  0.21152378578E+02  0.60862199159E+02  0.70474172155E+02  0.15729924343E+03  0.12499925055E+03 0.  0.
          2    1    1    2  501    0 -0.27942675718E+02 -0.18482785002E+02 -0.99877578725E+03  0.99933752039E+03  0.00000000000E+00 0. -1.
          1    1    1    2  502    0  0.67902971404E+01 -0.42379414157E+02  0.26999084897E+04  0.27002496136E+04  0.00000000000E+00 0. -1.
         22    1    3    3    0    0  0.34686293720E+02  0.82905868035E+02  0.86534505246E+01  0.90285126863E+02  0.00000000000E+00 0. -1.
         22    1    3    3    0    0 -0.13533915143E+02 -0.22043668876E+02  0.61820721631E+02  0.67014116569E+02  0.00000000000E+00 0. -1.
</event>
<event>
 7    1  0.5950675E-006  0.9105565E+02  0.7818608E-02  0.1447008E+00
          2   -1    0    0  502    0  0.00000000000E+00  0.00000000000E+00  0.79441272712E+03  0.79441272712E+03  0.00000000000E+00 0. -1.
          1   -1    0    0  501    0 -0.00000000000E+00 -0.00000000000E+00 -0.18928009945E+03  0.18928009945E+03  0.00000000000E+00 0. -1.
         25    2    1    2    0    0  0.61657210351E+02 -0.50222972996E+02 -0.19712175088E+02  0.14944913048E+03  0.12499005620E+03 0.  0.
          2    1    1    2  501    0 -0.86802811302E+02  0.40067241142E+02 -0.82560699626E+02  0.12631856944E+03  0.00000000000E+00 0. -1.
          1    1    1    2  502    0  0.25145600951E+02  0.10155731854E+02  0.70740550239E+03  0.70792512665E+03  0.00000000000E+00 0. -1.
         22    1    3    3    0    0  0.91097295119E+02 -0.20363226830E+01 -0.18435967712E+02  0.92966384751E+02  0.00000000000E+00 0. -1.
         22    1    3    3    0    0 -0.29440084768E+02 -0.48186650313E+02 -0.12762073757E+01  0.56482745726E+02  0.00000000000E+00 0. -1.
</event>
<event>
 7    1  0.5950675E-006  0.6779766E+02  0.7818608E-02  0.1384581E+00
          2   -1    0    0  502    0  0.00000000000E+00  0.00000000000E+00  0.19426228869E+04  0.19426228869E+04  0.00000000000E+00 0. -1.
          1   -1    0    0  501    0 -0.00000000000E+00 -0.00000000000E+00 -0.10831624928E+03  0.10831624928E+03  0.00000000000E+00 0. -1.
         25    2    1    2    0    0  0.10950929459E+03  0.27169093750E+02  0.10537581872E+04  0.10671283016E+04  0.12500419935E+03 0.  0.
          2    1    1    2  501    0 -0.48471748169E+02 -0.33732124732E+02 -0.91882091892E+02  0.10922309930E+03  0.00000000000E+00 0. -1.
          1    1    1    2  502    0 -0.61037546424E+02  0.65630309824E+01  0.87243054231E+03  0.87458773523E+03  0.00000000000E+00 0. -1.
         22    1    3    3    0    0  0.10588991946E+03  0.45878934463E+02  0.50412835940E+03  0.51716820709E+03  0.00000000000E+00 0.  1.
         22    1    3    3    0    0  0.36193751356E+01 -0.18709840714E+02  0.54962982776E+03  0.54996009454E+03  0.00000000000E+00 0.  1.
</event>
<event>
 7    1  0.5950675E-006  0.6040602E+02  0.7818608E-02  0.1538055E+00
          2   -1    0    0  502    0  0.00000000000E+00  0.00000000000E+00  0.31430365880E+03  0.31430365880E+03  0.00000000000E+00 0. -1.
          1   -1    0    0  501    0 -0.00000000000E+00 -0.00000000000E+00 -0.94187449629E+03  0.94187449629E+03  0.00000000000E+00 0. -1.
         25    2    1    2    0    0 -0.46937644706E+02 -0.10398544963E+02 -0.22009114777E+03  0.25763792964E+03  0.12500366889E+03 0.  0.
          2    1    1    2  501    0 -0.47840983734E+01 -0.21180110515E+02 -0.69973319815E+03  0.70007002026E+03  0.00000000000E+00 0. -1.
          1    1    1    2  502    0  0.51721743079E+02  0.31578655478E+02  0.29225350844E+03  0.29847020518E+03  0.00000000000E+00 0. -1.
         22    1    3    3    0    0  0.21727597471E+02 -0.48184734142E+02 -0.11475244709E+03  0.12634073456E+03  0.00000000000E+00 0.  1.
         22    1    3    3    0    0 -0.68665242177E+02  0.37786189179E+02 -0.10533870068E+03  0.13129719508E+03  0.00000000000E+00 0.  1.
</event>
<event>
 7    1  0.5950675E-006  0.5462881E+02  0.7818608E-02  0.1437147E+00
          2   -1    0    0  502    0  0.00000000000E+00  0.00000000000E+00  0.65991338869E+02  0.65991338869E+02  0.00000000000E+00 0. -1.
          1   -1    0    0  501    0 -0.00000000000E+00 -0.00000000000E+00 -0.10059360410E+04  0.10059360410E+04  0.00000000000E+00 0. -1.
         25    2    1    2    0    0  0.21229110775E+02  0.98548731483E+02 -0.17543388240E+03  0.23785447519E+03  0.12504069999E+03 0.  0.
          2    1    1    2  501    0 -0.18571837956E+02 -0.49973283927E+02 -0.78091562320E+03  0.78273332165E+03  0.00000000000E+00 0. -1.
          1    1    1    2  502    0 -0.26572728187E+01 -0.48575447556E+02  0.16404803497E+02  0.51339582992E+02  0.00000000000E+00 0. -1.
         22    1    3    3    0    0  0.31994958815E+02  0.38238598687E+02 -0.16906180075E+03  0.17626048988E+03  0.00000000000E+00 0.  1.
         22    1    3    3    0    0 -0.10765848041E+02  0.60310132795E+02 -0.63720816430E+01  0.61593985309E+02  0.00000000000E+00 0.  1.
</event>
<event>
 7    1  0.5950675E-006  0.6116056E+02  0.7818608E-02  0.1479102E+00
          2   -1    0    0  502    0  0.00000000000E+00  0.00000000000E+00  0.12133962413E+04  0.12133962413E+04  0.00000000000E+00 0. -1.
          1   -1    0    0  501    0 -0.00000000000E+00 -0.00000000000E+00 -0.46465818213E+02  0.46465818213E+02  0.00000000000E+00 0. -1.
         25    2    1    2    0    0  0.15065593361E+00 -0.41716636471E+02  0.40640705304E+03  0.42723687247E+03  0.12499740788E+03 0.  0.
          2    1    1    2  501    0  0.27753190320E+02 -0.15949528204E+02 -0.27379624130E+02  0.42122094444E+02  0.00000000000E+00 0. -1.
          1    1    1    2  502    0 -0.27903846254E+02  0.57666164675E+02  0.78790299416E+03  0.79050309259E+03  0.00000000000E+00 0. -1.
         22    1    3    3    0    0  0.32579576668E+02 -0.71301439195E+02  0.17575876729E+03  0.19244861217E+03  0.00000000000E+00 0. -1.
         22    1    3    3    0    0 -0.32428920734E+02  0.29584802724E+02  0.23064828575E+03  0.23478826029E+03  0.00000000000E+00 0. -1.
</event>
<event>
 7    1  0.5950675E-006  0.6784838E+02  0.7818608E-02  0.1392917E+00
          2   -1    0    0  502    0  0.00000000000E+00  0.00000000000E+00  0.15851480796E+03  0.15851480796E+03  0.00000000000E+00 0. -1.
          1   -1    0    0  501    0 -0.00000000000E+00 -0.00000000000E+00 -0.51940106528E+03  0.51940106528E+03  0.00000000000E+00 0. -1.
         25    2    1    2    0    0 -0.10806956769E+03  0.30663592030E+02 -0.12571358456E+03  0.20987781795E+03  0.12500202314E+03 0.  0.
          2    1    1    2  501    0  0.42538077210E+02 -0.35146635347E+02 -0.33993636790E+03  0.34438569687E+03  0.00000000000E+00 0. -1.
          1    1    1    2  502    0  0.65531490476E+02  0.44830433173E+01  0.10476369514E+03  0.12365235841E+03  0.00000000000E+00 0. -1.
         22    1    3    3    0    0 -0.87993223418E+02 -0.30822852446E+02 -0.10827790230E+03  0.14288792715E+03  0.00000000000E+00 0. -1.
         22    1    3    3    0    0 -0.20076344268E+02  0.61486444475E+02 -0.17435682266E+02  0.66989890800E+02  0.00000000000E+00 0. -1.
</event>
<event>
 7    1  0.6611747E-006  0.1658858E+03  0.7818608E-02  0.1314987E+00
          2   -1    0    0  502    0  0.00000000000E+00  0.00000000000E+00  0.22716652383E+04  0.22716652383E+04  0.00000000000E+00 0. -1.
          1   -1    0    0  501    0 -0.00000000000E+00 -0.00000000000E+00 -0.86291839693E+03  0.86291839693E+03  0.00000000000E+00 0. -1.
         25    2    1    2    0    0  0.92672191646E+02  0.16849083382E+03 -0.44337864986E+03  0.49918770917E+03  0.12500578247E+03 0.  0.
          2    1    1    2  501    0  0.13815293298E+02 -0.41489338633E+02 -0.38734265544E+03  0.38980323277E+03  0.00000000000E+00 0. -1.
          1    1    1    2  502    0 -0.10648748494E+03 -0.12700149519E+03  0.22394681467E+04  0.22455926933E+04  0.00000000000E+00 0. -1.
         22    1    3    3    0    0  0.77426529557E+02  0.10742887460E+03 -0.15428038781E+03  0.20331814636E+03  0.00000000000E+00 0. -1.
         22    1    3    3    0    0  0.15245662089E+02  0.61061959219E+02 -0.28909826205E+03  0.29586956281E+03  0.00000000000E+00 0. -1.
</event>
<event>
 7    1  0.5950675E-006  0.3452027E+03  0.7818608E-02  0.1199255E+00
          2   -1    0    0  502    0  0.00000000000E+00  0.00000000000E+00  0.40475066246E+03  0.40475066246E+03  0.00000000000E+00 0. -1.
          1   -1    0    0  501    0 -0.00000000000E+00 -0.00000000000E+00 -0.82830423930E+03  0.82830423930E+03  0.00000000000E+00 0. -1.
         25    2    1    2    0    0  0.35357498681E+03  0.62330291684E+02  0.78437534009E+02  0.38817349104E+03  0.12500350335E+03 0.  0.
          2    1    1    2  501    0 -0.32179937570E+03 -0.12023113571E+03 -0.62047949113E+03  0.70922856901E+03  0.00000000000E+00 0. -1.
          1    1    1    2  502    0 -0.31775611112E+02  0.57900844030E+02  0.11848838028E+03  0.13565284170E+03  0.00000000000E+00 0. -1.
         22    1    3    3    0    0  0.18636466386E+03  0.93620601665E+02  0.60275628991E+02  0.21709388855E+03  0.00000000000E+00 0.  1.
         22    1    3    3    0    0  0.16721032294E+03 -0.31290309981E+02  0.18161905018E+02  0.17107960250E+03  0.00000000000E+00 0.  1.
</event>
<event>
 7    1  0.5950675E-006  0.1826432E+03  0.7818608E-02  0.1251294E+00
          2   -1    0    0  502    0  0.00000000000E+00  0.00000000000E+00  0.35413794077E+04  0.35413794077E+04  0.00000000000E+00 0. -1.
          1   -1    0    0  501    0 -0.00000000000E+00 -0.00000000000E+00 -0.45373669523E+03  0.45373669523E+03  0.00000000000E+00 0. -1.
         25    2    1    2    0    0 -0.16439476173E+03  0.83974201282E+02  0.15973605391E+04  0.16128426529E+04  0.12499370767E+03 0.  0.
          2    1    1    2  501    0  0.11785653312E+03 -0.13971719791E+03 -0.42655088218E+03  0.46406541875E+03  0.00000000000E+00 0. -1.
          1    1    1    2  502    0  0.46538228612E+02  0.55742996629E+02  0.19168330556E+04  0.19182080313E+04  0.00000000000E+00 0. -1.
         22    1    3    3    0    0 -0.33044181291E+02 -0.19546837338E+02  0.11870189026E+03  0.12475630453E+03  0.00000000000E+00 0. -1.
         22    1    3    3    0    0 -0.13135058044E+03  0.10352103862E+03  0.14786586488E+04  0.14880863484E+04  0.00000000000E+00 0. -1.
</event>
<event>
 7    1  0.5950675E-006  0.1405014E+03  0.7818608E-02  0.1250784E+00
          2   -1    0    0  502    0  0.00000000000E+00  0.00000000000E+00  0.33198870009E+04  0.33198870009E+04  0.00000000000E+00 0. -1.
          1   -1    0    0  501    0 -0.00000000000E+00 -0.00000000000E+00 -0.32688887333E+02  0.32688887333E+02  0.00000000000E+00 0. -1.
         25    2    1    2    0    0  0.18374643307E+03 -0.10443089237E+03  0.12035516064E+04  0.12283445340E+04  0.12500104766E+03 0.  0.
          2    1    1    2  501    0 -0.12559636953E+03  0.29461272015E+02  0.19874213153E+03  0.23694060318E+03  0.00000000000E+00 0. -1.
          1    1    1    2  502    0 -0.58150063540E+02  0.74969620355E+02  0.18849043756E+04  0.18872907511E+04  0.00000000000E+00 0. -1.
         22    1    3    3    0    0  0.12863402142E+03 -0.10982218600E+03  0.63628526918E+03  0.65838177966E+03  0.00000000000E+00 0. -1.
         22    1    3    3    0    0  0.55112411649E+02  0.53912936267E+01  0.56726633722E+03  0.56996275432E+03  0.00000000000E+00 0. -1.
</event>
<event>
 7    1  0.5950675E-006  0.1383557E+03  0.7818608E-02  0.1272098E+00
          2   -1    0    0  502    0  0.00000000000E+00  0.00000000000E+00  0.34460722319E+04  0.34460722319E+04  0.00000000000E+00 0. -1.
          1   -1    0    0  501    0 -0.00000000000E+00 -0.00000000000E+00 -0.20304953364E+03  0.20304953364E+03  0.00000000000E+00 0. -1.
         25    2    1    2    0    0 -0.76282304787E+02  0.61944465460E+01  0.21522489929E+04  0.21572340105E+04  0.12500195052E+03 0.  0.
          2    1    1    2  501    0  0.11943206828E+03 -0.71386867128E+02 -0.17507218043E+03  0.22362998926E+03  0.00000000000E+00 0. -1.
          1    1    1    2  502    0 -0.43149763498E+02  0.65192420582E+02  0.12658458858E+04  0.12682577657E+04  0.00000000000E+00 0. -1.
         22    1    3    3    0    0  0.33384081889E+01 -0.45439447104E+02  0.43878315991E+03  0.44114232368E+03  0.00000000000E+00 0. -1.
         22    1    3    3    0    0 -0.79620712976E+02  0.51633893650E+02  0.17134658330E+04  0.17160916869E+04  0.00000000000E+00 0. -1.
</event>
<event>
 7    1  0.5950675E-006  0.1650000E+03  0.7818608E-02  0.1230064E+00
          2   -1    0    0  502    0  0.00000000000E+00  0.00000000000E+00  0.30964020744E+03  0.30964020744E+03  0.00000000000E+00 0. -1.
          1   -1    0    0  501    0 -0.00000000000E+00 -0.00000000000E+00 -0.93401374106E+03  0.93401374106E+03  0.00000000000E+00 0. -1.
         25    2    1    2    0    0 -0.19597420315E+03 -0.11312021141E+03 -0.32741670124E+03  0.41716735697E+03  0.12499934777E+03 0.  0.
          2    1    1    2  501    0  0.98382151212E+02 -0.16137498338E+02 -0.53188026940E+03  0.54114331512E+03  0.00000000000E+00 0. -1.
          1    1    1    2  502    0  0.97592051935E+02  0.12925770975E+03  0.23492343702E+03  0.28534327641E+03  0.00000000000E+00 0. -1.
         22    1    3    3    0    0 -0.14036136245E+03 -0.26944825372E+02 -0.25254793383E+03  0.29018579318E+03  0.00000000000E+00 0.  1.
         22    1    3    3    0    0 -0.55612840697E+02 -0.86175386036E+02 -0.74868767412E+02  0.12698156379E+03  0.00000000000E+00 0.  1.
</event>
<event>
 7    1  0.5950675E-006  0.6252211E+02  0.7818608E-02  0.1400135E+00
          2   -1    0    0  502    0  0.00000000000E+00  0.00000000000E+00  0.23391247516E+04  0.23391247516E+04  0.00000000000E+00 0. -1.
          1   -1    0    0  501    0 -0.00000000000E+00 -0.00000000000E+00 -0.25904893500E+04  0.25904893500E+04  0.00000000000E+00 0. -1.
         25    2    1    2    0    0  0.16050248556E+02  0.14995772066E+02  0.11776886403E+04  0.11845076282E+04  0.12500121674E+03 0.  0.
          2    1    1    2  501    0  0.35085058853E+02  0.44334311740E+02 -0.25854460290E+04  0.25860641256E+04  0.00000000000E+00 0. -1.
          1    1    1    2  502    0 -0.51135307409E+02 -0.59330083805E+02  0.11563927903E+04  0.11590423478E+04  0.00000000000E+00 0. -1.
         22    1    3    3    0    0 -0.43458741997E+02  0.37301082615E+02  0.74218450674E+03  0.74439094236E+03  0.00000000000E+00 0.  1.
         22    1    3    3    0    0  0.59508990554E+02 -0.22305310549E+02  0.43550413355E+03  0.44011668587E+03  0.00000000000E+00 0.  1.
</event>
<event>
 7    1  0.5950675E-006  0.5972396E+02  0.7818608E-02  0.1401423E+00
          2   -1    0    0  502    0  0.00000000000E+00  0.00000000000E+00  0.39236797447E+02  0.39236797447E+02  0.00000000000E+00 0. -1.
          1   -1    0    0  501    0 -0.00000000000E+00 -0.00000000000E+00 -0.70891863424E+03  0.70891863424E+03  0.00000000000E+00 0. -1.
         25    2    1    2    0    0  0.41101502924E+02 -0.28284192270E+02 -0.51586950242E+03  0.53313745455E+03  0.12499949138E+03 0.  0.
          2    1    1    2  501    0 -0.15734803062E+02  0.82353430285E+02 -0.11999426078E+03  0.14638406378E+03  0.00000000000E+00 0. -1.
          1    1    1    2  502    0 -0.25366699863E+02 -0.54069238015E+02 -0.33818073594E+02  0.68633913360E+02  0.00000000000E+00 0. -1.
         22    1    3    3    0    0  0.41610125730E+01  0.40936720903E+01  0.63428071734E+01  0.86199408150E+01  0.00000000000E+00 0. -1.
         22    1    3    3    0    0  0.36940490351E+02 -0.32377864360E+02 -0.52221230959E+03  0.52451751374E+03  0.00000000000E+00 0. -1.
</event>
<event>
 7    1  0.5950675E-006  0.6569092E+02  0.7818608E-02  0.1386815E+00
          2   -1    0    0  502    0  0.00000000000E+00  0.00000000000E+00  0.70301944224E+02  0.70301944224E+02  0.00000000000E+00 0. -1.
          1   -1    0    0  501    0 -0.00000000000E+00 -0.00000000000E+00 -0.15222319067E+04  0.15222319067E+04  0.00000000000E+00 0. -1.
         25    2    1    2    0    0  0.27269351743E+02  0.19742299193E+02 -0.12072491949E+03  0.17701040979E+03  0.12499921227E+03 0.  0.
          2    1    1    2  501    0 -0.21817203172E+02  0.55738863595E+02 -0.13381862861E+04  0.13395242989E+04  0.00000000000E+00 0. -1.
          1    1    1    2  502    0 -0.54521485706E+01 -0.75481162788E+02  0.69812430625E+01  0.75999142196E+02  0.00000000000E+00 0. -1.
         22    1    3    3    0    0  0.23563029393E+02  0.31202094110E+02 -0.14485621860E+03  0.15004036489E+03  0.00000000000E+00 0.  1.
         22    1    3    3    0    0  0.37063223493E+01 -0.11459794917E+02  0.24131299111E+02  0.26970044896E+02  0.00000000000E+00 0.  1.
</event>
<event>
 7    1  0.5950675E-006  0.4955542E+02  0.7818608E-02  0.1546514E+00
          2   -1    0    0  502    0  0.00000000000E+00  0.00000000000E+00  0.13625256150E+03  0.13625256150E+03  0.00000000000E+00 0. -1.
          1   -1    0    0  501    0 -0.00000000000E+00 -0.00000000000E+00 -0.60573686756E+03  0.60573686756E+03  0.00000000000E+00 0. -1.
         25    2    1    2    0    0  0.88604964878E+01 -0.70600004448E+02  0.11516324402E+02  0.14429386441E+03  0.12500089820E+03 0.  0.
          2    1    1    2  501    0 -0.16012959862E+02  0.46588266159E+02 -0.53547470210E+03  0.53773603006E+03  0.00000000000E+00 0. -1.
          1    1    1    2  502    0  0.71524633740E+01  0.24011738289E+02  0.54474071644E+02  0.59959534600E+02  0.00000000000E+00 0. -1.
         22    1    3    3    0    0 -0.42203071735E+02 -0.28088234101E+02 -0.36369965978E+02  0.62392488202E+02  0.00000000000E+00 0. -1.
         22    1    3    3    0    0  0.51063568223E+02 -0.42511770346E+02  0.47886290380E+02  0.81901376204E+02  0.00000000000E+00 0. -1.
</event>
<event>
 7    1  0.5950675E-006  0.1195770E+03  0.7818608E-02  0.1316013E+00
          2   -1    0    0  502    0  0.00000000000E+00  0.00000000000E+00  0.72396040486E+02  0.72396040486E+02  0.00000000000E+00 0. -1.
          1   -1    0    0  501    0 -0.00000000000E+00 -0.00000000000E+00 -0.12940167391E+04  0.12940167391E+04  0.00000000000E+00 0. -1.
         25    2    1    2    0    0 -0.12642571668E+03 -0.33534949576E+02 -0.67882353321E+03  0.70252023354E+03  0.12500093845E+03 0.  0.
          2    1    1    2  501    0  0.37649485165E+02 -0.46854542816E+02 -0.54078028617E+03  0.54411042061E+03  0.00000000000E+00 0. -1.
          1    1    1    2  502    0  0.88776231512E+02  0.80389492392E+02 -0.20168792270E+01  0.11978212542E+03  0.00000000000E+00 0. -1.
         22    1    3    3    0    0 -0.13323008349E+02  0.18509326174E+02 -0.15407045904E+02  0.27522259544E+02  0.00000000000E+00 0.  1.
         22    1    3    3    0    0 -0.11310270833E+03 -0.52044275751E+02 -0.66341648731E+03  0.67499797400E+03  0.00000000000E+00 0.  1.
</event>
<event>
 7    1  0.5950675E-006  0.6581647E+02  0.7818608E-02  0.1386886E+00
          2   -1    0    0  502    0  0.00000000000E+00  0.00000000000E+00  0.22491640039E+03  0.22491640039E+03  0.00000000000E+00 0. -1.
          1   -1    0    0  501    0 -0.00000000000E+00 -0.00000000000E+00 -0.37081470624E+03  0.37081470624E+03  0.00000000000E+00 0. -1.
         25    2    1    2    0    0 -0.94687533649E+02 -0.23990698733E+02 -0.14107678349E+02  0.15926679672E+03  0.12500241315E+03 0.  0.
          2    1    1    2  501    0  0.60197484947E+02 -0.24748194379E+02 -0.27431908221E+03  0.28193468957E+03  0.00000000000E+00 0. -1.
          1    1    1    2  502    0  0.34490048702E+02  0.48738893113E+02  0.14252845471E+03  0.15452962034E+03  0.00000000000E+00 0. -1.
         22    1    3    3    0    0 -0.10012982099E+03  0.20250030860E+02  0.18785535396E+02  0.10386982787E+03  0.00000000000E+00 0.  1.
         22    1    3    3    0    0  0.54422873442E+01 -0.44240729594E+02 -0.32893213745E+02  0.55396968843E+02  0.00000000000E+00 0.  1.
</event>
<event>
 7    1  0.5950675E-006  0.8558888E+02  0.7818608E-02  0.1342231E+00
          2   -1    0    0  502    0  0.00000000000E+00  0.00000000000E+00  0.17118093917E+04  0.17118093917E+04  0.00000000000E+00 0. -1.
          1   -1    0    0  501    0 -0.00000000000E+00 -0.00000000000E+00 -0.63535484960E+03  0.63535484960E+03  0.00000000000E+00 0. -1.
         25    2    1    2    0    0  0.12369314613E+03  0.62688054421E+02 -0.33272177649E+03  0.38152133198E+03  0.12499983857E+03 0.  0.
          2    1    1    2  501    0 -0.59143262304E+02 -0.46060087388E+02 -0.27251178930E+03  0.28263427328E+03  0.00000000000E+00 0. -1.
          1    1    1    2  502    0 -0.64549883830E+02 -0.16627967033E+02  0.16816881078E+04  0.16830086360E+04  0.00000000000E+00 0. -1.
         22    1    3    3    0    0 -0.12990309808E+02  0.46261292751E+02 -0.10401790754E+03  0.11458001765E+03  0.00000000000E+00 0. -1.
         22    1    3    3    0    0  0.13668345594E+03  0.16426761670E+02 -0.22870386895E+03  0.26694131434E+03  0.00000000000E+00 0. -1.
</event>
<event>
 7    1  0.5950675E-006  0.1416347E+03  0.7818608E-02  0.1358558E+00
          2   -1    0    0  502    0  0.00000000000E+00  0.00000000000E+00  0.12353011512E+03  0.12353011512E+03  0.00000000000E+00 0. -1.
          1   -1    0    0  501    0 -0.00000000000E+00 -0.00000000000E+00 -0.15545176789E+04  0.15545176789E+04  0.00000000000E+00 0. -1.
         25    2    1    2    0    0  0.83968693006E+02 -0.13027964808E+03 -0.75267550078E+02  0.21286440510E+03  0.12499009063E+03 0.  0.
          2    1    1    2  501    0 -0.10030442017E+03  0.99274207937E+02 -0.14009078654E+04  0.14079982927E+04  0.00000000000E+00 0. -1.
          1    1    1    2  502    0  0.16335727166E+02  0.31005440141E+02  0.45187851610E+02  0.57185096253E+02  0.00000000000E+00 0. -1.
         22    1    3    3    0    0  0.49317297946E+02 -0.15038885174E+03 -0.52310735228E+02  0.16668957863E+03  0.00000000000E+00 0. -1.
         22    1    3    3    0    0  0.34651395060E+02  0.20109203662E+02 -0.22956814850E+02  0.46174826470E+02  0.00000000000E+00 0. -1.
</event>
<event>
 7    1  0.5950675E-006  0.7457101E+02  0.7818608E-02  0.1434020E+00
          2   -1    0    0  502    0  0.00000000000E+00  0.00000000000E+00  0.69499740924E+02  0.69499740924E+02  0.00000000000E+00 0. -1.
          1   -1    0    0  501    0 -0.00000000000E+00 -0.00000000000E+00 -0.58297124948E+03  0.58297124948E+03  0.00000000000E+00 0. -1.
         25    2    1    2    0    0  0.38780874433E+02  0.74464468895E+02 -0.24114336905E+03  0.28429490804E+03  0.12499822778E+03 0.  0.
          2    1    1    2  501    0 -0.59326629724E+02 -0.44312665364E+02 -0.30822293408E+03  0.31699312042E+03  0.00000000000E+00 0. -1.
          1    1    1    2  502    0  0.20545755291E+02 -0.30151803530E+02  0.35894794569E+02  0.51182961948E+02  0.00000000000E+00 0. -1.
         22    1    3    3    0    0  0.80663834929E+02  0.66212066563E+02 -0.19671138944E+03  0.22267928228E+03  0.00000000000E+00 0. -1.
         22    1    3    3    0    0 -0.41882960497E+02  0.82524023319E+01 -0.44431979616E+02  0.61615625752E+02  0.00000000000E+00 0. -1.
</event>
<event>
 7    1  0.5950675E-006  0.1224485E+03  0.7818608E-02  0.1426355E+00
          2   -1    0    0  502    0  0.00000000000E+00  0.00000000000E+00  0.54295754644E+03  0.54295754644E+03  0.00000000000E+00 0. -1.
          1   -1    0    0  501    0 -0.00000000000E+00 -0.00000000000E+00 -0.53476807246E+03  0.53476807246E+03  0.00000000000E+00 0. -1.
         25    2    1    2    0    0 -0.10972894355E+03 -0.85804938872E+02 -0.80945802717E+02  0.20391527474E+03  0.12500515072E+03 0.  0.
          2    1    1    2  501    0  0.86300813729E+02  0.83420980740E+02 -0.38285694525E+03  0.40123101949E+03  0.00000000000E+00 0. -1.
          1    1    1    2  502    0  0.23428129820E+02  0.23839581315E+01  0.47199222194E+03  0.47257932466E+03  0.00000000000E+00 0. -1.
         22    1    3    3    0    0 -0.28825612637E+02 -0.96470288200E+02 -0.21498389094E+02  0.10295442284E+03  0.00000000000E+00 0.  1.
         22    1    3    3    0    0 -0.80903330912E+02  0.10665349328E+02 -0.59447413623E+02  0.10096085190E+03  0.00000000000E+00 0.  1.
</event>
<event>
 7    1  0.5950675E-006  0.6808043E+02  0.7818608E-02  0.1513218E+00
          2   -1    0    0  502    0  0.00000000000E+00  0.00000000000E+00  0.18153704125E+03  0.18153704125E+03  0.00000000000E+00 0. -1.
          1   -1    0    0  501    0 -0.00000000000E+00 -0.00000000000E+00 -0.25103553766E+04  0.25103553766E+04  0.00000000000E+00 0. -1.
         25    2    1    2    0    0  0.45203907641E+02 -0.24308516614E+02  0.40821817444E+02  0.14115816865E+03  0.12499964220E+03 0.  0.
          2    1    1    2  501    0 -0.66300973603E+02  0.15880292632E+02 -0.24582821189E+04  0.24592273134E+04  0.00000000000E+00 0. -1.
          1    1    1    2  502    0  0.21097065962E+02  0.84282239817E+01  0.88641966091E+02  0.91506935825E+02  0.00000000000E+00 0. -1.
         22    1    3    3    0    0  0.27131766270E+02  0.42564753200E+02 -0.14487079526E+02  0.52514440196E+02  0.00000000000E+00 0.  1.
         22    1    3    3    0    0  0.18072141370E+02 -0.66873269814E+02  0.55308896970E+02  0.88643728449E+02  0.00000000000E+00 0.  1.
</event>
<event>
 7    1  0.5950675E-006  0.1372254E+03  0.7818608E-02  0.1303030E+00
          2   -1    0    0  502    0  0.00000000000E+00  0.00000000000E+00  0.20214889515E+03  0.20214889515E+03  0.00000000000E+00 0. -1.
          1   -1    0    0  501    0 -0.00000000000E+00 -0.00000000000E+00 -0.82236970810E+03  0.82236970810E+03  0.00000000000E+00 0. -1.
         25    2    1    2    0    0  0.65828420274E+02 -0.15965464149E+03 -0.66871128202E+03  0.70187089519E+03  0.12499995740E+03 0.  0.
          2    1    1    2  501    0 -0.53810975481E+02  0.24024923267E+02 -0.10318106179E+03  0.11882402759E+03  0.00000000000E+00 0. -1.
          1    1    1    2  502    0 -0.12017444793E+02  0.13562971822E+03  0.15167153086E+03  0.20382368047E+03  0.00000000000E+00 0. -1.
         22    1    3    3    0    0  0.79738549526E+02 -0.86558197760E+02 -0.54453698759E+03  0.55710958413E+03  0.00000000000E+00 0.  1.
         22    1    3    3    0    0 -0.13910129252E+02 -0.73096443733E+02 -0.12417429443E+03  0.14476131106E+03  0.00000000000E+00 0.  1.
</event>
<event>
 7    1  0.5950675E-006  0.6721845E+02  0.7818608E-02  0.1460643E+00
          2   -1    0    0  502    0  0.00000000000E+00  0.00000000000E+00  0.23087678384E+04  0.23087678384E+04  0.00000000000E+00 0. -1.
          1   -1    0    0  501    0 -0.00000000000E+00 -0.00000000000E+00 -0.89161056960E+03  0.89161056960E+03  0.00000000000E+00 0. -1.
         25    2    1    2    0    0 -0.31860408583E+02 -0.93242032194E+02  0.33731362205E+03  0.37298051500E+03  0.12499929099E+03 0.  0.
          2    1    1    2  501    0  0.13062355495E+02  0.65824419036E+02 -0.87234689600E+03  0.87492433172E+03  0.00000000000E+00 0. -1.
          1    1    1    2  502    0  0.18798053089E+02  0.27417613158E+02  0.19521905427E+04  0.19524735613E+04  0.00000000000E+00 0. -1.
         22    1    3    3    0    0 -0.44844686527E+02 -0.11936693091E+03  0.24545041239E+03  0.27659612261E+03  0.00000000000E+00 0.  1.
         22    1    3    3    0    0  0.12984277944E+02  0.26124898714E+02  0.91863209663E+02  0.96384392389E+02  0.00000000000E+00 0.  1.
</event>
<event>
 7    1  0.5950675E-006  0.5472482E+02  0.7818608E-02  0.1532414E+00
          2   -1    0    0  502    0  0.00000000000E+00  0.00000000000E+00  0.14816790889E+04  0.14816790889E+04  0.00000000000E+00 0. -1.
          1   -1    0    0  501    0 -0.00000000000E+00 -0.00000000000E+00 -0.18669044076E+03  0.18669044076E+03  0.00000000000E+00 0. -1.
         25    2    1    2    0    0 -0.50947128446E+02 -0.31911722593E+02  0.15331465041E+03  0.20674724149E+03  0.12500028758E+03 0.  0.
          2    1    1    2  501    0 -0.32912280445E+01  0.24651406247E+02 -0.15842848760E+03  0.16036866805E+03  0.00000000000E+00 0. -1.
          1    1    1    2  502    0  0.54238356491E+02  0.72603163456E+01  0.13001024854E+04  0.13012536202E+04  0.00000000000E+00 0. -1.
         22    1    3    3    0    0  0.29718910249E+02 -0.41257136698E+02  0.91547501204E+02  0.10472015055E+03  0.00000000000E+00 0.  1.
         22    1    3    3    0    0 -0.80666038696E+02  0.93454141053E+01  0.61767149210E+02  0.10202709094E+03  0.00000000000E+00 0.  1.
</event>
<event>
 7    1  0.5950675E-006  0.2907419E+03  0.7818608E-02  0.1217097E+00
          2   -1    0    0  502    0  0.00000000000E+00  0.00000000000E+00  0.18720731000E+04  0.18720731000E+04  0.00000000000E+00 0. -1.
          1   -1    0    0  501    0 -0.00000000000E+00 -0.00000000000E+00 -0.85193210924E+03  0.85193210924E+03  0.00000000000E+00 0. -1.
         25    2    1    2    0    0  0.14970073729E+03 -0.17313197215E+03 -0.33917443603E+03  0.42784247693E+03  0.12499958593E+03 0.  0.
          2    1    1    2  501    0  0.31747739148E+02 -0.56465325619E+02 -0.45439812153E+03  0.45899227095E+03  0.00000000000E+00 0. -1.
          1    1    1    2  502    0 -0.18144847644E+03  0.22959729777E+03  0.18137135483E+04  0.18371704614E+04  0.00000000000E+00 0. -1.
         22    1    3    3    0    0 -0.22002943786E+02 -0.14703757147E+02 -0.25742512052E+02  0.36918923823E+02  0.00000000000E+00 0. -1.
         22    1    3    3    0    0  0.17170368108E+03 -0.15842821500E+03 -0.31343192398E+03  0.39092355310E+03  0.00000000000E+00 0. -1.
</event>
<event>
 7    1  0.5950675E-006  0.2634895E+03  0.7818608E-02  0.1182180E+00
          2   -1    0    0  502    0  0.00000000000E+00  0.00000000000E+00  0.14878768407E+04  0.14878768407E+04  0.00000000000E+00 0. -1.
          1   -1    0    0  501    0 -0.00000000000E+00 -0.00000000000E+00 -0.82784233255E+03  0.82784233255E+03  0.00000000000E+00 0. -1.
         25    2    1    2    0    0 -0.18892044179E+03 -0.13381443519E+03  0.25041838340E+02  0.26429078154E+03  0.12500114858E+03 0.  0.
          2    1    1    2  501    0 -0.73354015950E+02  0.74384151042E+02 -0.69079070428E+03  0.69864555441E+03  0.00000000000E+00 0. -1.
          1    1    1    2  502    0  0.26227445774E+03  0.59430284147E+02  0.13257833741E+04  0.13527828373E+04  0.00000000000E+00 0. -1.
         22    1    3    3    0    0 -0.29347575799E+02 -0.68892795591E+02  0.50252240285E+02  0.90181955752E+02  0.00000000000E+00 0. -1.
         22    1    3    3    0    0 -0.15957286599E+03 -0.64921639598E+02 -0.25210401945E+02  0.17410882578E+03  0.00000000000E+00 0. -1.
</event>
<event>
 7    1  0.5950675E-006  0.2399327E+03  0.7818608E-02  0.1221394E+00
          2   -1    0    0  502    0  0.00000000000E+00  0.00000000000E+00  0.58945173464E+03  0.58945173464E+03  0.00000000000E+00 0. -1.
          1   -1    0    0  501    0 -0.00000000000E+00 -0.00000000000E+00 -0.16727122745E+04  0.16727122745E+04  0.00000000000E+00 0. -1.
         25    2    1    2    0    0 -0.13938149899E+03  0.19332250090E+03 -0.66821647717E+03  0.72037457284E+03  0.12500189284E+03 0.  0.
          2    1    1    2  501    0 -0.54663278574E+02 -0.51393644482E+02 -0.95122426385E+03  0.95417869440E+03  0.00000000000E+00 0. -1.
          1    1    1    2  502    0  0.19404477756E+03 -0.14192885641E+03  0.53618020111E+03  0.58761074194E+03  0.00000000000E+00 0. -1.
         22    1    3    3    0    0 -0.62428119825E+02  0.84340808726E+01 -0.23171691788E+03  0.24012732851E+03  0.00000000000E+00 0. -1.
         22    1    3    3    0    0 -0.76953379166E+02  0.18488842002E+03 -0.43649955929E+03  0.48024724433E+03  0.00000000000E+00 0. -1.
</event>
<event>
 7    1  0.5950675E-006  0.4108858E+02  0.7818608E-02  0.1584301E+00
          2   -1    0    0  502    0  0.00000000000E+00  0.00000000000E+00  0.22415232197E+04  0.22415232197E+04  0.00000000000E+00 0. -1.
          1   -1    0    0  501    0 -0.00000000000E+00 -0.00000000000E+00 -0.11752623338E+02  0.11752623338E+02  0.00000000000E+00 0. -1.
         25    2    1    2    0    0 -0.29186288047E+02  0.23233249273E+02  0.14075788555E+04  0.14136123801E+04  0.12502041170E+03 0.  0.
          2    1    1    2  501    0  0.41360978568E+02 -0.27585018284E+01  0.41665297980E+02  0.58773607479E+02  0.00000000000E+00 0. -1.
          1    1    1    2  502    0 -0.12174690521E+02 -0.20474747445E+02  0.78052644291E+03  0.78088985552E+03  0.00000000000E+00 0. -1.
         22    1    3    3    0    0  0.46062901964E+02 -0.11653530853E+02  0.50415941932E+03  0.50639343974E+03  0.00000000000E+00 0. -1.
         22    1    3    3    0    0 -0.75249190011E+02  0.34886780126E+02  0.90341943617E+03  0.90721894032E+03  0.00000000000E+00 0. -1.
</event>
<event>
 7    1  0.5950675E-006  0.7302061E+02  0.7818608E-02  0.1440660E+00
          2   -1    0    0  502    0  0.00000000000E+00  0.00000000000E+00  0.48947119131E+03  0.48947119131E+03  0.00000000000E+00 0. -1.
          1   -1    0    0  501    0 -0.00000000000E+00 -0.00000000000E+00 -0.38262299336E+03  0.38262299336E+03  0.00000000000E+00 0. -1.
         25    2    1    2    0    0 -0.49495997243E+02 -0.31292700049E+02  0.18541637977E+03  0.23115491582E+03  0.12499709758E+03 0.  0.
          2    1    1    2  501    0  0.83328796227E+01 -0.34457318693E+02 -0.35350015523E+03  0.35527327995E+03  0.00000000000E+00 0. -1.
          1    1    1    2  502    0  0.41163117620E+02  0.65750018743E+02  0.27493197341E+03  0.28566598891E+03  0.00000000000E+00 0. -1.
         22    1    3    3    0    0 -0.39175179515E+02  0.44541638189E+02  0.61018190293E+02  0.85099187829E+02  0.00000000000E+00 0. -1.
         22    1    3    3    0    0 -0.10320817728E+02 -0.75834338238E+02  0.12439818948E+03  0.14605572799E+03  0.00000000000E+00 0. -1.
</event>
<event>
 7    1  0.5950675E-006  0.6015864E+02  0.7818608E-02  0.1427848E+00
          2   -1    0    0  502    0  0.00000000000E+00  0.00000000000E+00  0.20146354994E+03  0.20146354994E+03  0.00000000000E+00 0. -1.
          1   -1    0    0  501    0 -0.00000000000E+00 -0.00000000000E+00 -0.90479756895E+03  0.90479756895E+03  0.00000000000E+00 0. -1.
         25    2    1    2    0    0 -0.21067727451E+02 -0.14054002317E+02 -0.29028083037E+03  0.31706324321E+03  0.12499910238E+03 0.  0.
          2    1    1    2  501    0 -0.38139123861E+02  0.28130032591E+02 -0.59523588071E+03  0.59711945638E+03  0.00000000000E+00 0. -1.
          1    1    1    2  502    0  0.59206851312E+02 -0.14076030274E+02  0.18218269207E+03  0.19207841930E+03  0.00000000000E+00 0. -1.
         22    1    3    3    0    0  0.10606299052E+02 -0.95593747301E+01  0.84718144095E+01  0.16602616186E+02  0.00000000000E+00 0. -1.
         22    1    3    3    0    0 -0.31674026503E+02 -0.44946275871E+01 -0.29875264478E+03  0.30046062703E+03  0.00000000000E+00 0. -1.
</event>
<event>
 7    1  0.5950675E-006  0.5562400E+02  0.7818608E-02  0.1441555E+00
          2   -1    0    0  502    0  0.00000000000E+00  0.00000000000E+00  0.12812149584E+04  0.12812149584E+04  0.00000000000E+00 0. -1.
          1   -1    0    0  501    0 -0.00000000000E+00 -0.00000000000E+00 -0.49360378225E+03  0.49360378225E+03  0.00000000000E+00 0. -1.
         25    2    1    2    0    0  0.75180217916E+02  0.15285252465E+02  0.64077235469E+03  0.65734361133E+03  0.12500283484E+03 0.  0.
          2    1    1    2  501    0 -0.37070239435E+02 -0.41451224622E+02 -0.48287511650E+03  0.48606664647E+03  0.00000000000E+00 0. -1.
          1    1    1    2  502    0 -0.38109978481E+02  0.26165972157E+02  0.62971393799E+03  0.63140848288E+03  0.00000000000E+00 0. -1.
         22    1    3    3    0    0  0.30156343903E+01  0.15768212712E+02  0.40664601230E+01  0.16560998788E+02  0.00000000000E+00 0. -1.
         22    1    3    3    0    0  0.72164583526E+02 -0.48296024741E+00  0.63670589456E+03  0.64078261254E+03  0.00000000000E+00 0. -1.
</event>
<event>
 7    1  0.5950675E-006  0.3869526E+03  0.7818608E-02  0.1255651E+00
          2   -1    0    0  502    0  0.00000000000E+00  0.00000000000E+00  0.12030411459E+04  0.12030411459E+04  0.00000000000E+00 0. -1.
          1   -1    0    0  501    0 -0.00000000000E+00 -0.00000000000E+00 -0.25606102995E+03  0.25606102995E+03  0.00000000000E+00 0. -1.
         25    2    1    2    0    0  0.37047381946E+03  0.69284324211E+02  0.18201088783E+03  0.43681102786E+03  0.12499896912E+03 0.  0.
          2    1    1    2  501    0 -0.39459274421E+03 -0.47020598331E+02  0.17974168404E+03  0.43614383343E+03  0.00000000000E+00 0. -1.
          1    1    1    2  502    0  0.24118924752E+02 -0.22263725880E+02  0.58522754412E+03  0.58614731460E+03  0.00000000000E+00 0. -1.
         22    1    3    3    0    0  0.20264004550E+03  0.24885184849E+02  0.30579475479E+02  0.20643973645E+03  0.00000000000E+00 0. -1.
         22    1    3    3    0    0  0.16783377396E+03  0.44399139361E+02  0.15143141235E+03  0.23037129141E+03  0.00000000000E+00 0. -1.
</event>
<event>
 7    1  0.5950675E-006  0.1046417E+03  0.7818608E-02  0.1304544E+00
          2   -1    0    0  502    0  0.00000000000E+00  0.00000000000E+00  0.16881027529E+03  0.16881027529E+03  0.00000000000E+00 0. -1.
          1   -1    0    0  501    0 -0.00000000000E+00 -0.00000000000E+00 -0.10933810558E+04  0.10933810558E+04  0.00000000000E+00 0. -1.
         25    2    1    2    0    0  0.83535315391E+01  0.11705277141E+03  0.57615339373E+02  0.18087277986E+03  0.12499720948E+03 0.  0.
          2    1    1    2  501    0 -0.72499210120E+02 -0.75892457363E+02 -0.99797973787E+03  0.10034836111E+04  0.00000000000E+00 0. -1.
          1    1    1    2  502    0  0.64145678580E+02 -0.41160314050E+02  0.15793618000E+02  0.77834940116E+02  0.00000000000E+00 0. -1.
         22    1    3    3    0    0  0.29449740404E+02  0.59588428286E+02 -0.30861720450E+02  0.73283789372E+02  0.00000000000E+00 0.  1.
         22    1    3    3    0    0 -0.21096208865E+02  0.57464343127E+02  0.88477059823E+02  0.10758899049E+03  0.00000000000E+00 0.  1.
</event>
<event>
 7    1  0.5950675E-006  0.5442108E+02  0.7818608E-02  0.1484346E+00
          2   -1    0    0  502    0  0.00000000000E+00  0.00000000000E+00  0.10373276610E+03  0.10373276610E+03  0.00000000000E+00 0. -1.
          1   -1    0    0  501    0 -0.00000000000E+00 -0.00000000000E+00 -0.72835189092E+03  0.72835189092E+03  0.00000000000E+00 0. -1.
         25    2    1    2    0    0 -0.42693322822E+02  0.14846307715E+02 -0.24874280725E+02  0.13523332774E+03  0.12500476160E+03 0.  0.
          2    1    1    2  501    0  0.51550631266E+02  0.18672005363E+02 -0.64078578062E+03  0.64312714762E+03  0.00000000000E+00 0. -1.
          1    1    1    2  502    0 -0.88573084441E+01 -0.33518313079E+02  0.41040936519E+02  0.53724181658E+02  0.00000000000E+00 0. -1.
         22    1    3    3    0    0  0.25439958913E+02  0.10488896177E+02  0.34933221246E+02  0.44469522138E+02  0.00000000000E+00 0. -1.
         22    1    3    3    0    0 -0.68133281735E+02  0.43574115382E+01 -0.59807501972E+02  0.90763805602E+02  0.00000000000E+00 0. -1.
</event>
<event>
 7    1  0.5950675E-006  0.8299036E+02  0.7818608E-02  0.1445757E+00
          2   -1    0    0  502    0  0.00000000000E+00  0.00000000000E+00  0.97021340188E+03  0.97021340188E+03  0.00000000000E+00 0. -1.
          1   -1    0    0  501    0 -0.00000000000E+00 -0.00000000000E+00 -0.38517172355E+03  0.38517172355E+03  0.00000000000E+00 0. -1.
         25    2    1    2    0    0  0.33369376405E+02  0.98949272302E+02  0.36481963477E+01  0.16291913576E+03  0.12499944676E+03 0.  0.
          2    1    1    2  501    0  0.95700658932E+01 -0.28465798048E+02 -0.30287199246E+03  0.30435724344E+03  0.00000000000E+00 0. -1.
          1    1    1    2  502    0 -0.42939442298E+02 -0.70483474254E+02  0.88426547443E+03  0.88810874623E+03  0.00000000000E+00 0. -1.
         22    1    3    3    0    0  0.26428169868E+02  0.55915961849E+02  0.63654252630E+02  0.88751939866E+02  0.00000000000E+00 0. -1.
         22    1    3    3    0    0  0.69412065369E+01  0.43033310453E+02 -0.60006056282E+02  0.74167195897E+02  0.00000000000E+00 0. -1.
</event>
<event>
 7    1  0.7446678E-006  0.1356238E+03  0.7818608E-02  0.1345880E+00
          2   -1    0    0  502    0  0.00000000000E+00  0.00000000000E+00  0.12521809078E+04  0.12521809078E+04  0.00000000000E+00 0. -1.
          1   -1    0    0  501    0 -0.00000000000E+00 -0.00000000000E+00 -0.30040998979E+04  0.30040998979E+04  0.00000000000E+00 0. -1.
         25    2    1    2    0    0  0.86782863987E+02 -0.52744996980E+02 -0.32021070439E+03  0.35842710885E+03  0.12498718720E+03 0.  0.
          2    1    1    2  501    0  0.14428804244E+02 -0.38125927977E+02 -0.26608733330E+04  0.26611855762E+04  0.00000000000E+00 0. -1.
          1    1    1    2  502    0 -0.10121166823E+03  0.90870924958E+02  0.12291650474E+04  0.12366681206E+04  0.00000000000E+00 0. -1.
         22    1    3    3    0    0  0.24371488320E+02  0.41132595342E+02 -0.82818755470E+02  0.95628479545E+02  0.00000000000E+00 0.  1.
         22    1    3    3    0    0  0.62411375667E+02 -0.93877592323E+02 -0.23739194892E+03  0.26279862930E+03  0.00000000000E+00 0.  1.
</event>
<event>
 7    1  0.5950675E-006  0.8573145E+02  0.7818608E-02  0.1440988E+00
          2   -1    0    0  502    0  0.00000000000E+00  0.00000000000E+00  0.68211236645E+03  0.68211236645E+03  0.00000000000E+00 0. -1.
          1   -1    0    0  501    0 -0.00000000000E+00 -0.00000000000E+00 -0.34061959537E+03  0.34061959537E+03  0.00000000000E+00 0. -1.
         25    2    1    2    0    0  0.41144931748E+02 -0.10422768635E+03 -0.70492919844E+02  0.18206957032E+03  0.12499504261E+03 0.  0.
          2    1    1    2  501    0 -0.31979578016E+02  0.75535395822E+02 -0.20611041998E+03  0.22183280789E+03  0.00000000000E+00 0. -1.
          1    1    1    2  502    0 -0.91653537325E+01  0.28692290523E+02  0.61809611091E+03  0.61882958362E+03  0.00000000000E+00 0. -1.
         22    1    3    3    0    0  0.68522171994E+02 -0.11854434048E+03 -0.59242414160E+02  0.14919018852E+03  0.00000000000E+00 0. -1.
         22    1    3    3    0    0 -0.27377240245E+02  0.14316654137E+02 -0.11250505684E+02  0.32879381796E+02  0.00000000000E+00 0. -1.
</event>
<event>
 7    1  0.5950675E-006  0.7786536E+02  0.7818608E-02  0.1462520E+00
          2   -1    0    0  502    0  0.00000000000E+00  0.00000000000E+00  0.44105820740E+02  0.44105820740E+02  0.00000000000E+00 0. -1.
          1   -1    0    0  501    0 -0.00000000000E+00 -0.00000000000E+00 -0.79243609150E+03  0.79243609150E+03  0.00000000000E+00 0. -1.
         25    2    1    2    0    0  0.32681185556E+02  0.43899297544E+02 -0.28938282863E+03  0.31994239680E+03  0.12500203018E+03 0.  0.
          2    1    1    2  501    0  0.10735584108E+02  0.26195184540E+02 -0.42737220198E+03  0.42830881323E+03  0.00000000000E+00 0. -1.
          1    1    1    2  502    0 -0.43416769664E+02 -0.70094482084E+02 -0.31575240137E+02  0.88290702208E+02  0.00000000000E+00 0. -1.
         22    1    3    3    0    0 -0.19772484656E+02  0.57922706621E+02 -0.23597010999E+03  0.24377834995E+03  0.00000000000E+00 0.  1.
         22    1    3    3    0    0  0.52453670212E+02 -0.14023409077E+02 -0.53412718642E+02  0.76164046856E+02  0.00000000000E+00 0.  1.
</event>
<event>
 7    1  0.5950675E-006  0.9332604E+02  0.7818608E-02  0.1295676E+00
          2   -1    0    0  502    0  0.00000000000E+00  0.00000000000E+00  0.28581419700E+02  0.28581419700E+02  0.00000000000E+00 0. -1.
          1   -1    0    0  501    0 -0.00000000000E+00 -0.00000000000E+00 -0.13018629668E+04  0.13018629668E+04  0.00000000000E+00 0. -1.
         25    2    1    2    0    0  0.15251303065E+02  0.32427962408E+02 -0.52456211421E+03  0.54043968979E+03  0.12500188658E+03 0.  0.
          2    1    1    2  501    0  0.91816620497E+02  0.16717013364E+02 -0.55861077187E+03  0.56635302135E+03  0.00000000000E+00 0. -1.
          1    1    1    2  502    0 -0.10706792356E+03 -0.49144975772E+02 -0.19010866104E+03  0.22365167538E+03  0.00000000000E+00 0. -1.
         22    1    3    3    0    0  0.35109096323E+02 -0.35381529258E+02 -0.12312419423E+03  0.13283097705E+03  0.00000000000E+00 0. -1.
         22    1    3    3    0    0 -0.19857793257E+02  0.67809491666E+02 -0.40143791998E+03  0.40760871275E+03  0.00000000000E+00 0. -1.
</event>
<event>
 7    1  0.5950675E-006  0.4557039E+02  0.7818608E-02  0.1509474E+00
          2   -1    0    0  502    0  0.00000000000E+00  0.00000000000E+00  0.15486794161E+03  0.15486794161E+03  0.00000000000E+00 0. -1.
          1   -1    0    0  501    0 -0.00000000000E+00 -0.00000000000E+00 -0.16090067654E+04  0.16090067654E+04  0.00000000000E+00 0. -1.
         25    2    1    2    0    0  0.47581166253E+02 -0.57822329285E+02 -0.62001620645E+03  0.63691075389E+03  0.12501129152E+03 0.  0.
          2    1    1    2  501    0 -0.31191854789E+02  0.15455075308E+02 -0.97670233321E+03  0.97732248458E+03  0.00000000000E+00 0. -1.
          1    1    1    2  502    0 -0.16389311464E+02  0.42367253977E+02  0.14257971586E+03  0.14964146857E+03  0.00000000000E+00 0. -1.
         22    1    3    3    0    0 -0.32144725920E+02 -0.30977679636E+02 -0.37930552657E+03  0.38192352968E+03  0.00000000000E+00 0. -1.
         22    1    3    3    0    0  0.79725892173E+02 -0.26844649649E+02 -0.24071067989E+03  0.25498722421E+03  0.00000000000E+00 0. -1.
</event>
<event>
 7    1  0.5950675E-006  0.1450852E+03  0.7818608E-02  0.1289237E+00
          2   -1    0    0  502    0  0.00000000000E+00  0.00000000000E+00  0.10525342492E+04  0.10525342492E+04  0.00000000000E+00 0. -1.
          1   -1    0    0  501    0 -0.00000000000E+00 -0.00000000000E+00 -0.20288120746E+03  0.20288120746E+03  0.00000000000E+00 0. -1.
         25    2    1    2    0    0 -0.43998293738E+02  0.14058419259E+02  0.78871239947E+03  0.79989138054E+03  0.12500193033E+03 0.  0.
          2    1    1    2  501    0 -0.14507403415E+03 -0.18020425214E+01 -0.12392712232E+03  0.19080789918E+03  0.00000000000E+00 0. -1.
          1    1    1    2  502    0  0.18907232789E+03 -0.12256376738E+02  0.18486776457E+03  0.26471617692E+03  0.00000000000E+00 0. -1.
         22    1    3    3    0    0 -0.23340563854E+02  0.69910719941E+02  0.43173126315E+03  0.43797736730E+03  0.00000000000E+00 0. -1.
         22    1    3    3    0    0 -0.20657729884E+02 -0.55852300682E+02  0.35698113632E+03  0.36191401324E+03  0.00000000000E+00 0. -1.
</event>
<event>
 7    1  0.5950675E-006  0.2319158E+03  0.7818608E-02  0.1148538E+00
          2   -1    0    0  502    0  0.00000000000E+00  0.00000000000E+00  0.91517088992E+03  0.91517088992E+03  0.00000000000E+00 0. -1.
          1   -1    0    0  501    0 -0.00000000000E+00 -0.00000000000E+00 -0.10353725915E+04  0.10353725915E+04  0.00000000000E+00 0. -1.
         25    2    1    2    0    0  0.38510009266E+02 -0.36234027883E+03 -0.37268082845E+03  0.53599397403E+03  0.12500016730E+03 0.  0.
          2    1    1    2  501    0 -0.72921759059E+02  0.19080559734E+03 -0.55340184947E+03  0.58989657222E+03  0.00000000000E+00 0. -1.
          1    1    1    2  502    0  0.34411749793E+02  0.17153468148E+03  0.80588097633E+03  0.82465293517E+03  0.00000000000E+00 0. -1.
         22    1    3    3    0    0  0.71236417360E+02 -0.15212014424E+03 -0.12436960781E+03  0.20900470040E+03  0.00000000000E+00 0. -1.
         22    1    3    3    0    0 -0.32726408093E+02 -0.21022013458E+03 -0.24831122064E+03  0.32698927362E+03  0.00000000000E+00 0. -1.
</event>
<event>
 7    1  0.5950675E-006  0.1112095E+03  0.7818608E-02  0.1340863E+00
          2   -1    0    0  502    0  0.00000000000E+00  0.00000000000E+00  0.53445446012E+03  0.53445446012E+03  0.00000000000E+00 0. -1.
          1   -1    0    0  501    0 -0.00000000000E+00 -0.00000000000E+00 -0.99887887526E+02  0.99887887526E+02  0.00000000000E+00 0. -1.
         25    2    1    2    0    0  0.63461250117E+02  0.31057482135E+02  0.20033664227E+03  0.24647938218E+03  0.12500167257E+03 0.  0.
          2    1    1    2  501    0 -0.97710242133E+02 -0.70066791637E+02 -0.25572513608E+02  0.12292518115E+03  0.00000000000E+00 0. -1.
          1    1    1    2  502    0  0.34248992016E+02  0.39009309503E+02  0.25980244393E+03  0.26493778431E+03  0.00000000000E+00 0. -1.
         22    1    3    3    0    0 -0.72547092594E+01 -0.17178238405E+02  0.14122878458E+03  0.14245452705E+03  0.00000000000E+00 0.  1.
         22    1    3    3    0    0  0.70715959376E+02  0.48235720540E+02  0.59107857682E+02  0.10402485514E+03  0.00000000000E+00 0.  1.
</event>
<event>
 7    1  0.5950675E-006  0.1188831E+03  0.7818608E-02  0.1272736E+00
          2   -1    0    0  502    0  0.00000000000E+00  0.00000000000E+00  0.95630541042E+03  0.95630541042E+03  0.00000000000E+00 0. -1.
          1   -1    0    0  501    0 -0.00000000000E+00 -0.00000000000E+00 -0.12092800567E+04  0.12092800567E+04  0.00000000000E+00 0. -1.
         25    2    1    2    0    0  0.11359650024E+03  0.17006645886E+03  0.82057261417E+02  0.25334731863E+03  0.12499881764E+03 0.  0.
          2    1    1    2  501    0 -0.49266177114E+02 -0.10651713124E+03 -0.11179611691E+04  0.11241041905E+04  0.00000000000E+00 0. -1.
          1    1    1    2  502    0 -0.64330323123E+02 -0.63549327618E+02  0.78292926137E+03  0.78813395804E+03  0.00000000000E+00 0. -1.
         22    1    3    3    0    0 -0.55649063800E+01 -0.15952141684E+01  0.39713763569E+02  0.40133476153E+02  0.00000000000E+00 0.  1.
         22    1    3    3    0    0  0.11916140662E+03  0.17166167303E+03  0.42343497847E+02  0.21321384248E+03  0.00000000000E+00 0.  1.
</event>
<event>
 7    1  0.5950675E-006  0.1443528E+03  0.7818608E-02  0.1308861E+00
          2   -1    0    0  502    0  0.00000000000E+00  0.00000000000E+00  0.55412715196E+03  0.55412715196E+03  0.00000000000E+00 0. -1.
          1   -1    0    0  501    0 -0.00000000000E+00 -0.00000000000E+00 -0.12407491084E+04  0.12407491084E+04  0.00000000000E+00 0. -1.
         25    2    1    2    0    0 -0.16793011807E+03  0.90990865240E+01 -0.14549841212E+03  0.25510447058E+03  0.12500074021E+03 0.  0.
          2    1    1    2  501    0  0.13385821135E+03 -0.49846725357E+02 -0.10341119799E+04  0.10439302198E+04  0.00000000000E+00 0. -1.
          1    1    1    2  502    0  0.34071906716E+02  0.40747638833E+02  0.49298843559E+03  0.49584156999E+03  0.00000000000E+00 0. -1.
         22    1    3    3    0    0 -0.15527896512E+03  0.33096527470E+02 -0.67494571465E+02  0.17251798259E+03  0.00000000000E+00 0. -1.
         22    1    3    3    0    0 -0.12651152947E+02 -0.23997440946E+02 -0.78003840651E+02  0.82586487993E+02  0.00000000000E+00 0. -1.
</event>
<event>
 7    1  0.5950675E-006  0.4480449E+02  0.7818608E-02  0.1485342E+00
          2   -1    0    0  502    0  0.00000000000E+00  0.00000000000E+00  0.25271145169E+03  0.25271145169E+03  0.00000000000E+00 0. -1.
          1   -1    0    0  501    0 -0.00000000000E+00 -0.00000000000E+00 -0.56429295935E+03  0.56429295935E+03  0.00000000000E+00 0. -1.
         25    2    1    2    0    0 -0.55073326820E+02  0.65865258136E+02 -0.44880519363E+02  0.15814724526E+03  0.12499994643E+03 0.  0.
          2    1    1    2  501    0  0.28042652027E+02 -0.33959456838E+02 -0.45948460426E+03  0.46159044249E+03  0.00000000000E+00 0. -1.
          1    1    1    2  502    0  0.27030674793E+02 -0.31905801298E+02  0.19278361597E+03  0.19726672330E+03  0.00000000000E+00 0. -1.
         22    1    3    3    0    0  0.24920474248E+02  0.24172451624E+02  0.26041017954E+02  0.43398986974E+02  0.00000000000E+00 0.  1.
         22    1    3    3    0    0 -0.79993801068E+02  0.41692806512E+02 -0.70921537317E+02  0.11474825829E+03  0.00000000000E+00 0.  1.
</event>
<event>
 7    1  0.5950675E-006  0.1105978E+03  0.7818608E-02  0.1348618E+00
          2   -1    0    0  502    0  0.00000000000E+00  0.00000000000E+00  0.40624912371E+03  0.40624912371E+03  0.00000000000E+00 0. -1.
          1   -1    0    0  501    0 -0.00000000000E+00 -0.00000000000E+00 -0.13080586866E+04  0.13080586866E+04  0.00000000000E+00 0. -1.
         25    2    1    2    0    0  0.58018670696E+02  0.14220506615E+03 -0.39869926605E+03  0.44516816064E+03  0.12500055806E+03 0.  0.
          2    1    1    2  501    0 -0.37227180071E+02 -0.98022789460E+02 -0.88144863101E+03  0.88766323530E+03  0.00000000000E+00 0. -1.
          1    1    1    2  502    0 -0.20791490625E+02 -0.44182276691E+02  0.37833833414E+03  0.38147641439E+03  0.00000000000E+00 0. -1.
         22    1    3    3    0    0 -0.49564187981E+01  0.66779490885E+01  0.82086472241E+01  0.11685160700E+02  0.00000000000E+00 0. -1.
         22    1    3    3    0    0  0.62975089494E+02  0.13552711706E+03 -0.40690791327E+03  0.43348299994E+03  0.00000000000E+00 0. -1.
</event>
<event>
 7    1  0.5950675E-006  0.5888830E+02  0.7818608E-02  0.1541264E+00
          2   -1    0    0  502    0  0.00000000000E+00  0.00000000000E+00  0.64346858875E+02  0.64346858875E+02  0.00000000000E+00 0. -1.
          1   -1    0    0  501    0 -0.00000000000E+00 -0.00000000000E+00 -0.63839825560E+03  0.63839825560E+03  0.00000000000E+00 0. -1.
         25    2    1    2    0    0  0.48156187304E+02 -0.79790902564E+01 -0.17954779456E+03  0.22415789103E+03  0.12500666111E+03 0.  0.
          2    1    1    2  501    0  0.44835731471E+01 -0.21347013268E+02 -0.41451898023E+03  0.41509249858E+03  0.00000000000E+00 0. -1.
          1    1    1    2  502    0 -0.52639760451E+02  0.29326103524E+02  0.20015378058E+02  0.63494724875E+02  0.00000000000E+00 0. -1.
         22    1    3    3    0    0 -0.29002128274E+02  0.26164826860E+02 -0.10328693817E+03  0.11042605311E+03  0.00000000000E+00 0. -1.
         22    1    3    3    0    0  0.77158315577E+02 -0.34143917116E+02 -0.76260856385E+02  0.11373183791E+03  0.00000000000E+00 0. -1.
</event>
<event>
 7    1  0.5950675E-006  0.1793820E+03  0.7818608E-02  0.1328252E+00
          2   -1    0    0  502    0  0.00000000000E+00  0.00000000000E+00  0.15792903917E+04  0.15792903917E+04  0.00000000000E+00 0. -1.
          1   -1    0    0  501    0 -0.00000000000E+00 -0.00000000000E+00 -0.12320437647E+03  0.12320437647E+03  0.00000000000E+00 0. -1.
         25    2    1    2    0    0  0.17918223900E+03  0.83158924861E+02  0.13596697288E+03  0.27042926615E+03  0.12499315469E+03 0.  0.
          2    1    1    2  501    0 -0.14359631471E+03 -0.88122535659E+02  0.71654890536E+02  0.18308442377E+03  0.00000000000E+00 0. -1.
          1    1    1    2  502    0 -0.35585924290E+02  0.49636107986E+01  0.12484641518E+04  0.12489810782E+04  0.00000000000E+00 0. -1.
         22    1    3    3    0    0  0.13545228632E+03  0.74449778931E+02  0.32753777700E+02  0.15799652339E+03  0.00000000000E+00 0.  1.
         22    1    3    3    0    0  0.43729952686E+02  0.87091459294E+01  0.10321319518E+03  0.11243274275E+03  0.00000000000E+00 0.  1.
</event>
<event>
 7    1  0.5950675E-006  0.5016868E+02  0.7818608E-02  0.1477128E+00
          2   -1    0    0  502    0  0.00000000000E+00  0.00000000000E+00  0.15669804816E+04  0.15669804816E+04  0.00000000000E+00 0. -1.
          1   -1    0    0  501    0 -0.00000000000E+00 -0.00000000000E+00 -0.81416755438E+02  0.81416755438E+02  0.00000000000E+00 0. -1.
         25    2    1    2    0    0  0.69286380169E+02 -0.77204666563E+01  0.28537630889E+03  0.31925827987E+03  0.12500401398E+03 0.  0.
          2    1    1    2  501    0 -0.38160892642E+02  0.32157893899E+02 -0.54460584908E+02  0.73867037140E+02  0.00000000000E+00 0. -1.
          1    1    1    2  502    0 -0.31125487527E+02 -0.24437427243E+02  0.12546480022E+04  0.12552719200E+04  0.00000000000E+00 0. -1.
         22    1    3    3    0    0  0.84846011488E+02  0.35173508000E+01  0.93040882712E+02  0.12596754851E+03  0.00000000000E+00 0. -1.
         22    1    3    3    0    0 -0.15559631319E+02 -0.11237817456E+02  0.19233542617E+03  0.19329073136E+03  0.00000000000E+00 0. -1.
</event>
<event>
 7    1  0.5950675E-006  0.5182504E+02  0.7818608E-02  0.1540093E+00
          2   -1    0    0  502    0  0.00000000000E+00  0.00000000000E+00  0.79837419435E+02  0.79837419435E+02  0.00000000000E+00 0. -1.
          1   -1    0    0  501    0 -0.00000000000E+00 -0.00000000000E+00 -0.83443667176E+03  0.83443667176E+03  0.00000000000E+00 0. -1.
         25    2    1    2    0    0  0.11735580815E+02  0.35452273188E+02 -0.19663987683E+03  0.23598191028E+03  0.12500253314E+03 0.  0.
          2    1    1    2  501    0 -0.18368166777E+02  0.16922304985E+02 -0.60623821542E+03  0.60675244358E+03  0.00000000000E+00 0. -1.
          1    1    1    2  502    0  0.66325859621E+01 -0.52374578172E+02  0.48278839913E+02  0.71539737340E+02  0.00000000000E+00 0. -1.
         22    1    3    3    0    0 -0.17052110548E+02 -0.17569563060E+02 -0.16695686308E+03  0.16874257954E+03  0.00000000000E+00 0.  1.
         22    1    3    3    0    0  0.28787691363E+02  0.53021836248E+02 -0.29683013741E+02  0.67239330736E+02  0.00000000000E+00 0.  1.
</event>
<event>
 7    1  0.5950675E-006  0.1766508E+03  0.7818608E-02  0.1340621E+00
          2   -1    0    0  502    0  0.00000000000E+00  0.00000000000E+00  0.19423988501E+04  0.19423988501E+04  0.00000000000E+00 0. -1.
          1   -1    0    0  501    0 -0.00000000000E+00 -0.00000000000E+00 -0.78665241162E+03  0.78665241162E+03  0.00000000000E+00 0. -1.
         25    2    1    2    0    0  0.10445493415E+03 -0.18040867773E+03 -0.40642666175E+02  0.24644759178E+03  0.12500585951E+03 0.  0.
          2    1    1    2  501    0 -0.16067762861E+02  0.28535723119E+02 -0.63849019397E+03  0.63932948336E+03  0.00000000000E+00 0. -1.
          1    1    1    2  502    0 -0.88387171286E+02  0.15187295461E+03  0.18348792986E+04  0.18432741866E+04  0.00000000000E+00 0. -1.
         22    1    3    3    0    0 -0.23256900547E+02 -0.64465865148E+02  0.27313271019E+01  0.68587107682E+02  0.00000000000E+00 0. -1.
         22    1    3    3    0    0  0.12771183469E+03 -0.11594281259E+03 -0.43373993277E+02  0.17786048410E+03  0.00000000000E+00 0. -1.
</event>
<event>
 7    1  0.5950675E-006  0.1782176E+03  0.7818608E-02  0.1316868E+00
          2   -1    0    0  502    0  0.00000000000E+00  0.00000000000E+00  0.12204534202E+04  0.12204534202E+04  0.00000000000E+00 0. -1.
          1   -1    0    0  501    0 -0.00000000000E+00 -0.00000000000E+00 -0.31442058858E+03  0.31442058858E+03  0.00000000000E+00 0. -1.
         25    2    1    2    0    0 -0.20676159920E+03 -0.40816775904E+02 -0.78816538535E+02  0.25739549111E+03  0.12499609593E+03 0.  0.
          2    1    1    2  501    0  0.30460580310E+02  0.25957644685E+02 -0.13650584460E+03  0.14225150923E+03  0.00000000000E+00 0. -1.
          1    1    1    2  502    0  0.17630101889E+03  0.14859131219E+02  0.11213552148E+04  0.11352270085E+04  0.00000000000E+00 0. -1.
         22    1    3    3    0    0 -0.21047150307E+03 -0.59422209461E+02 -0.52428679746E+02  0.22489557364E+03  0.00000000000E+00 0. -1.
         22    1    3    3    0    0  0.37099038656E+01  0.18605433557E+02 -0.26387858789E+02  0.32499917477E+02  0.00000000000E+00 0. -1.
</event>
<event>
 7    1  0.5950675E-006  0.1117939E+03  0.7818608E-02  0.1420821E+00
          2   -1    0    0  502    0  0.00000000000E+00  0.00000000000E+00  0.23842540802E+03  0.23842540802E+03  0.00000000000E+00 0. -1.
          1   -1    0    0  501    0 -0.00000000000E+00 -0.00000000000E+00 -0.92329234958E+03  0.92329234958E+03  0.00000000000E+00 0. -1.
         25    2    1    2    0    0 -0.22172797655E+02  0.13498196242E+03  0.35550795920E+02  0.18868038494E+03  0.12499866174E+03 0.  0.
          2    1    1    2  501    0  0.24744845321E+02 -0.10819619142E+03 -0.84160831099E+03  0.84889532472E+03  0.00000000000E+00 0. -1.
          1    1    1    2  502    0 -0.25720476661E+01 -0.26785771000E+02  0.12119057351E+03  0.12414204793E+03  0.00000000000E+00 0. -1.
         22    1    3    3    0    0 -0.29590102347E+02  0.36572464498E+02 -0.42079994967E+02  0.63117709819E+02  0.00000000000E+00 0. -1.
         22    1    3    3    0    0  0.74173046925E+01  0.98409497921E+02  0.77630790887E+02  0.12556267512E+03  0.00000000000E+00 0. -1.
</event>
<event>
 7    1  0.5950675E-006  0.3475397E+02  0.7818608E-02  0.1567361E+00
          2   -1    0    0  502    0  0.00000000000E+00  0.00000000000E+00  0.61881186111E+02  0.61881186111E+02  0.00000000000E+00 0. -1.
          1   -1    0    0  501    0 -0.00000000000E+00 -0.00000000000E+00 -0.13646973797E+04  0.13646973797E+04  0.00000000000E+00 0. -1.
         25    2    1    2    0    0 -0.76475155257E+00 -0.10119881350E+02 -0.37346389974E+03  0.39395979694E+03  0.12500416133E+03 0.  0.
          2    1    1    2  501    0  0.29620018847E+02 -0.10072822287E+02 -0.97469952175E+03  0.97520149968E+03  0.00000000000E+00 0. -1.
          1    1    1    2  502    0 -0.28855267295E+02  0.20192703637E+02  0.45347227869E+02  0.57417269233E+02  0.00000000000E+00 0. -1.
         22    1    3    3    0    0  0.12648385898E+02 -0.20134897902E+02 -0.39943276889E+01  0.24111209696E+02  0.00000000000E+00 0. -1.
         22    1    3    3    0    0 -0.13413137450E+02  0.10015016552E+02 -0.36946957205E+03  0.36984858724E+03  0.00000000000E+00 0. -1.
</event>
<event>
 7    1  0.5950675E-006  0.1743920E+03  0.7818608E-02  0.1326725E+00
          2   -1    0    0  502    0  0.00000000000E+00  0.00000000000E+00  0.41757865729E+03  0.41757865729E+03  0.00000000000E+00 0. -1.
          1   -1    0    0  501    0 -0.00000000000E+00 -0.00000000000E+00 -0.27978529301E+03  0.27978529301E+03  0.00000000000E+00 0. -1.
         25    2    1    2    0    0  0.12165682738E+03  0.11027748067E+03  0.21320694843E+02  0.20745618015E+03  0.12498795247E+03 0.  0.
          2    1    1    2  501    0 -0.15406148897E+03 -0.91483560127E+02 -0.14206971196E+03  0.22866566689E+03  0.00000000000E+00 0. -1.
          1    1    1    2  502    0  0.32404661585E+02 -0.18793920542E+02  0.25854238139E+03  0.26124210326E+03  0.00000000000E+00 0. -1.
         22    1    3    3    0    0  0.33986868850E+02  0.93195447153E+02 -0.31014083480E+02  0.10393446011E+03  0.00000000000E+00 0.  1.
         22    1    3    3    0    0  0.87669958533E+02  0.17082033517E+02  0.52334778322E+02  0.10352172004E+03  0.00000000000E+00 0.  1.
</event>
<event>
 7    1  0.5950675E-006  0.5770982E+02  0.7818608E-02  0.1496285E+00
          2   -1    0    0  502    0  0.00000000000E+00  0.00000000000E+00  0.12491929144E+03  0.12491929144E+03  0.00000000000E+00 0. -1.
          1   -1    0    0  501    0 -0.00000000000E+00 -0.00000000000E+00 -0.18616923260E+04  0.18616923260E+04  0.00000000000E+00 0. -1.
         25    2    1    2    0    0  0.29379039254E+02  0.49068623657E+02 -0.34048216764E+03  0.36718495230E+03  0.12500329969E+03 0.  0.
          2    1    1    2  501    0 -0.28765756044E+02  0.88117999215E+01 -0.15001899809E+04  0.15004916179E+04  0.00000000000E+00 0. -1.
          1    1    1    2  502    0 -0.61328321054E+00 -0.57880423579E+02  0.10389911406E+03  0.11893504720E+03  0.00000000000E+00 0. -1.
         22    1    3    3    0    0 -0.21004572578E+01 -0.40512382892E+02 -0.75563725132E+02  0.85764454432E+02  0.00000000000E+00 0. -1.
         22    1    3    3    0    0  0.31479496512E+02  0.89581006549E+02 -0.26491844251E+03  0.28142049786E+03  0.00000000000E+00 0. -1.
</event>
<event>
 7    1  0.5950675E-006  0.1023354E+03  0.7818608E-02  0.1363678E+00
          2   -1    0    0  502    0  0.00000000000E+00  0.00000000000E+00  0.20002791179E+02  0.20002791179E+02  0.00000000000E+00 0. -1.
          1   -1    0    0  501    0 -0.00000000000E+00 -0.00000000000E+00 -0.27256582386E+04  0.27256582386E+04  0.00000000000E+00 0. -1.
         25    2    1    2    0    0  0.16517295773E+02  0.11279189930E+03 -0.16725713438E+04  0.16811050800E+04  0.12499822568E+03 0.  0.
          2    1    1    2  501    0  0.26590229796E+02 -0.95450245947E+02 -0.10058077923E+04  0.10106765580E+04  0.00000000000E+00 0. -1.
          1    1    1    2  502    0 -0.43107525569E+02 -0.17341653355E+02 -0.27276311379E+02  0.53879391832E+02  0.00000000000E+00 0. -1.
         22    1    3    3    0    0  0.46307386618E+02  0.12350541974E+03 -0.14883564458E+04  0.14941897043E+04  0.00000000000E+00 0.  1.
         22    1    3    3    0    0 -0.29790090845E+02 -0.10713520436E+02 -0.18421489801E+03  0.18691537572E+03  0.00000000000E+00 0.  1.
</event>
<event>
 7    1  0.5950675E-006  0.1257521E+03  0.7818608E-02  0.1378438E+00
          2   -1    0    0  502    0  0.00000000000E+00  0.00000000000E+00  0.11575422367E+04  0.11575422367E+04  0.00000000000E+00 0. -1.
          1   -1    0    0  501    0 -0.00000000000E+00 -0.00000000000E+00 -0.12877568692E+03  0.12877568692E+03  0.00000000000E+00 0. -1.
         25    2    1    2    0    0  0.12247419815E+03 -0.70808848412E+00  0.31401247945E+03  0.35948455850E+03  0.12499951980E+03 0.  0.
          2    1    1    2  501    0 -0.12186325716E+03  0.34172473719E+02 -0.67788949751E+02  0.14357490420E+03  0.00000000000E+00 0. -1.
          1    1    1    2  502    0 -0.61094098146E+00 -0.33464385235E+02  0.78254302012E+03  0.78325846097E+03  0.00000000000E+00 0. -1.
         22    1    3    3    0    0  0.19715953628E+01 -0.11374415622E+01  0.17701971596E+03  0.17703434921E+03  0.00000000000E+00 0.  1.
         22    1    3    3    0    0  0.12050260278E+03  0.42935307806E+00  0.13699276349E+03  0.18245020929E+03  0.00000000000E+00 0.  1.
</event>
<event>
 7    1  0.5950675E-006  0.1096426E+03  0.7818608E-02  0.1308220E+00
          2   -1    0    0  502    0  0.00000000000E+00  0.00000000000E+00  0.13599475424E+04  0.13599475424E+04  0.00000000000E+00 0. -1.
          1   -1    0    0  501    0 -0.00000000000E+00 -0.00000000000E+00 -0.18173556775E+03  0.18173556775E+03  0.00000000000E+00 0. -1.
         25    2    1    2    0    0  0.78117533738E+02  0.13705174881E+03  0.10284349412E+03  0.22602502999E+03  0.12499999587E+03 0.  0.
          2    1    1    2  501    0  0.67518783885E+01 -0.70015282810E+02 -0.10716591153E+03  0.12818837811E+03  0.00000000000E+00 0. -1.
          1    1    1    2  502    0 -0.84869412126E+02 -0.67036465996E+02  0.11825343920E+04  0.11874697020E+04  0.00000000000E+00 0. -1.
         22    1    3    3    0    0  0.90806834201E+02  0.44754543038E+02  0.82664968511E+02  0.13069945401E+03  0.00000000000E+00 0.  1.
         22    1    3    3    0    0 -0.12689300463E+02  0.92297205768E+02  0.20178525614E+02  0.95325575974E+02  0.00000000000E+00 0.  1.
</event>
<event>
 7    1  0.5950675E-006  0.9777484E+02  0.7818608E-02  0.1426758E+00
          2   -1    0    0  502    0  0.00000000000E+00  0.00000000000E+00  0.13502920552E+04  0.13502920552E+04  0.00000000000E+00 0. -1.
          1   -1    0    0  501    0 -0.00000000000E+00 -0.00000000000E+00 -0.36746151709E+03  0.36746151709E+03  0.00000000000E+00 0. -1.
         25    2    1    2    0    0  0.92115135033E+02 -0.56748417731E+01  0.16684793903E+03  0.22799199107E+03  0.12499884520E+03 0.  0.
          2    1    1    2  501    0 -0.15376744283E+00 -0.29400896809E+02 -0.33414213644E+03  0.33543315836E+03  0.00000000000E+00 0. -1.
          1    1    1    2  502    0 -0.91961367590E+02  0.35075738582E+02  0.11501247356E+04  0.11543284229E+04  0.00000000000E+00 0. -1.
         22    1    3    3    0    0  0.26559127949E+01 -0.51384001207E+02  0.34981612867E+02  0.62218025455E+02  0.00000000000E+00 0. -1.
         22    1    3    3    0    0  0.89459222238E+02  0.45709159434E+02  0.13186632617E+03  0.16577396562E+03  0.00000000000E+00 0. -1.
</event>
<event>
 7    1  0.5950675E-006  0.6880427E+02  0.7818608E-02  0.1400640E+00
          2   -1    0    0  502    0  0.00000000000E+00  0.00000000000E+00  0.89512634236E+03  0.89512634236E+03  0.00000000000E+00 0. -1.
          1   -1    0    0  501    0 -0.00000000000E+00 -0.00000000000E+00 -0.62784930645E+03  0.62784930645E+03  0.00000000000E+00 0. -1.
         25    2    1    2    0    0  0.12726325437E+02 -0.42545334829E+02  0.98397150969E+02  0.16516260188E+03  0.12499848345E+03 0.  0.
          2    1    1    2  501    0 -0.47537664574E+02 -0.18936972122E+02 -0.59172512533E+03  0.59393355050E+03  0.00000000000E+00 0. -1.
          1    1    1    2  502    0  0.34811339137E+02  0.61482306951E+02  0.76060501028E+03  0.76387949643E+03  0.00000000000E+00 0. -1.
         22    1    3    3    0    0  0.48810162408E+02 -0.67485982916E+01 -0.54191826803E+01  0.49571595436E+02  0.00000000000E+00 0. -1.
         22    1    3    3    0    0 -0.36083836971E+02 -0.35796736537E+02  0.10381633365E+03  0.11559100644E+03  0.00000000000E+00 0. -1.
</event>
<event>
 7    1  0.5950675E-006  0.2241799E+02  0.7818608E-02  0.1717479E+00
          2   -1    0    0  502    0  0.00000000000E+00  0.00000000000E+00  0.18877247413E+04  0.18877247413E+04  0.00000000000E+00 0. -1.
          1   -1    0    0  501    0 -0.00000000000E+00 -0.00000000000E+00 -0.15382777998E+02  0.15382777998E+02  0.00000000000E+00 0. -1.
         25    2    1    2    0    0  0.62818792598E+01  0.28204982641E+01  0.56833206348E+03  0.58195861768E+03  0.12500832407E+03 0.  0.
          2    1    1    2  501    0 -0.53686556526E+01  0.19860289354E+02  0.40216850398E+01  0.20962526262E+02  0.00000000000E+00 0. -1.
          1    1    1    2  502    0 -0.91322360729E+00 -0.22680787618E+02  0.12999882148E+04  0.13001863753E+04  0.00000000000E+00 0. -1.
         22    1    3    3    0    0 -0.88011768150E+01  0.55309381390E+02  0.42322718643E+03  0.42691666601E+03  0.00000000000E+00 0.  1.
         22    1    3    3    0    0  0.15083056075E+02 -0.52488883126E+02  0.14510487706E+03  0.15504195167E+03  0.00000000000E+00 0.  1.
</event>
<event>
 7    1  0.6011573E-006  0.7228822E+02  0.7818608E-02  0.1425425E+00
          2   -1    0    0  502    0  0.00000000000E+00  0.00000000000E+00  0.21888474633E+04  0.21888474633E+04  0.00000000000E+00 0. -1.
          1   -1    0    0  501    0 -0.00000000000E+00 -0.00000000000E+00 -0.17990700832E+04  0.17990700832E+04  0.00000000000E+00 0. -1.
         25    2    1    2    0    0  0.77630433400E+02 -0.41520639854E+02 -0.77735588827E+02  0.17151399344E+03  0.12499512171E+03 0.  0.
          2    1    1    2  501    0 -0.53935552384E+01  0.39809651470E+02 -0.16735947923E+04  0.16740768881E+04  0.00000000000E+00 0. -1.
          1    1    1    2  502    0 -0.72236878162E+02  0.17109883844E+01  0.21411077612E+04  0.21423266649E+04  0.00000000000E+00 0. -1.
         22    1    3    3    0    0 -0.61457002728E+01  0.14537563361E+02  0.23722989835E+02  0.28493694514E+02  0.00000000000E+00 0.  1.
         22    1    3    3    0    0  0.83776133673E+02 -0.56058203215E+02 -0.10145857866E+03  0.14302029893E+03  0.00000000000E+00 0.  1.
</event>
<event>
 7    1  0.5950675E-006  0.3742021E+02  0.7818608E-02  0.1601860E+00
          2   -1    0    0  502    0  0.00000000000E+00  0.00000000000E+00  0.11039731020E+04  0.11039731020E+04  0.00000000000E+00 0. -1.
          1   -1    0    0  501    0 -0.00000000000E+00 -0.00000000000E+00 -0.10135299838E+02  0.10135299838E+02  0.00000000000E+00 0. -1.
         25    2    1    2    0    0 -0.28831783735E+01 -0.58761947644E+02  0.58167139392E+03  0.59785327638E+03  0.12500260143E+03 0.  0.
          2    1    1    2  501    0  0.24574805737E+01  0.23382863458E+02  0.10730534245E+03  0.10985096282E+03  0.00000000000E+00 0. -1.
          1    1    1    2  502    0  0.42569779980E+00  0.35379084187E+02  0.40486106584E+03  0.40640416269E+03  0.00000000000E+00 0. -1.
         22    1    3    3    0    0 -0.27368991215E+02  0.29429421955E+02  0.10406121654E+03  0.11155218216E+03  0.00000000000E+00 0.  1.
         22    1    3    3    0    0  0.24485812842E+02 -0.88191369599E+02  0.47761017738E+03  0.48630109422E+03  0.00000000000E+00 0.  1.
</event>
<event>
 7    1  0.5950675E-006  0.1518139E+03  0.7818608E-02  0.1342736E+00
          2   -1    0    0  502    0  0.00000000000E+00  0.00000000000E+00  0.23259224229E+03  0.23259224229E+03  0.00000000000E+00 0. -1.
          1   -1    0    0  501    0 -0.00000000000E+00 -0.00000000000E+00 -0.20579932469E+03  0.20579932469E+03  0.00000000000E+00 0. -1.
         25    2    1    2    0    0 -0.38557793701E+02 -0.12136654230E+03  0.60082977372E+02  0.18828191592E+03  0.12499429846E+03 0.  0.
          2    1    1    2  501    0  0.32197403735E+02  0.15823817524E+03 -0.87943763268E+02  0.18387522511E+03  0.00000000000E+00 0. -1.
          1    1    1    2  502    0  0.63603899656E+01 -0.36871632940E+02  0.54653703495E+02  0.66234425957E+02  0.00000000000E+00 0. -1.
         22    1    3    3    0    0 -0.22542673642E+02  0.11793940220E+01 -0.28404428454E+02  0.36281877860E+02  0.00000000000E+00 0.  1.
         22    1    3    3    0    0 -0.16015120058E+02 -0.12254593632E+03  0.88487405826E+02  0.15200003806E+03  0.00000000000E+00 0.  1.
</event>
<event>
 7    1  0.5950675E-006  0.1713382E+03  0.7818608E-02  0.1345382E+00
          2   -1    0    0  502    0  0.00000000000E+00  0.00000000000E+00  0.73413011258E+03  0.73413011258E+03  0.00000000000E+00 0. -1.
          1   -1    0    0  501    0 -0.00000000000E+00 -0.00000000000E+00 -0.11129330070E+04  0.11129330070E+04  0.00000000000E+00 0. -1.
         25    2    1    2    0    0 -0.12604289520E+03 -0.10197232156E+03  0.33535633759E+03  0.39290364505E+03  0.12499694132E+03 0.  0.
          2    1    1    2  501    0  0.11110119540E+03  0.13072803864E+03 -0.10766448756E+04  0.10902281797E+04  0.00000000000E+00 0. -1.
          1    1    1    2  502    0  0.14941699802E+02 -0.28755717083E+02  0.36248564350E+03  0.36393129489E+03  0.00000000000E+00 0. -1.
         22    1    3    3    0    0 -0.41354326769E+02  0.26664613747E+02  0.62068531813E+02  0.79206594487E+02  0.00000000000E+00 0.  1.
         22    1    3    3    0    0 -0.84688568434E+02 -0.12863693530E+03  0.27328780577E+03  0.31369705056E+03  0.00000000000E+00 0.  1.
</event>
<event>
 7    1  0.5950675E-006  0.5707029E+02  0.7818608E-02  0.1475389E+00
          2   -1    0    0  502    0  0.00000000000E+00  0.00000000000E+00  0.13837905740E+04  0.13837905740E+04  0.00000000000E+00 0. -1.
          1   -1    0    0  501    0 -0.00000000000E+00 -0.00000000000E+00 -0.77519659671E+02  0.77519659671E+02  0.00000000000E+00 0. -1.
         25    2    1    2    0    0  0.31258606070E+02 -0.17396560312E+02  0.29883836617E+02  0.13340217049E+03  0.12499341837E+03 0.  0.
          2    1    1    2  501    0 -0.53786430255E+02  0.44468388975E+02  0.22211029941E+02  0.73237610206E+02  0.00000000000E+00 0. -1.
          1    1    1    2  502    0  0.22527824186E+02 -0.27071828663E+02  0.12541760478E+04  0.12546704530E+04  0.00000000000E+00 0. -1.
         22    1    3    3    0    0 -0.42755703019E+02  0.12999020879E+02  0.29208245117E+02  0.53386761161E+02  0.00000000000E+00 0. -1.
         22    1    3    3    0    0  0.74014309088E+02 -0.30395581191E+02  0.67559149953E+00  0.80015409326E+02  0.00000000000E+00 0. -1.
</event>
<event>
 7    1  0.5950675E-006  0.1095172E+03  0.7818608E-02  0.1451668E+00
          2   -1    0    0  502    0  0.00000000000E+00  0.00000000000E+00  0.15660743041E+03  0.15660743041E+03  0.00000000000E+00 0. -1.
          1   -1    0    0  501    0 -0.00000000000E+00 -0.00000000000E+00 -0.38198592040E+03  0.38198592040E+03  0.00000000000E+00 0. -1.
         25    2    1    2    0    0 -0.11425566737E+03  0.57668685011E+02 -0.61206414470E+02  0.18908275202E+03  0.12500410865E+03 0.  0.
          2    1    1    2  501    0  0.95860184987E+02 -0.45997246676E+02 -0.24432084445E+03  0.26645374233E+03  0.00000000000E+00 0. -1.
          1    1    1    2  502    0  0.18395482383E+02 -0.11671438335E+02  0.80148768930E+02  0.83056856465E+02  0.00000000000E+00 0. -1.
         22    1    3    3    0    0  0.27405890709E+02  0.99941717953E+01 -0.62660573783E+01  0.29836718830E+02  0.00000000000E+00 0.  1.
         22    1    3    3    0    0 -0.14166155808E+03  0.47674513215E+02 -0.54940357092E+02  0.15924603319E+03  0.00000000000E+00 0.  1.
</event>
<event>
 7    1  0.5950675E-006  0.4320740E+02  0.7818608E-02  0.1604219E+00
          2   -1    0    0  502    0  0.00000000000E+00  0.00000000000E+00  0.36113997572E+04  0.36113997572E+04  0.00000000000E+00 0. -1.
          1   -1    0    0  501    0 -0.00000000000E+00 -0.00000000000E+00 -0.35287518878E+02  0.35287518878E+02  0.00000000000E+00 0. -1.
         25    2    1    2    0    0 -0.32094164671E+02  0.52086124800E+02  0.20651254659E+04  0.20698093530E+04  0.12499827259E+03 0.  0.
          2    1    1    2  501    0  0.10460404314E+02 -0.17136195929E+02 -0.29587192225E+02  0.35755715810E+02  0.00000000000E+00 0. -1.
          1    1    1    2  502    0  0.21633760357E+02 -0.34949928871E+02  0.15405739647E+04  0.15411222073E+04  0.00000000000E+00 0. -1.
         22    1    3    3    0    0 -0.33321920979E+02 -0.34764425605E+02  0.51292646739E+03  0.51518198402E+03  0.00000000000E+00 0.  1.
         22    1    3    3    0    0  0.12277563080E+01  0.86850550405E+02  0.15521989985E+04  0.15546273690E+04  0.00000000000E+00 0.  1.
</event>
<event>
 7    1  0.5950675E-006  0.3768925E+02  0.7818608E-02  0.1533733E+00
          2   -1    0    0  502    0  0.00000000000E+00  0.00000000000E+00  0.16686671243E+04  0.16686671243E+04  0.00000000000E+00 0. -1.
          1   -1    0    0  501    0 -0.00000000000E+00 -0.00000000000E+00 -0.10241816005E+02  0.10241816005E+02  0.00000000000E+00 0. -1.
         25    2    1    2    0    0 -0.21662144700E+02  0.55631924936E+02  0.75580645358E+03  0.76839680929E+03  0.12500440654E+03 0.  0.
          2    1    1    2  501    0  0.29887418938E+02 -0.19707374086E+02  0.87226464698E+02  0.94287297913E+02  0.00000000000E+00 0. -1.
          1    1    1    2  502    0 -0.82252742372E+01 -0.35924550850E+02  0.81539238999E+03  0.81622483309E+03  0.00000000000E+00 0. -1.
         22    1    3    3    0    0 -0.23239032901E+02  0.38084245757E+02  0.74765349927E+03  0.74898345602E+03  0.00000000000E+00 0. -1.
         22    1    3    3    0    0  0.15768882006E+01  0.17547679178E+02  0.81529543182E+01  0.19413353267E+02  0.00000000000E+00 0. -1.
</event>
<event>
 7    1  0.5950675E-006  0.6272698E+02  0.7818608E-02  0.1479050E+00
          2   -1    0    0  502    0  0.00000000000E+00  0.00000000000E+00  0.11253298245E+04  0.11253298245E+04  0.00000000000E+00 0. -1.
          1   -1    0    0  501    0 -0.00000000000E+00 -0.00000000000E+00 -0.13143980853E+03  0.13143980853E+03  0.00000000000E+00 0. -1.
         25    2    1    2    0    0  0.43886861508E+02  0.38517877900E+02  0.67958610335E+03  0.69345005351E+03  0.12500408518E+03 0.  0.
          2    1    1    2  501    0 -0.61552986087E+02 -0.12774538917E+02 -0.11597081246E+03  0.13191356368E+03  0.00000000000E+00 0. -1.
          1    1    1    2  502    0  0.17666124579E+02 -0.25743338983E+02  0.43027472512E+03  0.43140601588E+03  0.00000000000E+00 0. -1.
         22    1    3    3    0    0  0.38885860915E+02 -0.41063660447E+02  0.23024952775E+03  0.23709318720E+03  0.00000000000E+00 0. -1.
         22    1    3    3    0    0  0.50010005927E+01  0.79581538347E+02  0.44933657560E+03  0.45635686631E+03  0.00000000000E+00 0. -1.
</event>
<event>
 7    1  0.5950675E-006  0.2929447E+03  0.7818608E-02  0.1176983E+00
          2   -1    0    0  502    0  0.00000000000E+00  0.00000000000E+00  0.30539497198E+04  0.30539497198E+04  0.00000000000E+00 0. -1.
          1   -1    0    0  501    0 -0.00000000000E+00 -0.00000000000E+00 -0.20542292492E+03  0.20542292492E+03  0.00000000000E+00 0. -1.
         25    2    1    2    0    0 -0.28486068589E+03 -0.22049421490E+03  0.67825642552E+03  0.77808719488E+03  0.12499837960E+03 0.  0.
          2    1    1    2  501    0  0.18557116158E+03  0.21236349400E+03 -0.25579402957E+02  0.28317700375E+03  0.00000000000E+00 0. -1.
          1    1    1    2  502    0  0.99289524306E+02  0.81307208980E+01  0.21958497723E+04  0.21981084461E+04  0.00000000000E+00 0. -1.
         22    1    3    3    0    0 -0.22030768466E+03 -0.10675096830E+03  0.50300028722E+03  0.55941088128E+03  0.00000000000E+00 0. -1.
         22    1    3    3    0    0 -0.64553001224E+02 -0.11374324660E+03  0.17525613830E+03  0.21867631359E+03  0.00000000000E+00 0. -1.
</event>
<event>
 7    1  0.5950675E-006  0.1139675E+03  0.7818608E-02  0.1427525E+00
          2   -1    0    0  502    0  0.00000000000E+00  0.00000000000E+00  0.10843066175E+04  0.10843066175E+04  0.00000000000E+00 0. -1.
          1   -1    0    0  501    0 -0.00000000000E+00 -0.00000000000E+00 -0.74818969066E+03  0.74818969066E+03  0.00000000000E+00 0. -1.
         25    2    1    2    0    0 -0.52980049333E+02  0.12482331281E+03 -0.15064176148E+03  0.23812933321E+03  0.12499957593E+03 0.  0.
          2    1    1    2  501    0  0.18971192412E+02 -0.16399744830E+02 -0.55041557866E+03  0.55098653976E+03  0.00000000000E+00 0. -1.
          1    1    1    2  502    0  0.34008856921E+02 -0.10842356798E+03  0.10371742670E+04  0.10433804352E+04  0.00000000000E+00 0. -1.
         22    1    3    3    0    0 -0.76781412783E+01  0.91852889709E+02 -0.15667360299E+03  0.18177602998E+03  0.00000000000E+00 0.  1.
         22    1    3    3    0    0 -0.45301908054E+02  0.32970423100E+02  0.60318415049E+01  0.56353303228E+02  0.00000000000E+00 0.  1.
</event>
<event>
 7    1  0.5950675E-006  0.4697862E+02  0.7818608E-02  0.1552403E+00
          2   -1    0    0  502    0  0.00000000000E+00  0.00000000000E+00  0.39114487258E+03  0.39114487258E+03  0.00000000000E+00 0. -1.
          1   -1    0    0  501    0 -0.00000000000E+00 -0.00000000000E+00 -0.72181535789E+02  0.72181535789E+02  0.00000000000E+00 0. -1.
         25    2    1    2    0    0  0.18908095498E+02  0.30068018093E+02  0.10754154117E+03  0.16867624412E+03  0.12499956186E+03 0.  0.
          2    1    1    2  501    0 -0.43179807122E+02 -0.22423750261E+02 -0.26478055585E+02  0.55393210292E+02  0.00000000000E+00 0. -1.
          1    1    1    2  502    0  0.24271711624E+02 -0.76442678320E+01  0.23789985120E+03  0.23925695396E+03  0.00000000000E+00 0. -1.
         22    1    3    3    0    0 -0.19063540562E+02  0.69705354021E+02  0.78039454193E+02  0.10635982027E+03  0.00000000000E+00 0.  1.
         22    1    3    3    0    0  0.37971636061E+02 -0.39637335928E+02  0.29502086982E+02  0.62316423845E+02  0.00000000000E+00 0.  1.
</event>
<event>
 7    1  0.5950675E-006  0.7833224E+02  0.7818608E-02  0.1421199E+00
          2   -1    0    0  502    0  0.00000000000E+00  0.00000000000E+00  0.31956948070E+03  0.31956948070E+03  0.00000000000E+00 0. -1.
          1   -1    0    0  501    0 -0.00000000000E+00 -0.00000000000E+00 -0.22971395227E+03  0.22971395227E+03  0.00000000000E+00 0. -1.
         25    2    1    2    0    0  0.58480282466E+01 -0.86361868019E+02  0.18903976484E+02  0.15320784753E+03  0.12499084981E+03 0.  0.
          2    1    1    2  501    0 -0.39301857230E+02  0.67729381525E+02 -0.15139939308E+03  0.17045140460E+03  0.00000000000E+00 0. -1.
          1    1    1    2  502    0  0.33453828983E+02  0.18632486494E+02  0.22235094503E+03  0.22562418084E+03  0.00000000000E+00 0. -1.
         22    1    3    3    0    0  0.37875568172E+02  0.18473233757E+02  0.94168960518E+01  0.43179821226E+02  0.00000000000E+00 0. -1.
         22    1    3    3    0    0 -0.32027539926E+02 -0.10483510178E+03  0.94870804323E+01  0.11002802631E+03  0.00000000000E+00 0. -1.
</event>
<event>
 7    1  0.5950675E-006  0.6244023E+02  0.7818608E-02  0.1503547E+00
          2   -1    0    0  502    0  0.00000000000E+00  0.00000000000E+00  0.20181685056E+02  0.20181685056E+02  0.00000000000E+00 0. -1.
          1   -1    0    0  501    0 -0.00000000000E+00 -0.00000000000E+00 -0.29489417927E+04  0.29489417927E+04  0.00000000000E+00 0. -1.
         25    2    1    2    0    0 -0.79399806344E+00  0.63793430611E+02 -0.12338886436E+04  0.12418438972E+04  0.12499939214E+03 0.  0.
          2    1    1    2  501    0  0.26398665653E+02 -0.57150657630E+02 -0.16992943494E+04  0.17004600475E+04  0.00000000000E+00 0. -1.
          1    1    1    2  502    0 -0.25604667590E+02 -0.66427729809E+01  0.44228853958E+01  0.26819533003E+02  0.00000000000E+00 0. -1.
         22    1    3    3    0    0 -0.54713999576E+01 -0.37881323334E+02 -0.37343236651E+03  0.37538868288E+03  0.00000000000E+00 0.  1.
         22    1    3    3    0    0  0.46774018942E+01  0.10167475394E+03 -0.86045627709E+03  0.86645521434E+03  0.00000000000E+00 0.  1.
</event>
<event>
 7    1  0.5950675E-006  0.1186658E+03  0.7818608E-02  0.1328772E+00
          2   -1    0    0  502    0  0.00000000000E+00  0.00000000000E+00  0.60116728319E+03  0.60116728319E+03  0.00000000000E+00 0. -1.
          1   -1    0    0  501    0 -0.00000000000E+00 -0.00000000000E+00 -0.56238708660E+03  0.56238708660E+03  0.00000000000E+00 0. -1.
         25    2    1    2    0    0  0.67246023995E+02 -0.15125593060E+03  0.48446634127E+02  0.21300250194E+03  0.12499042039E+03 0.  0.
          2    1    1    2  501    0 -0.29656955114E+02  0.11239477228E+03 -0.47147294625E+03  0.48559124670E+03  0.00000000000E+00 0. -1.
          1    1    1    2  502    0 -0.37589068881E+02  0.38861158315E+02  0.46180650872E+03  0.46496062115E+03  0.00000000000E+00 0. -1.
         22    1    3    3    0    0  0.54685012565E+02  0.90822452338E+00  0.14749567580E+02  0.56646493402E+02  0.00000000000E+00 0.  1.
         22    1    3    3    0    0  0.12561011430E+02 -0.15216415512E+03  0.33697066547E+02  0.15635600854E+03  0.00000000000E+00 0.  1.
</event>
<event>
 7    1  0.5950675E-006  0.7954624E+02  0.7818608E-02  0.1421452E+00
          2   -1    0    0  502    0  0.00000000000E+00  0.00000000000E+00  0.12725284413E+04  0.12725284413E+04  0.00000000000E+00 0. -1.
          1   -1    0    0  501    0 -0.00000000000E+00 -0.00000000000E+00 -0.63546962233E+03  0.63546962233E+03  0.00000000000E+00 0. -1.
         25    2    1    2    0    0  0.49912154899E+02  0.32355511285E+02  0.83947512504E+01  0.13868820282E+03  0.12500337370E+03 0.  0.
          2    1    1    2  501    0 -0.90640802274E+01  0.36527230949E+02 -0.56836261409E+03  0.56960728335E+03  0.00000000000E+00 0. -1.
          1    1    1    2  502    0 -0.40848074672E+02 -0.68882742233E+02  0.11970266818E+04  0.11997025774E+04  0.00000000000E+00 0. -1.
         22    1    3    3    0    0 -0.31608512600E+02 -0.63796177529E+01  0.31966587097E+02  0.45405509380E+02  0.00000000000E+00 0.  1.
         22    1    3    3    0    0  0.81520667500E+02  0.38735129037E+02 -0.23571835846E+02  0.93282693445E+02  0.00000000000E+00 0.  1.
</event>
<event>
 7    1  0.5950675E-006  0.8147040E+02  0.7818608E-02  0.1359111E+00
          2   -1    0    0  502    0  0.00000000000E+00  0.00000000000E+00  0.46588465682E+03  0.46588465682E+03  0.00000000000E+00 0. -1.
          1   -1    0    0  501    0 -0.00000000000E+00 -0.00000000000E+00 -0.24636144725E+03  0.24636144725E+03  0.00000000000E+00 0. -1.
         25    2    1    2    0    0  0.30157757023E+02  0.11520040829E+03  0.51006791022E+02  0.18003248541E+03  0.12501751355E+03 0.  0.
          2    1    1    2  501    0 -0.53191004813E+02 -0.59101602071E+02 -0.17033441153E+03  0.18797897252E+03  0.00000000000E+00 0. -1.
          1    1    1    2  502    0  0.23033247790E+02 -0.56098806224E+02  0.33885083007E+03  0.34423464614E+03  0.00000000000E+00 0. -1.
         22    1    3    3    0    0 -0.91148695562E+01  0.68502837204E+01 -0.34624717132E+02  0.36453782665E+02  0.00000000000E+00 0.  1.
         22    1    3    3    0    0  0.39272626579E+02  0.10835012457E+03  0.85631508154E+02  0.14357870275E+03  0.00000000000E+00 0.  1.
</event>
<event>
 7    1  0.5950675E-006  0.5038418E+02  0.7818608E-02  0.1447188E+00
          2   -1    0    0  502    0  0.00000000000E+00  0.00000000000E+00  0.10610991033E+03  0.10610991033E+03  0.00000000000E+00 0. -1.
          1   -1    0    0  501    0 -0.00000000000E+00 -0.00000000000E+00 -0.76647781390E+03  0.76647781390E+03  0.00000000000E+00 0. -1.
         25    2    1    2    0    0  0.78299464683E+01  0.10864186815E+02 -0.20034930540E+03  0.23652486347E+03  0.12499931300E+03 0.  0.
          2    1    1    2  501    0 -0.44172355121E+02  0.24235684834E+02 -0.53951861506E+03  0.54186612864E+03  0.00000000000E+00 0. -1.
          1    1    1    2  502    0  0.36342408652E+02 -0.35099871649E+02  0.79500016886E+02  0.94196732116E+02  0.00000000000E+00 0. -1.
         22    1    3    3    0    0 -0.98335847456E+01  0.12088892922E+02 -0.21375136728E+03  0.21431865932E+03  0.00000000000E+00 0.  1.
         22    1    3    3    0    0  0.17663531214E+02 -0.12247061065E+01  0.13402061882E+02  0.22206204148E+02  0.00000000000E+00 0.  1.
</event>
<event>
 7    1  0.5950675E-006  0.4401579E+02  0.7818608E-02  0.1573643E+00
          2   -1    0    0  502    0  0.00000000000E+00  0.00000000000E+00  0.24898129056E+03  0.24898129056E+03  0.00000000000E+00 0. -1.
          1   -1    0    0  501    0 -0.00000000000E+00 -0.00000000000E+00 -0.60067163096E+03  0.60067163096E+03  0.00000000000E+00 0. -1.
         25    2    1    2    0    0  0.10880551735E+02  0.26225007083E+02 -0.52660155354E+03  0.54197656759E+03  0.12499306471E+03 0.  0.
          2    1    1    2  501    0 -0.15984889020E+02  0.17567415675E+02 -0.62158498060E+02  0.66541788761E+02  0.00000000000E+00 0. -1.
          1    1    1    2  502    0  0.51043372854E+01 -0.43792422757E+02  0.23706971120E+03  0.24113456516E+03  0.00000000000E+00 0. -1.
         22    1    3    3    0    0  0.24654075149E+02  0.60861229484E+02 -0.15268275790E+03  0.16620450426E+03  0.00000000000E+00 0. -1.
         22    1    3    3    0    0 -0.13773523414E+02 -0.34636222401E+02 -0.37391879564E+03  0.37577206333E+03  0.00000000000E+00 0. -1.
</event>
<event>
 7    1  0.5950675E-006  0.4953096E+02  0.7818608E-02  0.1557402E+00
          2   -1    0    0  502    0  0.00000000000E+00  0.00000000000E+00  0.22484553159E+03  0.22484553159E+03  0.00000000000E+00 0. -1.
          1   -1    0    0  501    0 -0.00000000000E+00 -0.00000000000E+00 -0.13902556755E+03  0.13902556755E+03  0.00000000000E+00 0. -1.
         25    2    1    2    0    0 -0.64952355564E+01  0.39281199999E+02  0.61574247138E+02  0.14491847266E+03  0.12499910020E+03 0.  0.
          2    1    1    2  501    0  0.29833515608E+02 -0.40641233140E+02 -0.89557507077E+02  0.10277302933E+03  0.00000000000E+00 0. -1.
          1    1    1    2  502    0 -0.23338280052E+02  0.13600331409E+01  0.11380322398E+03  0.11617959715E+03  0.00000000000E+00 0. -1.
         22    1    3    3    0    0 -0.32991385933E+02  0.67422926611E+00  0.85994640430E+02  0.92108437798E+02  0.00000000000E+00 0. -1.
         22    1    3    3    0    0  0.26496150377E+02  0.38606970733E+02 -0.24420393292E+02  0.52810034866E+02  0.00000000000E+00 0. -1.
</event>
<event>
 7    1  0.5950675E-006  0.5458377E+02  0.7818608E-02  0.1432036E+00
          2   -1    0    0  502    0  0.00000000000E+00  0.00000000000E+00  0.13662977280E+04  0.13662977280E+04  0.00000000000E+00 0. -1.
          1   -1    0    0  501    0 -0.00000000000E+00 -0.00000000000E+00 -0.13346996493E+03  0.13346996493E+03  0.00000000000E+00 0. -1.
         25    2    1    2    0    0  0.40325445122E+02 -0.73974981086E+02  0.13657505930E+03  0.20341964826E+03  0.12501346777E+03 0.  0.
          2    1    1    2  501    0  0.59860664956E+01  0.53591357243E+02 -0.92203837472E+02  0.10681485949E+03  0.00000000000E+00 0. -1.
          1    1    1    2  502    0 -0.46311511618E+02  0.20383623842E+02  0.11884565413E+04  0.11895331852E+04  0.00000000000E+00 0. -1.
         22    1    3    3    0    0  0.16060559681E+02  0.35238454812E+02  0.31196187925E+02  0.49728185327E+02  0.00000000000E+00 0.  1.
         22    1    3    3    0    0  0.24264885441E+02 -0.10921343590E+03  0.10537887137E+03  0.15369146293E+03  0.00000000000E+00 0.  1.
</event>
<event>
 7    1  0.5950675E-006  0.6458812E+02  0.7818608E-02  0.1451563E+00
          2   -1    0    0  502    0  0.00000000000E+00  0.00000000000E+00  0.24224715869E+04  0.24224715869E+04  0.00000000000E+00 0. -1.
          1   -1    0    0  501    0 -0.00000000000E+00 -0.00000000000E+00 -0.42088603644E+02  0.42088603644E+02  0.00000000000E+00 0. -1.
         25    2    1    2    0    0  0.26369325977E+02  0.11132115840E+02  0.12483695098E+03  0.17896277025E+03  0.12499657375E+03 0.  0.
          2    1    1    2  501    0  0.30214863664E+02  0.21301910911E+02  0.89265885700E+01  0.38031478780E+02  0.00000000000E+00 0. -1.
          1    1    1    2  502    0 -0.56584189640E+02 -0.32434026751E+02  0.22466194437E+04  0.22475659415E+04  0.00000000000E+00 0. -1.
         22    1    3    3    0    0  0.13065702631E+02 -0.14008902084E+02  0.14361013635E+03  0.14488213549E+03  0.00000000000E+00 0.  1.
         22    1    3    3    0    0  0.13303623345E+02  0.25141017924E+02 -0.18773185371E+02  0.34080634756E+02  0.00000000000E+00 0.  1.
</event>
<event>
 7    1  0.5950675E-006  0.6558538E+02  0.7818608E-02  0.1532979E+00
          2   -1    0    0  502    0  0.00000000000E+00  0.00000000000E+00  0.11978469117E+04  0.11978469117E+04  0.00000000000E+00 0. -1.
          1   -1    0    0  501    0 -0.00000000000E+00 -0.00000000000E+00 -0.84949536496E+02  0.84949536496E+02  0.00000000000E+00 0. -1.
         25    2    1    2    0    0 -0.55488912413E+02 -0.12185176930E+02  0.32929469113E+03  0.35677335362E+03  0.12499893723E+03 0.  0.
          2    1    1    2  501    0 -0.10928816638E+02  0.17550275869E+02 -0.68380728576E+02  0.71437911901E+02  0.00000000000E+00 0. -1.
          1    1    1    2  502    0  0.66417729052E+02 -0.53650989394E+01  0.85198341267E+03  0.85458518270E+03  0.00000000000E+00 0. -1.
         22    1    3    3    0    0  0.12153543118E+02 -0.53807550401E+02  0.10137007267E+03  0.11540733392E+03  0.00000000000E+00 0.  1.
         22    1    3    3    0    0 -0.67642455531E+02  0.41622373471E+02  0.22792461847E+03  0.24136601970E+03  0.00000000000E+00 0.  1.
</event>
<event>
 7    1  0.5950675E-006  0.9691991E+02  0.7818608E-02  0.1289072E+00
          2   -1    0    0  502    0  0.00000000000E+00  0.00000000000E+00  0.17014351439E+03  0.17014351439E+03  0.00000000000E+00 0. -1.
          1   -1    0    0  501    0 -0.00000000000E+00 -0.00000000000E+00 -0.49022446741E+03  0.49022446741E+03  0.00000000000E+00 0. -1.
         25    2    1    2    0    0 -0.32616852239E+02 -0.38851398969E+02 -0.66164975318E+02  0.15025458397E+03  0.12500138317E+03 0.  0.
          2    1    1    2  501    0 -0.79902351934E+02  0.51332972319E+02 -0.34936053590E+03  0.36203900886E+03  0.00000000000E+00 0. -1.
          1    1    1    2  502    0  0.11251920417E+03 -0.12481573350E+02  0.95444558200E+02  0.14807438898E+03  0.00000000000E+00 0. -1.
         22    1    3    3    0    0 -0.18584535142E+02  0.11322306087E+02  0.32246834805E+02  0.38902929408E+02  0.00000000000E+00 0.  1.
         22    1    3    3    0    0 -0.14032317097E+02 -0.50173705056E+02 -0.98411810122E+02  0.11135165456E+03  0.00000000000E+00 0.  1.
</event>
<event>
 7    1  0.5950675E-006  0.6284069E+02  0.7818608E-02  0.1397956E+00
          2   -1    0    0  502    0  0.00000000000E+00  0.00000000000E+00  0.39567370455E+03  0.39567370455E+03  0.00000000000E+00 0. -1.
          1   -1    0    0  501    0 -0.00000000000E+00 -0.00000000000E+00 -0.22167542940E+04  0.22167542940E+04  0.00000000000E+00 0. -1.
         25    2    1    2    0    0 -0.15084075414E+02  0.29751745486E+02 -0.12111824371E+03  0.17722323283E+03  0.12500299839E+03 0.  0.
          2    1    1    2  501    0 -0.48641574482E+02 -0.30156239208E+02 -0.20644222436E+04  0.20652153886E+04  0.00000000000E+00 0. -1.
          1    1    1    2  502    0  0.63725649895E+02  0.40449372258E+00  0.36445989782E+03  0.36998937713E+03  0.00000000000E+00 0. -1.
         22    1    3    3    0    0 -0.38153699693E+02 -0.17398898719E+02 -0.11732600058E+03  0.12459461019E+03  0.00000000000E+00 0. -1.
         22    1    3    3    0    0  0.23069624280E+02  0.47150644205E+02 -0.37922431317E+01  0.52628622643E+02  0.00000000000E+00 0. -1.
</event>
<event>
 7    1  0.5950675E-006  0.1125963E+03  0.7818608E-02  0.1325553E+00
          2   -1    0    0  502    0  0.00000000000E+00  0.00000000000E+00  0.32996857916E+03  0.32996857916E+03  0.00000000000E+00 0. -1.
          1   -1    0    0  501    0 -0.00000000000E+00 -0.00000000000E+00 -0.28723470210E+03  0.28723470210E+03  0.00000000000E+00 0. -1.
         25    2    1    2    0    0 -0.80494498961E+02 -0.79954605346E+02  0.14693866212E+03  0.22380398539E+03  0.12500060069E+03 0.  0.
          2    1    1    2  501    0  0.10974715501E+03  0.29150090511E+02 -0.22895152189E+03  0.25556401387E+03  0.00000000000E+00 0. -1.
          1    1    1    2  502    0 -0.29252656049E+02  0.50804514836E+02  0.12474673683E+03  0.13783528200E+03  0.00000000000E+00 0. -1.
         22    1    3    3    0    0  0.32799471198E+02 -0.19466718701E+02  0.50046814149E+02  0.62924097564E+02  0.00000000000E+00 0. -1.
         22    1    3    3    0    0 -0.11329397016E+03 -0.60487886645E+02  0.96891847968E+02  0.16087988783E+03  0.00000000000E+00 0. -1.
</event>
<event>
 7    1  0.5950675E-006  0.7173701E+02  0.7818608E-02  0.1365787E+00
          2   -1    0    0  502    0  0.00000000000E+00  0.00000000000E+00  0.20337456286E+04  0.20337456286E+04  0.00000000000E+00 0. -1.
          1   -1    0    0  501    0 -0.00000000000E+00 -0.00000000000E+00 -0.94234667996E+03  0.94234667996E+03  0.00000000000E+00 0. -1.
         25    2    1    2    0    0  0.38176941726E+02  0.16466276225E+02  0.29023384346E+03  0.31873077433E+03  0.12500002192E+03 0.  0.
          2    1    1    2  501    0 -0.30182948398E+02  0.57711393571E+02 -0.92614942297E+03  0.92843651856E+03  0.00000000000E+00 0. -1.
          1    1    1    2  502    0 -0.79939933279E+01 -0.74177669795E+02  0.17273145282E+04  0.17289250157E+04  0.00000000000E+00 0. -1.
         22    1    3    3    0    0  0.33716331481E+01 -0.44029329283E+01 -0.12297271721E+02  0.13489871024E+02  0.00000000000E+00 0. -1.
         22    1    3    3    0    0  0.34805308578E+02  0.20869209153E+02  0.30253111518E+03  0.30524090330E+03  0.00000000000E+00 0. -1.
</event>
<event>
 7    1  0.5950675E-006  0.7632699E+02  0.7818608E-02  0.1363081E+00
          2   -1    0    0  502    0  0.00000000000E+00  0.00000000000E+00  0.24776143704E+04  0.24776143704E+04  0.00000000000E+00 0. -1.
          1   -1    0    0  501    0 -0.00000000000E+00 -0.00000000000E+00 -0.63803622168E+03  0.63803622168E+03  0.00000000000E+00 0. -1.
         25    2    1    2    0    0  0.53754474763E+02 -0.12376907819E+03  0.69363732555E+03  0.71761084172E+03  0.12499700989E+03 0.  0.
          2    1    1    2  501    0 -0.14903444410E+02  0.74671697576E+02 -0.62317834315E+03  0.62781304737E+03  0.00000000000E+00 0. -1.
          1    1    1    2  502    0 -0.38851030353E+02  0.49097380614E+02  0.17691191664E+04  0.17702267030E+04  0.00000000000E+00 0. -1.
         22    1    3    3    0    0 -0.18583333200E+02 -0.58841802851E+02  0.11169727461E+03  0.12760869559E+03  0.00000000000E+00 0. -1.
         22    1    3    3    0    0  0.72337807964E+02 -0.64927275338E+02  0.58194005094E+03  0.59000214612E+03  0.00000000000E+00 0. -1.
</event>
<event>
 7    1  0.5950675E-006  0.1457749E+03  0.7818608E-02  0.1306543E+00
          2   -1    0    0  502    0  0.00000000000E+00  0.00000000000E+00  0.27171427456E+03  0.27171427456E+03  0.00000000000E+00 0. -1.
          1   -1    0    0  501    0 -0.00000000000E+00 -0.00000000000E+00 -0.60153390643E+03  0.60153390643E+03  0.00000000000E+00 0. -1.
         25    2    1    2    0    0  0.29505041160E+02 -0.12373608652E+03 -0.36808616865E+03  0.40901527000E+03  0.12499958789E+03 0.  0.
          2    1    1    2  501    0 -0.48891505121E+02 -0.22258413955E+02 -0.18729572144E+03  0.19484738524E+03  0.00000000000E+00 0. -1.
          1    1    1    2  502    0  0.19386463961E+02  0.14599450048E+03  0.22556225822E+03  0.26938552575E+03  0.00000000000E+00 0. -1.
         22    1    3    3    0    0 -0.20304184243E+01 -0.14169679318E+03 -0.30280193539E+03  0.33432187465E+03  0.00000000000E+00 0. -1.
         22    1    3    3    0    0  0.31535459585E+02  0.17960706655E+02 -0.65284233267E+02  0.74693395345E+02  0.00000000000E+00 0. -1.
</event>
<event>
 7    1  0.5950675E-006  0.1522734E+03  0.7818608E-02  0.1358481E+00
          2   -1    0    0  502    0  0.00000000000E+00  0.00000000000E+00  0.20674791663E+03  0.20674791663E+03  0.00000000000E+00 0. -1.
          1   -1    0    0  501    0 -0.00000000000E+00 -0.00000000000E+00 -0.81240393344E+03  0.81240393344E+03  0.00000000000E+00 0. -1.
         25    2    1    2    0    0  0.13554865240E+03 -0.48206615801E+02 -0.29331534599E+02  0.19282734719E+03  0.12499892771E+03 0.  0.
          2    1    1    2  501    0  0.19777726138E+02  0.25938285375E+02 -0.65151090052E+03  0.65232691696E+03  0.00000000000E+00 0. -1.
          1    1    1    2  502    0 -0.15532637854E+03  0.22268330426E+02  0.75186418307E+02  0.17399758592E+03  0.00000000000E+00 0. -1.
         22    1    3    3    0    0  0.14430353008E+03 -0.10297444777E+02 -0.44052014816E+02  0.15122872139E+03  0.00000000000E+00 0.  1.
         22    1    3    3    0    0 -0.87548776837E+01 -0.37909171024E+02  0.14720480217E+02  0.41598625804E+02  0.00000000000E+00 0.  1.
</event>
<event>
 7    1  0.5950675E-006  0.8544238E+02  0.7818608E-02  0.1481867E+00
          2   -1    0    0  502    0  0.00000000000E+00  0.00000000000E+00  0.34698973644E+03  0.34698973644E+03  0.00000000000E+00 0. -1.
          1   -1    0    0  501    0 -0.00000000000E+00 -0.00000000000E+00 -0.53488226369E+03  0.53488226369E+03  0.00000000000E+00 0. -1.
         25    2    1    2    0    0 -0.29022463551E+01  0.79745099273E+02 -0.16278726116E+03  0.22021134148E+03  0.12500255449E+03 0.  0.
          2    1    1    2  501    0  0.25097001953E+02 -0.83251859995E+02 -0.33746831442E+03  0.34849045172E+03  0.00000000000E+00 0. -1.
          1    1    1    2  502    0 -0.22194755598E+02  0.35067607214E+01  0.31236304833E+03  0.31317020693E+03  0.00000000000E+00 0. -1.
         22    1    3    3    0    0  0.52059070323E+02  0.41361222514E+01 -0.39418862730E+02  0.65430123408E+02  0.00000000000E+00 0. -1.
         22    1    3    3    0    0 -0.54961316678E+02  0.75608977022E+02 -0.12336839843E+03  0.15478121808E+03  0.00000000000E+00 0. -1.
</event>
<event>
 7    1  0.5950675E-006  0.5576958E+02  0.7818608E-02  0.1419349E+00
          2   -1    0    0  502    0  0.00000000000E+00  0.00000000000E+00  0.40213364288E+03  0.40213364288E+03  0.00000000000E+00 0. -1.
          1   -1    0    0  501    0 -0.00000000000E+00 -0.00000000000E+00 -0.59502220205E+03  0.59502220205E+03  0.00000000000E+00 0. -1.
         25    2    1    2    0    0  0.42815152967E+02 -0.97693845137E+02  0.30229291575E+02  0.16708398991E+03  0.12500409959E+03 0.  0.
          2    1    1    2  501    0 -0.99357693264E+01  0.54160302769E+02 -0.52268511298E+03  0.52557757300E+03  0.00000000000E+00 0. -1.
          1    1    1    2  502    0 -0.32879383641E+02  0.43533542368E+02  0.29956726223E+03  0.30449428202E+03  0.00000000000E+00 0. -1.
         22    1    3    3    0    0  0.76358632276E+01  0.26065233881E+02  0.27123288839E+02  0.38384575313E+02  0.00000000000E+00 0. -1.
         22    1    3    3    0    0  0.35179289740E+02 -0.12375907902E+03  0.31060027359E+01  0.12869941460E+03  0.00000000000E+00 0. -1.
</event>
<event>
 7    1  0.5950675E-006  0.6518662E+02  0.7818608E-02  0.1382167E+00
          2   -1    0    0  502    0  0.00000000000E+00  0.00000000000E+00  0.37778597402E+04  0.37778597402E+04  0.00000000000E+00 0. -1.
          1   -1    0    0  501    0 -0.00000000000E+00 -0.00000000000E+00 -0.13643450308E+04  0.13643450308E+04  0.00000000000E+00 0. -1.
         25    2    1    2    0    0  0.36544307425E+01  0.35419277552E+01 -0.23326036034E+02  0.12725919163E+03  0.12499959113E+03 0.  0.
          2    1    1    2  501    0 -0.66192842614E+02 -0.81122816228E-01 -0.12879392040E+04  0.12896390550E+04  0.00000000000E+00 0. -1.
          1    1    1    2  502    0  0.62538411872E+02 -0.34608049390E+01  0.37247799494E+04  0.37253065245E+04  0.00000000000E+00 0. -1.
         22    1    3    3    0    0 -0.54081014699E+02  0.27572590445E+02 -0.55837699249E+00  0.60706800934E+02  0.00000000000E+00 0.  1.
         22    1    3    3    0    0  0.57735445442E+02 -0.24030662690E+02 -0.22767659041E+02  0.66552390700E+02  0.00000000000E+00 0.  1.
</event>
<event>
 7    1  0.5950675E-006  0.2257984E+03  0.7818608E-02  0.1218938E+00
          2   -1    0    0  502    0  0.00000000000E+00  0.00000000000E+00  0.32917229507E+03  0.32917229507E+03  0.00000000000E+00 0. -1.
          1   -1    0    0  501    0 -0.00000000000E+00 -0.00000000000E+00 -0.14988570063E+04  0.14988570063E+04  0.00000000000E+00 0. -1.
         25    2    1    2    0    0 -0.15572171460E+03 -0.20791704773E+03 -0.10918598226E+03  0.30826164792E+03  0.12499965489E+03 0.  0.
          2    1    1    2  501    0 -0.21786512012E+02  0.78853119418E+02 -0.12360320389E+04  0.12387363189E+04  0.00000000000E+00 0. -1.
          1    1    1    2  502    0  0.17750822661E+03  0.12906392831E+03  0.17553330993E+03  0.28103133456E+03  0.00000000000E+00 0. -1.
         22    1    3    3    0    0  0.15205609769E+02 -0.58289148224E+02 -0.13317329198E+02  0.61694299786E+02  0.00000000000E+00 0.  1.
         22    1    3    3    0    0 -0.17092732437E+03 -0.14962789951E+03 -0.95868653060E+02  0.24656734813E+03  0.00000000000E+00 0.  1.
</event>
<event>
 7    1  0.5950675E-006  0.1708121E+03  0.7818608E-02  0.1206851E+00
          2   -1    0    0  502    0  0.00000000000E+00  0.00000000000E+00  0.11948230244E+04  0.11948230244E+04  0.00000000000E+00 0. -1.
          1   -1    0    0  501    0 -0.00000000000E+00 -0.00000000000E+00 -0.12313234921E+04  0.12313234921E+04  0.00000000000E+00 0. -1.
         25    2    1    2    0    0  0.24349718531E+03 -0.10590054882E+03 -0.59912282576E+03  0.66714447272E+03  0.12501112608E+03 0.  0.
          2    1    1    2  501    0 -0.14149711131E+03  0.37230980736E+02 -0.58591200274E+03  0.60390434126E+03  0.00000000000E+00 0. -1.
          1    1    1    2  502    0 -0.10200007400E+03  0.68669568087E+02  0.11485343607E+04  0.11550977025E+04  0.00000000000E+00 0. -1.
         22    1    3    3    0    0  0.13759026234E+03  0.22988897975E+01 -0.34363460473E+03  0.37016362160E+03  0.00000000000E+00 0. -1.
         22    1    3    3    0    0  0.10590692297E+03 -0.10819943862E+03 -0.25548822102E+03  0.29698085112E+03  0.00000000000E+00 0. -1.
</event>
<event>
 7    1  0.5950675E-006  0.6417600E+02  0.7818608E-02  0.1423818E+00
          2   -1    0    0  502    0  0.00000000000E+00  0.00000000000E+00  0.22694671953E+04  0.22694671953E+04  0.00000000000E+00 0. -1.
          1   -1    0    0  501    0 -0.00000000000E+00 -0.00000000000E+00 -0.19817013302E+02  0.19817013302E+02  0.00000000000E+00 0. -1.
         25    2    1    2    0    0  0.37472740020E+02  0.41868776557E+02  0.66789195323E+03  0.68180476459E+03  0.12498349944E+03 0.  0.
          2    1    1    2  501    0 -0.38684441136E+02  0.24538275980E+02  0.31032448009E+02  0.55331960055E+02  0.00000000000E+00 0. -1.
          1    1    1    2  502    0  0.12117011166E+01 -0.66407052537E+02  0.15507257808E+04  0.15521474840E+04  0.00000000000E+00 0. -1.
         22    1    3    3    0    0  0.68315619281E+02  0.59462788598E+02  0.33509463008E+03  0.34711850739E+03  0.00000000000E+00 0. -1.
         22    1    3    3    0    0 -0.30842879261E+02 -0.17594012041E+02  0.33279732315E+03  0.33468625720E+03  0.00000000000E+00 0. -1.
</event>
<event>
 7    1  0.5950675E-006  0.1413914E+03  0.7818608E-02  0.1392804E+00
          2   -1    0    0  502    0  0.00000000000E+00  0.00000000000E+00  0.36324374817E+03  0.36324374817E+03  0.00000000000E+00 0. -1.
          1   -1    0    0  501    0 -0.00000000000E+00 -0.00000000000E+00 -0.99624153408E+03  0.99624153408E+03  0.00000000000E+00 0. -1.
         25    2    1    2    0    0  0.26502570869E+02  0.14663619277E+03 -0.55596533338E+02  0.20228713916E+03  0.12499821141E+03 0.  0.
          2    1    1    2  501    0 -0.61557209792E+00 -0.14095787925E+03 -0.86095028147E+03  0.87241325632E+03  0.00000000000E+00 0. -1.
          1    1    1    2  502    0 -0.25886998771E+02 -0.56783135188E+01  0.28354902889E+03  0.28478488677E+03  0.00000000000E+00 0. -1.
         22    1    3    3    0    0 -0.18059525932E+02 -0.14300971154E+02  0.67987198497E+01  0.24018468820E+02  0.00000000000E+00 0. -1.
         22    1    3    3    0    0  0.44562096801E+02  0.16093716393E+03 -0.62395253187E+02  0.17826867034E+03  0.00000000000E+00 0. -1.
</event>
<event>
 7    1  0.5950675E-006  0.3297627E+03  0.7818608E-02  0.1292507E+00
          2   -1    0    0  502    0  0.00000000000E+00  0.00000000000E+00  0.36777744754E+03  0.36777744754E+03  0.00000000000E+00 0. -1.
          1   -1    0    0  501    0 -0.00000000000E+00 -0.00000000000E+00 -0.53319945738E+03  0.53319945738E+03  0.00000000000E+00 0. -1.
         25    2    1    2    0    0  0.81211257273E+02  0.31615551558E+03 -0.57208212875E+02  0.35418575693E+03  0.12500076982E+03 0.  0.
          2    1    1    2  501    0 -0.56540771845E+02 -0.32720070253E+03 -0.24163230657E+03  0.41066206325E+03  0.00000000000E+00 0. -1.
          1    1    1    2  502    0 -0.24670485429E+02  0.11045186952E+02  0.13341850961E+03  0.13612908474E+03  0.00000000000E+00 0. -1.
         22    1    3    3    0    0 -0.84825839213E+01  0.59954331463E+02 -0.56381267007E+02  0.82736469350E+02  0.00000000000E+00 0.  1.
         22    1    3    3    0    0  0.89693841195E+02  0.25620118411E+03 -0.82694586814E+00  0.27144928758E+03  0.00000000000E+00 0.  1.
</event>
<event>
 7    1  0.5950675E-006  0.1174017E+03  0.7818608E-02  0.1388375E+00
          2   -1    0    0  502    0  0.00000000000E+00  0.00000000000E+00  0.35285460885E+03  0.35285460885E+03  0.00000000000E+00 0. -1.
          1   -1    0    0  501    0 -0.00000000000E+00 -0.00000000000E+00 -0.64436658311E+03  0.64436658311E+03  0.00000000000E+00 0. -1.
         25    2    1    2    0    0  0.52824268568E+01 -0.98344182687E+02 -0.80838890081E+01  0.15934096827E+03  0.12499885041E+03 0.  0.
          2    1    1    2  501    0  0.21904117445E+02  0.11717870951E+03 -0.55329655108E+03  0.56599267995E+03  0.00000000000E+00 0. -1.
          1    1    1    2  502    0 -0.27186544301E+02 -0.18834526822E+02  0.26986846583E+03  0.27188754374E+03  0.00000000000E+00 0. -1.
         22    1    3    3    0    0 -0.35445422306E+02  0.57965854715E+00 -0.34158624409E+02  0.49229316347E+02  0.00000000000E+00 0. -1.
         22    1    3    3    0    0  0.40727849162E+02 -0.98923841235E+02  0.26074735401E+02  0.11011165192E+03  0.00000000000E+00 0. -1.
</event>
<event>
 7    1  0.5950675E-006  0.5005033E+02  0.7818608E-02  0.1530299E+00
          2   -1    0    0  502    0  0.00000000000E+00  0.00000000000E+00  0.76442478295E+03  0.76442478295E+03  0.00000000000E+00 0. -1.
          1   -1    0    0  501    0 -0.00000000000E+00 -0.00000000000E+00 -0.40645467166E+03  0.40645467166E+03  0.00000000000E+00 0. -1.
         25    2    1    2    0    0  0.46609812006E+02  0.45481377088E+02  0.56769485539E+03  0.58493018043E+03  0.12499934765E+03 0.  0.
          2    1    1    2  501    0 -0.19046303749E+02 -0.46255801098E+02 -0.39524145612E+03  0.39839448975E+03  0.00000000000E+00 0. -1.
          1    1    1    2  502    0 -0.27563508256E+02  0.77442401001E+00  0.18551671203E+03  0.18755478443E+03  0.00000000000E+00 0. -1.
         22    1    3    3    0    0  0.31788081314E+02 -0.36284716399E+02  0.32126734268E+03  0.32486884773E+03  0.00000000000E+00 0. -1.
         22    1    3    3    0    0  0.14821730692E+02  0.81766093486E+02  0.24642751271E+03  0.26006133270E+03  0.00000000000E+00 0. -1.
</event>
<event>
 7    1  0.5950675E-006  0.8239603E+02  0.7818608E-02  0.1422006E+00
          2   -1    0    0  502    0  0.00000000000E+00  0.00000000000E+00  0.72428006485E+03  0.72428006485E+03  0.00000000000E+00 0. -1.
          1   -1    0    0  501    0 -0.00000000000E+00 -0.00000000000E+00 -0.15831005890E+03  0.15831005890E+03  0.00000000000E+00 0. -1.
         25    2    1    2    0    0 -0.63437720678E+02 -0.55822588846E+02  0.57494313893E+03  0.59441098290E+03  0.12499719100E+03 0.  0.
          2    1    1    2  501    0  0.33122237384E+02  0.75568520829E+02 -0.13436307367E+03  0.15767409273E+03  0.00000000000E+00 0. -1.
          1    1    1    2  502    0  0.30315483293E+02 -0.19745931983E+02  0.12538994070E+03  0.13050504813E+03  0.00000000000E+00 0. -1.
         22    1    3    3    0    0  0.97997369536E+01  0.33710963411E+02  0.12484648093E+03  0.12968850257E+03  0.00000000000E+00 0. -1.
         22    1    3    3    0    0 -0.73237457631E+02 -0.89533552257E+02  0.45009665800E+03  0.46472248033E+03  0.00000000000E+00 0. -1.
</event>
<event>
 7    1  0.5950675E-006  0.4837080E+02  0.7818608E-02  0.1486824E+00
          2   -1    0    0  502    0  0.00000000000E+00  0.00000000000E+00  0.86927411186E+02  0.86927411186E+02  0.00000000000E+00 0. -1.
          1   -1    0    0  501    0 -0.00000000000E+00 -0.00000000000E+00 -0.16081939673E+04  0.16081939673E+04  0.00000000000E+00 0. -1.
         25    2    1    2    0    0 -0.40420403962E+02 -0.38514503238E+02 -0.78669715035E+03  0.79852010696E+03  0.12499911530E+03 0.  0.
          2    1    1    2  501    0 -0.80039265841E+01  0.37488688324E+02 -0.80785079080E+03  0.80875976951E+03  0.00000000000E+00 0. -1.
          1    1    1    2  502    0  0.48424330546E+02  0.10258149142E+01  0.73281385031E+02  0.87841502020E+02  0.00000000000E+00 0. -1.
         22    1    3    3    0    0 -0.19384447674E+02 -0.79451838796E+02 -0.62737803326E+03  0.63268597907E+03  0.00000000000E+00 0. -1.
         22    1    3    3    0    0 -0.21035956287E+02  0.40937335558E+02 -0.15931911709E+03  0.16583412788E+03  0.00000000000E+00 0. -1.
</event>
<event>
 7    1  0.5950675E-006  0.1108761E+03  0.7818608E-02  0.1328148E+00
          2   -1    0    0  502    0  0.00000000000E+00  0.00000000000E+00  0.86147350653E+03  0.86147350653E+03  0.00000000000E+00 0. -1.
          1   -1    0    0  501    0 -0.00000000000E+00 -0.00000000000E+00 -0.75727151178E+02  0.75727151178E+02  0.00000000000E+00 0. -1.
         25    2    1    2    0    0  0.65779177195E+02 -0.26294289614E+02  0.21866984934E+03  0.26166189446E+03  0.12502861346E+03 0.  0.
          2    1    1    2  501    0 -0.12274077811E+03  0.14431272236E+02  0.19781176935E+02  0.12515931924E+03  0.00000000000E+00 0. -1.
          1    1    1    2  502    0  0.56961600920E+02  0.11863017379E+02  0.54729532908E+03  0.55037944402E+03  0.00000000000E+00 0. -1.
         22    1    3    3    0    0 -0.51852193724E+01  0.43700824852E+02  0.68971308621E+02  0.81814974213E+02  0.00000000000E+00 0.  1.
         22    1    3    3    0    0  0.70964396567E+02 -0.69995114466E+02  0.14969854072E+03  0.17984692025E+03  0.00000000000E+00 0.  1.
</event>
<event>
 7    1  0.5950675E-006  0.1598494E+03  0.7818608E-02  0.1220014E+00
          2   -1    0    0  502    0  0.00000000000E+00  0.00000000000E+00  0.78612781709E+03  0.78612781709E+03  0.00000000000E+00 0. -1.
          1   -1    0    0  501    0 -0.00000000000E+00 -0.00000000000E+00 -0.25567849626E+03  0.25567849626E+03  0.00000000000E+00 0. -1.
         25    2    1    2    0    0  0.18222917256E+03  0.14553369028E+02  0.11412065297E+03  0.24913296384E+03  0.12499775340E+03 0.  0.
          2    1    1    2  501    0 -0.63483745922E+02  0.95001015809E+02 -0.15860175958E+03  0.19547352031E+03  0.00000000000E+00 0. -1.
          1    1    1    2  502    0 -0.11874542664E+03 -0.10955438484E+03  0.57493042744E+03  0.59719982919E+03  0.00000000000E+00 0. -1.
         22    1    3    3    0    0 -0.11560096480E+02 -0.99701687198E+00  0.39038090937E+02  0.40725942804E+02  0.00000000000E+00 0. -1.
         22    1    3    3    0    0  0.19378926904E+03  0.15550385900E+02  0.75082562036E+02  0.20840702104E+03  0.00000000000E+00 0. -1.
</event>
<event>
 7    1  0.5950675E-006  0.1158332E+03  0.7818608E-02  0.1329311E+00
          2   -1    0    0  502    0  0.00000000000E+00  0.00000000000E+00  0.20389864047E+04  0.20389864047E+04  0.00000000000E+00 0. -1.
          1   -1    0    0  501    0 -0.00000000000E+00 -0.00000000000E+00 -0.72542144169E+03  0.72542144169E+03  0.00000000000E+00 0. -1.
         25    2    1    2    0    0 -0.12546111756E+03 -0.48092160921E+02  0.32047318709E+03  0.36930223248E+03  0.12501090875E+03 0.  0.
          2    1    1    2  501    0  0.81855927393E+02  0.81818191276E+02 -0.69577721840E+03  0.70533718668E+03  0.00000000000E+00 0. -1.
          1    1    1    2  502    0  0.43605190170E+02 -0.33726030355E+02  0.16888689943E+04  0.16897684272E+04  0.00000000000E+00 0. -1.
         22    1    3    3    0    0 -0.14372314367E+03 -0.65695483645E+02  0.27112234413E+03  0.31381453772E+03  0.00000000000E+00 0.  1.
         22    1    3    3    0    0  0.18262026107E+02  0.17603322724E+02  0.49350842958E+02  0.55487694755E+02  0.00000000000E+00 0.  1.
</event>
<event>
 7    1  0.5950675E-006  0.6640795E+02  0.7818608E-02  0.1524518E+00
          2   -1    0    0  502    0  0.00000000000E+00  0.00000000000E+00  0.95658577179E+03  0.95658577179E+03  0.00000000000E+00 0. -1.
          1   -1    0    0  501    0 -0.00000000000E+00 -0.00000000000E+00 -0.22847619306E+03  0.22847619306E+03  0.00000000000E+00 0. -1.
         25    2    1    2    0    0 -0.62962063037E+02 -0.59313831077E+02  0.50501448395E+02  0.16018469668E+03  0.12500555516E+03 0.  0.
          2    1    1    2  501    0  0.11185587998E+02  0.18469965600E+02 -0.17167999759E+03  0.17303259398E+03  0.00000000000E+00 0. -1.
          1    1    1    2  502    0  0.51776475039E+02  0.40843865477E+02  0.84928812793E+03  0.85184467419E+03  0.00000000000E+00 0. -1.
         22    1    3    3    0    0 -0.33074273554E+01 -0.40297885926E+02 -0.35499521989E+02  0.53805898815E+02  0.00000000000E+00 0.  1.
         22    1    3    3    0    0 -0.59654635682E+02 -0.19015945151E+02  0.86000970384E+02  0.10637879787E+03  0.00000000000E+00 0.  1.
</event>
<event>
 7    1  0.5950675E-006  0.2453548E+03  0.7818608E-02  0.1313149E+00
          2   -1    0    0  502    0  0.00000000000E+00  0.00000000000E+00  0.80800463650E+03  0.80800463650E+03  0.00000000000E+00 0. -1.
          1   -1    0    0  501    0 -0.00000000000E+00 -0.00000000000E+00 -0.43961422477E+03  0.43961422477E+03  0.00000000000E+00 0. -1.
         25    2    1    2    0    0 -0.22092512644E+03  0.13347678704E+03 -0.26286772835E+03  0.38903665964E+03  0.12500446300E+03 0.  0.
          2    1    1    2  501    0 -0.78879849986E+00 -0.30049175337E+02 -0.91093436948E+02  0.95924915411E+02  0.00000000000E+00 0. -1.
          1    1    1    2  502    0  0.22171392494E+03 -0.10342761170E+03  0.72235157703E+03  0.76265728621E+03  0.00000000000E+00 0. -1.
         22    1    3    3    0    0 -0.23158281579E+03  0.12550720875E+03 -0.26703935645E+03  0.37509022636E+03  0.00000000000E+00 0. -1.
         22    1    3    3    0    0  0.10657689351E+02  0.79695782901E+01  0.41716280989E+01  0.13946433287E+02  0.00000000000E+00 0. -1.
</event>
<event>
 7    1  0.5950675E-006  0.4951596E+02  0.7818608E-02  0.1547770E+00
          2   -1    0    0  502    0  0.00000000000E+00  0.00000000000E+00  0.16494175704E+04  0.16494175704E+04  0.00000000000E+00 0. -1.
          1   -1    0    0  501    0 -0.00000000000E+00 -0.00000000000E+00 -0.32157004605E+02  0.32157004605E+02  0.00000000000E+00 0. -1.
         25    2    1    2    0    0  0.53522258801E+02 -0.46324052118E+02  0.32964545831E+03  0.35958380329E+03  0.12499533358E+03 0.  0.
          2    1    1    2  501    0 -0.23690778462E+02  0.75744326355E+01 -0.74801020542E+01  0.25972619056E+02  0.00000000000E+00 0. -1.
          1    1    1    2  502    0 -0.29831480339E+02  0.38749619482E+02  0.12950952096E+04  0.12960181527E+04  0.00000000000E+00 0. -1.
         22    1    3    3    0    0  0.49400197611E+02 -0.65060711823E+02  0.33043486852E+03  0.34038284046E+03  0.00000000000E+00 0. -1.
         22    1    3    3    0    0  0.41220611896E+01  0.18736659705E+02 -0.78941020983E+00  0.19200962836E+02  0.00000000000E+00 0. -1.
</event>
<event>
 7    1  0.5950675E-006  0.7834069E+02  0.7818608E-02  0.1355824E+00
          2   -1    0    0  502    0  0.00000000000E+00  0.00000000000E+00  0.67874681741E+03  0.67874681741E+03  0.00000000000E+00 0. -1.
          1   -1    0    0  501    0 -0.00000000000E+00 -0.00000000000E+00 -0.25133835165E+03  0.25133835165E+03  0.00000000000E+00 0. -1.
         25    2    1    2    0    0 -0.11008086027E+03  0.84122730186E+02  0.21314261242E+03  0.28328361091E+03  0.12500160580E+03 0.  0.
          2    1    1    2  501    0  0.68685361831E+02 -0.34217452465E+02 -0.20690098506E+03  0.22067290409E+03  0.00000000000E+00 0. -1.
          1    1    1    2  502    0  0.41395498435E+02 -0.49905277722E+02  0.42116683840E+03  0.42612865405E+03  0.00000000000E+00 0. -1.
         22    1    3    3    0    0 -0.90172904515E+02  0.30538725416E+02  0.20436295189E+03  0.22545062112E+03  0.00000000000E+00 0. -1.
         22    1    3    3    0    0 -0.19907955751E+02  0.53584004770E+02  0.87796605307E+01  0.57832989793E+02  0.00000000000E+00 0. -1.
</event>
<event>
 7    1  0.5950675E-006  0.2051548E+03  0.7818608E-02  0.1315622E+00
          2   -1    0    0  502    0  0.00000000000E+00  0.00000000000E+00  0.54034533663E+03  0.54034533663E+03  0.00000000000E+00 0. -1.
          1   -1    0    0  501    0 -0.00000000000E+00 -0.00000000000E+00 -0.45823769703E+03  0.45823769703E+03  0.00000000000E+00 0. -1.
         25    2    1    2    0    0 -0.73087160912E+02 -0.17841833244E+03 -0.95925866038E+02  0.24900088480E+03  0.12499933767E+03 0.  0.
          2    1    1    2  501    0  0.10798075532E+03  0.18271775829E+03 -0.24553871335E+03  0.32455335843E+03  0.00000000000E+00 0. -1.
          1    1    1    2  502    0 -0.34893594403E+02 -0.42994258597E+01  0.42357221899E+03  0.42502879043E+03  0.00000000000E+00 0. -1.
         22    1    3    3    0    0 -0.16941206612E+02  0.15438284267E+02  0.48317806781E+01  0.23424158621E+02  0.00000000000E+00 0. -1.
         22    1    3    3    0    0 -0.56145954301E+02 -0.19385661670E+03 -0.10075764672E+03  0.22557672618E+03  0.00000000000E+00 0. -1.
</event>
<event>
 7    1  0.1622431E-005  0.1114461E+03  0.7818608E-02  0.1397440E+00
          2   -1    0    0  502    0  0.00000000000E+00  0.00000000000E+00  0.16030723639E+04  0.16030723639E+04  0.00000000000E+00 0. -1.
          1   -1    0    0  501    0 -0.00000000000E+00 -0.00000000000E+00 -0.11846424396E+04  0.11846424396E+04  0.00000000000E+00 0. -1.
         25    2    1    2    0    0 -0.36075461391E+02 -0.80909659349E+02 -0.51782675189E+03  0.54001305412E+03  0.12498696632E+03 0.  0.
          2    1    1    2  501    0 -0.31430068377E+02 -0.78822149128E+01 -0.65336683449E+03  0.65416985479E+03  0.00000000000E+00 0. -1.
          1    1    1    2  502    0  0.67505529768E+02  0.88791874262E+02  0.15896235106E+04  0.15935318946E+04  0.00000000000E+00 0. -1.
         22    1    3    3    0    0 -0.57747712921E+02 -0.57410181935E+02 -0.14896245243E+03  0.16976613200E+03  0.00000000000E+00 0. -1.
         22    1    3    3    0    0  0.21672251529E+02 -0.23499477415E+02 -0.36886429946E+03  0.37024692212E+03  0.00000000000E+00 0. -1.
</event>
<event>
 7    1  0.5950675E-006  0.5331744E+02  0.7818608E-02  0.1537062E+00
          2   -1    0    0  502    0  0.00000000000E+00  0.00000000000E+00  0.37398662398E+03  0.37398662398E+03  0.00000000000E+00 0. -1.
          1   -1    0    0  501    0 -0.00000000000E+00 -0.00000000000E+00 -0.11012910850E+04  0.11012910850E+04  0.00000000000E+00 0. -1.
         25    2    1    2    0    0 -0.74800919040E+02  0.15086300991E+02 -0.61009656121E+03  0.62742789837E+03  0.12500071869E+03 0.  0.
          2    1    1    2  501    0  0.21640941395E+02 -0.12031460284E+02 -0.48026794339E+03  0.48090579517E+03  0.00000000000E+00 0. -1.
          1    1    1    2  502    0  0.53159977645E+02 -0.30548407079E+01  0.36306004355E+03  0.36694401548E+03  0.00000000000E+00 0. -1.
         22    1    3    3    0    0 -0.95396687905E+02  0.32929039006E+02 -0.30816582812E+03  0.32426999136E+03  0.00000000000E+00 0. -1.
         22    1    3    3    0    0  0.20595768865E+02 -0.17842738015E+02 -0.30193073309E+03  0.30315790701E+03  0.00000000000E+00 0. -1.
</event>
<event>
 7    1  0.5950675E-006  0.5413529E+02  0.7818608E-02  0.1430337E+00
          2   -1    0    0  502    0  0.00000000000E+00  0.00000000000E+00  0.18133521743E+03  0.18133521743E+03  0.00000000000E+00 0. -1.
          1   -1    0    0  501    0 -0.00000000000E+00 -0.00000000000E+00 -0.55008121985E+03  0.55008121985E+03  0.00000000000E+00 0. -1.
         25    2    1    2    0    0  0.89653302066E+02 -0.93575137167E+01 -0.18921304252E+02  0.15526890979E+03  0.12500056384E+03 0.  0.
          2    1    1    2  501    0 -0.43111885748E+02  0.31819176745E+02 -0.45543241600E+03  0.45857363667E+03  0.00000000000E+00 0. -1.
          1    1    1    2  502    0 -0.46541416318E+02 -0.22461663028E+02  0.10560771783E+03  0.11757389083E+03  0.00000000000E+00 0. -1.
         22    1    3    3    0    0  0.34446543197E+02  0.57037875949E+02 -0.17567598456E+02  0.68909390844E+02  0.00000000000E+00 0. -1.
         22    1    3    3    0    0  0.55206758868E+02 -0.66395389665E+02 -0.13537057957E+01  0.86359518948E+02  0.00000000000E+00 0. -1.
</event>
<event>
 7    1  0.5950675E-006  0.1104371E+03  0.7818608E-02  0.1421732E+00
          2   -1    0    0  502    0  0.00000000000E+00  0.00000000000E+00  0.46222871956E+03  0.46222871956E+03  0.00000000000E+00 0. -1.
          1   -1    0    0  501    0 -0.00000000000E+00 -0.00000000000E+00 -0.10018224944E+04  0.10018224944E+04  0.00000000000E+00 0. -1.
         25    2    1    2    0    0  0.29940757580E+02  0.12588927906E+03 -0.55396967012E+03  0.58245349367E+03  0.12500046930E+03 0.  0.
          2    1    1    2  501    0 -0.24850738139E+02 -0.99322699320E+02 -0.42714746838E+03  0.43924653388E+03  0.00000000000E+00 0. -1.
          1    1    1    2  502    0 -0.50900194410E+01 -0.26566579737E+02  0.44152336366E+03  0.44235118640E+03  0.00000000000E+00 0. -1.
         22    1    3    3    0    0 -0.41431091602E+02  0.73771895861E+02 -0.19137568426E+03  0.20924502502E+03  0.00000000000E+00 0.  1.
         22    1    3    3    0    0  0.71371849182E+02  0.52117383197E+02 -0.36259398586E+03  0.37320846865E+03  0.00000000000E+00 0.  1.
</event>
<event>
 7    1  0.5950675E-006  0.3531000E+02  0.7818608E-02  0.1629963E+00
          2   -1    0    0  502    0  0.00000000000E+00  0.00000000000E+00  0.57724447424E+02  0.57724447424E+02  0.00000000000E+00 0. -1.
          1   -1    0    0  501    0 -0.00000000000E+00 -0.00000000000E+00 -0.40271056266E+03  0.40271056266E+03  0.00000000000E+00 0. -1.
         25    2    1    2    0    0  0.35896706978E+02 -0.29261695182E+02 -0.12426318095E+03  0.18223756170E+03  0.12499748148E+03 0.  0.
          2    1    1    2  501    0 -0.34040515112E+02  0.82310303590E+01 -0.24415679614E+03  0.24665572693E+03  0.00000000000E+00 0. -1.
          1    1    1    2  502    0 -0.18561918664E+01  0.21030664823E+02  0.23433861849E+02  0.31541721454E+02  0.00000000000E+00 0. -1.
         22    1    3    3    0    0  0.39976886332E+01  0.27427402676E+02 -0.11284024162E+03  0.11619450960E+03  0.00000000000E+00 0.  1.
         22    1    3    3    0    0  0.31899018345E+02 -0.56689097858E+02 -0.11422939328E+02  0.66043052096E+02  0.00000000000E+00 0.  1.
</event>
<event>
 7    1  0.5950675E-006  0.9280550E+02  0.7818608E-02  0.1440651E+00
          2   -1    0    0  502    0  0.00000000000E+00  0.00000000000E+00  0.13563306469E+03  0.13563306469E+03  0.00000000000E+00 0. -1.
          1   -1    0    0  501    0 -0.00000000000E+00 -0.00000000000E+00 -0.42916200657E+03  0.42916200657E+03  0.00000000000E+00 0. -1.
         25    2    1    2    0    0  0.21297511984E+02 -0.79451642180E+02 -0.29273157175E+03  0.32875890252E+03  0.12499798168E+03 0.  0.
          2    1    1    2  501    0 -0.15419146835E+02  0.10672007199E+03 -0.91326874315E+02  0.14130648190E+03  0.00000000000E+00 0. -1.
          1    1    1    2  502    0 -0.58783651493E+01 -0.27268429805E+02  0.90529504183E+02  0.94729686838E+02  0.00000000000E+00 0. -1.
         22    1    3    3    0    0 -0.44056509035E+02  0.32883760056E+01 -0.84094425762E+02  0.94992956841E+02  0.00000000000E+00 0.  1.
         22    1    3    3    0    0  0.65354021020E+02 -0.82740018186E+02 -0.20863714599E+03  0.23376594568E+03  0.00000000000E+00 0.  1.
</event>
<event>
 7    1  0.5950675E-006  0.1351205E+03  0.7818608E-02  0.1280542E+00
          2   -1    0    0  502    0  0.00000000000E+00  0.00000000000E+00  0.23550247191E+04  0.23550247191E+04  0.00000000000E+00 0. -1.
          1   -1    0    0  501    0 -0.00000000000E+00 -0.00000000000E+00 -0.25285431342E+03  0.25285431342E+03  0.00000000000E+00 0. -1.
         25    2    1    2    0    0 -0.71127423722E+02 -0.42364672376E+02  0.50745593849E+03  0.52913816629E+03  0.12498717390E+03 0.  0.
          2    1    1    2  501    0 -0.73830401308E+02  0.84617901204E+00 -0.23320411547E+03  0.24461358026E+03  0.00000000000E+00 0. -1.
          1    1    1    2  502    0  0.14495782503E+03  0.41518493364E+02  0.18279185826E+04  0.18341272859E+04  0.00000000000E+00 0. -1.
         22    1    3    3    0    0 -0.92267458388E+02 -0.56929793527E+02  0.28031021607E+03  0.30054634002E+03  0.00000000000E+00 0.  1.
         22    1    3    3    0    0  0.21140034667E+02  0.14565121151E+02  0.22714572242E+03  0.22859182627E+03  0.00000000000E+00 0.  1.
</event>
<event>
 7    1  0.5950675E-006  0.5531794E+02  0.7818608E-02  0.1442829E+00
          2   -1    0    0  502    0  0.00000000000E+00  0.00000000000E+00  0.16867022560E+04  0.16867022560E+04  0.00000000000E+00 0. -1.
          1   -1    0    0  501    0 -0.00000000000E+00 -0.00000000000E+00 -0.40164951027E+03  0.40164951027E+03  0.00000000000E+00 0. -1.
         25    2    1    2    0    0  0.33527541763E+02 -0.12664563158E+01 -0.17816537618E+03  0.22021160528E+03  0.12499819943E+03 0.  0.
          2    1    1    2  501    0 -0.43617301890E+01 -0.45837795109E+02 -0.19937567529E+03  0.20462352760E+03  0.00000000000E+00 0. -1.
          1    1    1    2  502    0 -0.29165811574E+02  0.47104251425E+02  0.16625937972E+04  0.16635166334E+04  0.00000000000E+00 0. -1.
         22    1    3    3    0    0 -0.19502629044E+02  0.50129366844E+02 -0.93463691313E+02  0.10783676346E+03  0.00000000000E+00 0. -1.
         22    1    3    3    0    0  0.53030170807E+02 -0.51395823159E+02 -0.84701684872E+02  0.11237484182E+03  0.00000000000E+00 0. -1.
</event>
<event>
 7    1  0.5950675E-006  0.3605271E+02  0.7818608E-02  0.1612627E+00
          2   -1    0    0  502    0  0.00000000000E+00  0.00000000000E+00  0.20672808686E+04  0.20672808686E+04  0.00000000000E+00 0. -1.
          1   -1    0    0  501    0 -0.00000000000E+00 -0.00000000000E+00 -0.11022670726E+03  0.11022670726E+03  0.00000000000E+00 0. -1.
         25    2    1    2    0    0  0.35767354153E+02  0.41392741062E+02  0.78750947628E+02  0.15753948357E+03  0.12499725795E+03 0.  0.
          2    1    1    2  501    0 -0.52865224844E+01 -0.22267522098E+02 -0.68813158175E+02  0.72519242953E+02  0.00000000000E+00 0. -1.
          1    1    1    2  502    0 -0.30480831668E+02 -0.19125218964E+02  0.19471163719E+04  0.19474488494E+04  0.00000000000E+00 0. -1.
         22    1    3    3    0    0 -0.13128462975E+02 -0.27770433284E+02 -0.12385268000E+02  0.33120210873E+02  0.00000000000E+00 0.  1.
         22    1    3    3    0    0  0.48895817127E+02  0.69163174346E+02  0.91136215628E+02  0.12441927269E+03  0.00000000000E+00 0.  1.
</event>
<event>
 7    1  0.5950675E-006  0.6712247E+02  0.7818608E-02  0.1515987E+00
          2   -1    0    0  502    0  0.00000000000E+00  0.00000000000E+00  0.63267568038E+02  0.63267568038E+02  0.00000000000E+00 0. -1.
          1   -1    0    0  501    0 -0.00000000000E+00 -0.00000000000E+00 -0.23045859943E+03  0.23045859943E+03  0.00000000000E+00 0. -1.
         25    2    1    2    0    0  0.32112049167E+01  0.55910863807E+02 -0.70229824878E+02  0.15392809881E+03  0.12500117909E+03 0.  0.
          2    1    1    2  501    0  0.14771189484E+02  0.17126681121E+02 -0.38014488692E+02  0.44233613864E+02  0.00000000000E+00 0. -1.
          1    1    1    2  502    0 -0.17982394401E+02 -0.73037544928E+02 -0.58946717820E+02  0.95564454790E+02  0.00000000000E+00 0. -1.
         22    1    3    3    0    0  0.44890373782E+02  0.93206016255E+01  0.14992450824E+02  0.48236841259E+02  0.00000000000E+00 0.  1.
         22    1    3    3    0    0 -0.41679168866E+02  0.46590262182E+02 -0.85222275702E+02  0.10569125755E+03  0.00000000000E+00 0.  1.
</event>
<event>
 7    1  0.5950675E-006  0.8234760E+02  0.7818608E-02  0.1334477E+00
          2   -1    0    0  502    0  0.00000000000E+00  0.00000000000E+00  0.61317358957E+02  0.61317358957E+02  0.00000000000E+00 0. -1.
          1   -1    0    0  501    0 -0.00000000000E+00 -0.00000000000E+00 -0.87191206404E+03  0.87191206404E+03  0.00000000000E+00 0. -1.
         25    2    1    2    0    0  0.39030708915E+02  0.11475914715E+03 -0.38342408572E+03  0.42110696890E+03  0.12499596655E+03 0.  0.
          2    1    1    2  501    0  0.23452026690E+02 -0.74912452462E+02 -0.43083227712E+03  0.43792502109E+03  0.00000000000E+00 0. -1.
          1    1    1    2  502    0 -0.62482735605E+02 -0.39846694692E+02  0.36616577580E+01  0.74197433002E+02  0.00000000000E+00 0. -1.
         22    1    3    3    0    0 -0.46167632925E+01  0.12681374492E+03 -0.25289781542E+03  0.28294936906E+03  0.00000000000E+00 0.  1.
         22    1    3    3    0    0  0.43647472208E+02 -0.12054597766E+02 -0.13052627030E+03  0.13815759985E+03  0.00000000000E+00 0.  1.
</event>
<event>
 7    1  0.5950675E-006  0.7900060E+02  0.7818608E-02  0.1381693E+00
          2   -1    0    0  502    0  0.00000000000E+00  0.00000000000E+00  0.95676721082E+03  0.95676721082E+03  0.00000000000E+00 0. -1.
          1   -1    0    0  501    0 -0.00000000000E+00 -0.00000000000E+00 -0.74926319470E+02  0.74926319470E+02  0.00000000000E+00 0. -1.
         25    2    1    2    0    0 -0.31202793670E+02 -0.64078580094E+01  0.36222412115E+03  0.38450762560E+03  0.12500050089E+03 0.  0.
          2    1    1    2  501    0  0.82474123012E+02 -0.15263785553E+01 -0.35390007131E+02  0.89759475282E+02  0.00000000000E+00 0. -1.
          1    1    1    2  502    0 -0.51271329343E+02  0.79342365647E+01  0.55500677733E+03  0.55742642941E+03  0.00000000000E+00 0. -1.
         22    1    3    3    0    0  0.15899367539E+02 -0.30322984748E+02  0.30387679359E+03  0.30579957321E+03  0.00000000000E+00 0.  1.
         22    1    3    3    0    0 -0.47102161209E+02  0.23915126738E+02  0.58347327562E+02  0.78708052391E+02  0.00000000000E+00 0.  1.
</event>
<event>
 7    1  0.5950675E-006  0.8883090E+02  0.7818608E-02  0.1308669E+00
          2   -1    0    0  502    0  0.00000000000E+00  0.00000000000E+00  0.42978049186E+03  0.42978049186E+03  0.00000000000E+00 0. -1.
          1   -1    0    0  501    0 -0.00000000000E+00 -0.00000000000E+00 -0.35395908902E+03  0.35395908902E+03  0.00000000000E+00 0. -1.
         25    2    1    2    0    0 -0.87596367940E+02 -0.43897569058E+02  0.89882648757E+02  0.18249438287E+03  0.12500075594E+03 0.  0.
          2    1    1    2  501    0  0.13976597016E+02  0.89245946257E+02 -0.29436209371E+03  0.30791106898E+03  0.00000000000E+00 0. -1.
          1    1    1    2  502    0  0.73619770924E+02 -0.45348377199E+02  0.28030084778E+03  0.29333412903E+03  0.00000000000E+00 0. -1.
         22    1    3    3    0    0  0.31025250693E+02 -0.85184621891E+01  0.33583121407E+02  0.46507595316E+02  0.00000000000E+00 0.  1.
         22    1    3    3    0    0 -0.11862161863E+03 -0.35379106869E+02  0.56299527350E+02  0.13598678756E+03  0.00000000000E+00 0.  1.
</event>
<event>
 7    1  0.5950675E-006  0.1196651E+03  0.7818608E-02  0.1284809E+00
          2   -1    0    0  502    0  0.00000000000E+00  0.00000000000E+00  0.94578566525E+03  0.94578566525E+03  0.00000000000E+00 0. -1.
          1   -1    0    0  501    0 -0.00000000000E+00 -0.00000000000E+00 -0.36611455853E+04  0.36611455853E+04  0.00000000000E+00 0. -1.
         25    2    1    2    0    0  0.64212368182E+02  0.11694181508E+02  0.10080283205E+02  0.14137692275E+03  0.12500336022E+03 0.  0.
          2    1    1    2  501    0 -0.10668974187E+03  0.56177350406E+02 -0.35926416300E+04  0.35946644457E+04  0.00000000000E+00 0. -1.
          1    1    1    2  502    0  0.42477373692E+02 -0.67871531914E+02  0.86720142676E+03  0.87088988207E+03  0.00000000000E+00 0. -1.
         22    1    3    3    0    0 -0.20519844311E+02 -0.34811716046E+02 -0.12152267738E+02  0.42197123075E+02  0.00000000000E+00 0. -1.
         22    1    3    3    0    0  0.84732212493E+02  0.46505897554E+02  0.22232550943E+02  0.99179799671E+02  0.00000000000E+00 0. -1.
</event>
<event>
 7    1  0.5950675E-006  0.1041476E+03  0.7818608E-02  0.1275170E+00
          2   -1    0    0  502    0  0.00000000000E+00  0.00000000000E+00  0.41788413428E+04  0.41788413428E+04  0.00000000000E+00 0. -1.
          1   -1    0    0  501    0 -0.00000000000E+00 -0.00000000000E+00 -0.21255894143E+04  0.21255894143E+04  0.00000000000E+00 0. -1.
         25    2    1    2    0    0 -0.54200129886E+02  0.14676949956E+02  0.15418417698E+04  0.15479192910E+04  0.12500008551E+03 0.  0.
          2    1    1    2  501    0 -0.73907204507E+02 -0.68595940613E+02 -0.21195175839E+04  0.21219148113E+04  0.00000000000E+00 0. -1.
          1    1    1    2  502    0  0.12810733439E+03  0.53918990656E+02  0.26309277426E+04  0.26345966548E+04  0.00000000000E+00 0. -1.
         22    1    3    3    0    0 -0.27053204157E+02 -0.50484233882E+01  0.63625554517E+02  0.69322244781E+02  0.00000000000E+00 0. -1.
         22    1    3    3    0    0 -0.27146925729E+02  0.19725373345E+02  0.14782162153E+04  0.14785970462E+04  0.00000000000E+00 0. -1.
</event>
<event>
 7    1  0.5950675E-006  0.9774679E+02  0.7818608E-02  0.1331228E+00
          2   -1    0    0  502    0  0.00000000000E+00  0.00000000000E+00  0.24652556966E+03  0.24652556966E+03  0.00000000000E+00 0. -1.
          1   -1    0    0  501    0 -0.00000000000E+00 -0.00000000000E+00 -0.32863073665E+04  0.32863073665E+04  0.00000000000E+00 0. -1.
         25    2    1    2    0    0 -0.88185289806E+02  0.12054707324E+03  0.11098584212E+03  0.22416237357E+03  0.12499068113E+03 0.  0.
          2    1    1    2  501    0  0.79206422691E+02 -0.56943969453E+02 -0.32157910001E+04  0.32172702761E+04  0.00000000000E+00 0. -1.
          1    1    1    2  502    0  0.89788671141E+01 -0.63603103791E+02  0.65023361183E+02  0.91400286465E+02  0.00000000000E+00 0. -1.
         22    1    3    3    0    0 -0.11217802327E+03  0.87909944344E+02  0.11544420956E+03  0.18341055788E+03  0.00000000000E+00 0. -1.
         22    1    3    3    0    0  0.23992733469E+02  0.32637128899E+02 -0.44583674441E+01  0.40751815694E+02  0.00000000000E+00 0. -1.
</event>
<event>
 7    1  0.5950675E-006  0.7333802E+02  0.7818608E-02  0.1384279E+00
          2   -1    0    0  502    0  0.00000000000E+00  0.00000000000E+00  0.30529286200E+03  0.30529286200E+03  0.00000000000E+00 0. -1.
          1   -1    0    0  501    0 -0.00000000000E+00 -0.00000000000E+00 -0.90937095323E+02  0.90937095323E+02  0.00000000000E+00 0. -1.
         25    2    1    2    0    0  0.87119906671E+02 -0.40426552176E+02  0.14171562471E+03  0.21197325958E+03  0.12500064092E+03 0.  0.
          2    1    1    2  501    0 -0.51119426542E+02 -0.19538640776E+02 -0.28176973466E+02  0.61554009512E+02  0.00000000000E+00 0. -1.
          1    1    1    2  502    0 -0.36000480129E+02  0.59965192952E+02  0.10081711543E+03  0.12270268823E+03  0.00000000000E+00 0. -1.
         22    1    3    3    0    0  0.10449905829E+03 -0.36360421167E+02  0.15448995142E+03  0.19002441554E+03  0.00000000000E+00 0. -1.
         22    1    3    3    0    0 -0.17379151618E+02 -0.40661310088E+01 -0.12774326702E+02  0.21948844048E+02  0.00000000000E+00 0. -1.
</event>
<event>
 7    1  0.5950675E-006  0.1020735E+03  0.7818608E-02  0.1311822E+00
          2   -1    0    0  502    0  0.00000000000E+00  0.00000000000E+00  0.62223962284E+03  0.62223962284E+03  0.00000000000E+00 0. -1.
          1   -1    0    0  501    0 -0.00000000000E+00 -0.00000000000E+00 -0.22642819574E+03  0.22642819574E+03  0.00000000000E+00 0. -1.
         25    2    1    2    0    0  0.68825981545E+02 -0.77157980147E+02  0.22165707837E+02  0.16372431667E+03  0.12499585444E+03 0.  0.
          2    1    1    2  501    0 -0.16468355810E+01  0.10604394472E+03 -0.13465706234E+03  0.17140756902E+03  0.00000000000E+00 0. -1.
          1    1    1    2  502    0 -0.67179145964E+02 -0.28885964569E+02  0.50830278160E+03  0.51353593290E+03  0.00000000000E+00 0. -1.
         22    1    3    3    0    0  0.78636580488E+02 -0.19959676639E+01 -0.13736236949E+02  0.79852237810E+02  0.00000000000E+00 0. -1.
         22    1    3    3    0    0 -0.98105989433E+01 -0.75162012483E+02  0.35901944785E+02  0.83872078855E+02  0.00000000000E+00 0. -1.
</event>
<event>
 7    1  0.5950675E-006  0.4697252E+02  0.7818608E-02  0.1499970E+00
          2   -1    0    0  502    0  0.00000000000E+00  0.00000000000E+00  0.42278101177E+03  0.42278101177E+03  0.00000000000E+00 0. -1.
          1   -1    0    0  501    0 -0.00000000000E+00 -0.00000000000E+00 -0.25238316938E+03  0.25238316938E+03  0.00000000000E+00 0. -1.
         25    2    1    2    0    0 -0.29920983939E+02  0.53033619133E+02  0.65607290123E+02  0.15374325122E+03  0.12499936296E+03 0.  0.
          2    1    1    2  501    0  0.35445309914E+02 -0.64955790269E+01 -0.20498098637E+03  0.20812440346E+03  0.00000000000E+00 0. -1.
          1    1    1    2  502    0 -0.55243259747E+01 -0.46538040106E+02  0.30977153864E+03  0.31329652648E+03  0.00000000000E+00 0. -1.
         22    1    3    3    0    0  0.58276212865E+01 -0.11527194979E+01  0.85609429420E+02  0.85815291981E+02  0.00000000000E+00 0. -1.
         22    1    3    3    0    0 -0.35748605226E+02  0.54186338631E+02 -0.20002139298E+02  0.67927959239E+02  0.00000000000E+00 0. -1.
</event>
<event>
 7    1  0.5950675E-006  0.1085135E+03  0.7818608E-02  0.1274013E+00
          2   -1    0    0  502    0  0.00000000000E+00  0.00000000000E+00  0.54709057343E+03  0.54709057343E+03  0.00000000000E+00 0. -1.
          1   -1    0    0  501    0 -0.00000000000E+00 -0.00000000000E+00 -0.76619449439E+03  0.76619449439E+03  0.00000000000E+00 0. -1.
         25    2    1    2    0    0 -0.35156168505E+02  0.23442253240E+02 -0.14134764729E+03  0.19336895151E+03  0.12500759415E+03 0.  0.
          2    1    1    2  501    0 -0.27025546784E+02 -0.11237266370E+03 -0.58749472678E+03  0.59875541728E+03  0.00000000000E+00 0. -1.
          1    1    1    2  502    0  0.62181715289E+02  0.88930410460E+02  0.50973845312E+03  0.52116069902E+03  0.00000000000E+00 0. -1.
         22    1    3    3    0    0  0.33250794978E+02  0.11104134502E+02  0.87683822803E+00  0.35066879174E+02  0.00000000000E+00 0.  1.
         22    1    3    3    0    0 -0.68406963483E+02  0.12338118738E+02 -0.14222448551E+03  0.15830207234E+03  0.00000000000E+00 0.  1.
</event>
<event>
 7    1  0.5950675E-006  0.7111340E+02  0.7818608E-02  0.1362684E+00
          2   -1    0    0  502    0  0.00000000000E+00  0.00000000000E+00  0.71081377615E+03  0.71081377615E+03  0.00000000000E+00 0. -1.
          1   -1    0    0  501    0 -0.00000000000E+00 -0.00000000000E+00 -0.86722737493E+02  0.86722737493E+02  0.00000000000E+00 0. -1.
         25    2    1    2    0    0  0.43237600310E+02  0.25711848964E+02  0.18928371007E+03  0.23234483233E+03  0.12500083582E+03 0.  0.
          2    1    1    2  501    0  0.11436651829E+02 -0.71185375197E+02 -0.41779332883E+02  0.83328670355E+02  0.00000000000E+00 0. -1.
          1    1    1    2  502    0 -0.54674252139E+02  0.45473526233E+02  0.47658666147E+03  0.48186301096E+03  0.00000000000E+00 0. -1.
         22    1    3    3    0    0 -0.37149654186E+01 -0.26943229607E+02 -0.31564195471E+01  0.27380678846E+02  0.00000000000E+00 0.  1.
         22    1    3    3    0    0  0.46952565729E+02  0.52655078570E+02  0.19244012962E+03  0.20496415349E+03  0.00000000000E+00 0.  1.
</event>
<event>
 7    1  0.5950675E-006  0.1389528E+03  0.7818608E-02  0.1388257E+00
          2   -1    0    0  502    0  0.00000000000E+00  0.00000000000E+00  0.11097624490E+04  0.11097624490E+04  0.00000000000E+00 0. -1.
          1   -1    0    0  501    0 -0.00000000000E+00 -0.00000000000E+00 -0.74577468031E+03  0.74577468031E+03  0.00000000000E+00 0. -1.
         25    2    1    2    0    0  0.41060477038E+02 -0.15081529937E+03  0.37845555175E+03  0.42812173480E+03  0.12501359068E+03 0.  0.
          2    1    1    2  501    0 -0.21820664181E+02  0.17498554341E+02 -0.71424491805E+03  0.71479237807E+03  0.00000000000E+00 0. -1.
          1    1    1    2  502    0 -0.19239812858E+02  0.13331674503E+03  0.69977713498E+03  0.71262301643E+03  0.00000000000E+00 0. -1.
         22    1    3    3    0    0  0.61968635692E+02 -0.28913839844E+02  0.81175079671E+02  0.10613913276E+03  0.00000000000E+00 0.  1.
         22    1    3    3    0    0 -0.20908158653E+02 -0.12190145953E+03  0.29728047208E+03  0.32198260203E+03  0.00000000000E+00 0.  1.
</event>
<event>
 7    1  0.5950675E-006  0.8293348E+02  0.7818608E-02  0.1337277E+00
          2   -1    0    0  502    0  0.00000000000E+00  0.00000000000E+00  0.11642286098E+04  0.11642286098E+04  0.00000000000E+00 0. -1.
          1   -1    0    0  501    0 -0.00000000000E+00 -0.00000000000E+00 -0.71341198260E+03  0.71341198260E+03  0.00000000000E+00 0. -1.
         25    2    1    2    0    0  0.21209505274E+02  0.85779162352E+01  0.34335293404E+03  0.36611489957E+03  0.12500183445E+03 0.  0.
          2    1    1    2  501    0 -0.22307543566E+02 -0.80378325708E+02 -0.69795002231E+03  0.70291716111E+03  0.00000000000E+00 0. -1.
          1    1    1    2  502    0  0.10980382915E+01  0.71800409473E+02  0.80541371547E+03  0.80860853171E+03  0.00000000000E+00 0. -1.
         22    1    3    3    0    0  0.21886865935E+01  0.16977870480E+02  0.34484384649E+03  0.34526847075E+03  0.00000000000E+00 0. -1.
         22    1    3    3    0    0  0.19020818681E+02 -0.83999542445E+01 -0.14909124503E+01  0.20846428820E+02  0.00000000000E+00 0. -1.
</event>
<event>
 7    1  0.5950675E-006  0.6971047E+02  0.7818608E-02  0.1492168E+00
          2   -1    0    0  502    0  0.00000000000E+00  0.00000000000E+00  0.39849655585E+04  0.39849655585E+04  0.00000000000E+00 0. -1.
          1   -1    0    0  501    0 -0.00000000000E+00 -0.00000000000E+00 -0.47593394545E+03  0.47593394545E+03  0.00000000000E+00 0. -1.
         25    2    1    2    0    0  0.76366953168E+01  0.43800346360E+02 -0.32945795411E+03  0.35516675753E+03  0.12499637062E+03 0.  0.
          2    1    1    2  501    0  0.95405202061E+01  0.23784106426E+02 -0.13208395357E+03  0.13454692875E+03  0.00000000000E+00 0. -1.
          1    1    1    2  502    0 -0.17177215523E+02 -0.67584452786E+02  0.39705735207E+04  0.39711858176E+04  0.00000000000E+00 0. -1.
         22    1    3    3    0    0  0.57231081362E+02  0.16384367299E+02 -0.82164106758E+02  0.10146321799E+03  0.00000000000E+00 0.  1.
         22    1    3    3    0    0 -0.49594386045E+02  0.27415979061E+02 -0.24729384735E+03  0.25370353954E+03  0.00000000000E+00 0.  1.
</event>
<event>
 7    1  0.5950675E-006  0.9429729E+02  0.7818608E-02  0.1336538E+00
          2   -1    0    0  502    0  0.00000000000E+00  0.00000000000E+00  0.73989932933E+03  0.73989932933E+03  0.00000000000E+00 0. -1.
          1   -1    0    0  501    0 -0.00000000000E+00 -0.00000000000E+00 -0.16096671194E+03  0.16096671194E+03  0.00000000000E+00 0. -1.
         25    2    1    2    0    0 -0.85976235991E+02 -0.12263217649E+03  0.18987058978E+03  0.27222424624E+03  0.12499854203E+03 0.  0.
          2    1    1    2  501    0  0.36633751213E+02  0.82562821213E+02 -0.10041075493E+03  0.13505913845E+03  0.00000000000E+00 0. -1.
          1    1    1    2  502    0  0.49342484779E+02  0.40069355279E+02  0.48947278253E+03  0.49358265658E+03  0.00000000000E+00 0. -1.
         22    1    3    3    0    0  0.31626808988E+02 -0.33010828625E+02  0.59969965829E+02  0.75408001265E+02  0.00000000000E+00 0. -1.
         22    1    3    3    0    0 -0.11760304498E+03 -0.89621347867E+02  0.12990062395E+03  0.19681624497E+03  0.00000000000E+00 0. -1.
</event>
<event>
 7    1  0.5950675E-006  0.8054855E+02  0.7818608E-02  0.1412093E+00
          2   -1    0    0  502    0  0.00000000000E+00  0.00000000000E+00  0.19241781243E+04  0.19241781243E+04  0.00000000000E+00 0. -1.
          1   -1    0    0  501    0 -0.00000000000E+00 -0.00000000000E+00 -0.40493315493E+02  0.40493315493E+02  0.00000000000E+00 0. -1.
         25    2    1    2    0    0 -0.10903108310E+03  0.21029910345E+01  0.68035948075E+03  0.70029017894E+03  0.12500044809E+03 0.  0.
          2    1    1    2  501    0  0.76026718423E+02  0.20414446150E+02  0.21123781567E+02  0.81504758594E+02  0.00000000000E+00 0. -1.
          1    1    1    2  502    0  0.33004364681E+02 -0.22517437185E+02  0.11822015464E+04  0.11828765022E+04  0.00000000000E+00 0. -1.
         22    1    3    3    0    0 -0.63588981862E+02 -0.45256124045E+02  0.18773886942E+03  0.20331639990E+03  0.00000000000E+00 0.  1.
         22    1    3    3    0    0 -0.45442101242E+02  0.47359115080E+02  0.49262061133E+03  0.49697377904E+03  0.00000000000E+00 0.  1.
</event>
<event>
 7    1  0.5950675E-006  0.6224360E+02  0.7818608E-02  0.1418115E+00
          2   -1    0    0  502    0  0.00000000000E+00  0.00000000000E+00  0.62415798982E+03  0.62415798982E+03  0.00000000000E+00 0. -1.
          1   -1    0    0  501    0 -0.00000000000E+00 -0.00000000000E+00 -0.14034797981E+03  0.14034797981E+03  0.00000000000E+00 0. -1.
         25    2    1    2    0    0  0.52265879531E+02  0.10512999169E+02  0.10717455264E+03  0.17306910659E+03  0.12499714239E+03 0.  0.
          2    1    1    2  501    0 -0.20401118944E+02  0.44932870759E+02 -0.99479378099E+02  0.11104645512E+03  0.00000000000E+00 0. -1.
          1    1    1    2  502    0 -0.31864760588E+02 -0.55445869928E+02  0.47611483547E+03  0.48039040791E+03  0.00000000000E+00 0. -1.
         22    1    3    3    0    0  0.41135173114E+01 -0.60222866820E+01 -0.27837306643E+02  0.28776806680E+02  0.00000000000E+00 0. -1.
         22    1    3    3    0    0  0.48152362220E+02  0.16535285851E+02  0.13501185928E+03  0.14429229991E+03  0.00000000000E+00 0. -1.
</event>
<event>
 7    1  0.5950675E-006  0.5158677E+02  0.7818608E-02  0.1442493E+00
          2   -1    0    0  502    0  0.00000000000E+00  0.00000000000E+00  0.73547804286E+03  0.73547804286E+03  0.00000000000E+00 0. -1.
          1   -1    0    0  501    0 -0.00000000000E+00 -0.00000000000E+00 -0.30411717604E+03  0.30411717604E+03  0.00000000000E+00 0. -1.
         25    2    1    2    0    0  0.52268312881E+02 -0.76188797530E+02 -0.60203128915E+01  0.15555822258E+03  0.12500162816E+03 0.  0.
          2    1    1    2  501    0 -0.10845008319E+02  0.49091777399E+02 -0.21955548088E+03  0.22523815396E+03  0.00000000000E+00 0. -1.
          1    1    1    2  502    0 -0.41423304563E+02  0.27097020131E+02  0.65693666060E+03  0.65879884236E+03  0.00000000000E+00 0. -1.
         22    1    3    3    0    0  0.43703328986E+02  0.15377646963E+02  0.31721408660E+02  0.56148915911E+02  0.00000000000E+00 0. -1.
         22    1    3    3    0    0  0.85649838948E+01 -0.91566444493E+02 -0.37741721551E+02  0.99409306666E+02  0.00000000000E+00 0. -1.
</event>
<event>
 7    1  0.5950675E-006  0.9074096E+02  0.7818608E-02  0.1360319E+00
          2   -1    0    0  502    0  0.00000000000E+00  0.00000000000E+00  0.12688898253E+04  0.12688898253E+04  0.00000000000E+00 0. -1.
          1   -1    0    0  501    0 -0.00000000000E+00 -0.00000000000E+00 -0.12873257059E+04  0.12873257059E+04  0.00000000000E+00 0. -1.
         25    2    1    2    0    0  0.11341379915E+02 -0.73709246776E+02  0.54098232789E+03  0.56022330841E+03  0.12500638480E+03 0.  0.
          2    1    1    2  501    0  0.53863771493E+02 -0.19026293320E+01 -0.12736628569E+04  0.12748027294E+04  0.00000000000E+00 0. -1.
          1    1    1    2  502    0 -0.65205151408E+02  0.75611876108E+02  0.71424464837E+03  0.72118949334E+03  0.00000000000E+00 0. -1.
         22    1    3    3    0    0 -0.59922315222E+01  0.83325784921E+01  0.36643886583E+03  0.36658257063E+03  0.00000000000E+00 0.  1.
         22    1    3    3    0    0  0.17333611437E+02 -0.82041825268E+02  0.17454346206E+03  0.19364073777E+03  0.00000000000E+00 0.  1.
</event>
<event>
 7    1  0.5950675E-006  0.1397790E+03  0.7818608E-02  0.1311188E+00
          2   -1    0    0  502    0  0.00000000000E+00  0.00000000000E+00  0.72845080763E+03  0.72845080763E+03  0.00000000000E+00 0. -1.
          1   -1    0    0  501    0 -0.00000000000E+00 -0.00000000000E+00 -0.47003443389E+03  0.47003443389E+03  0.00000000000E+00 0. -1.
         25    2    1    2    0    0 -0.11160348541E+03  0.50125342442E+02  0.36362149310E+03  0.40350060725E+03  0.12499704755E+03 0.  0.
          2    1    1    2  501    0 -0.87148956165E+01  0.52995840247E+02 -0.43013445484E+03  0.43347451797E+03  0.00000000000E+00 0. -1.
          1    1    1    2  502    0  0.12031838103E+03 -0.10312118269E+03  0.32492933549E+03  0.36151011631E+03  0.00000000000E+00 0. -1.
         22    1    3    3    0    0 -0.13363084818E+03  0.21098217440E+02  0.25109098463E+03  0.28521749758E+03  0.00000000000E+00 0.  1.
         22    1    3    3    0    0  0.22027362770E+02  0.29027125002E+02  0.11253050847E+03  0.11828310967E+03  0.00000000000E+00 0.  1.
</event>
<event>
 7    1  0.5950675E-006  0.2714164E+03  0.7818608E-02  0.1217500E+00
          2   -1    0    0  502    0  0.00000000000E+00  0.00000000000E+00  0.19229022840E+04  0.19229022840E+04  0.00000000000E+00 0. -1.
          1   -1    0    0  501    0 -0.00000000000E+00 -0.00000000000E+00 -0.21032957818E+04  0.21032957818E+04  0.00000000000E+00 0. -1.
         25    2    1    2    0    0 -0.19642236938E+03 -0.17926208710E+03 -0.16450510050E+04  0.16710878750E+04  0.12500093525E+03 0.  0.
          2    1    1    2  501    0 -0.44052570075E+02  0.53232242205E+02 -0.43282346100E+03  0.43830405991E+03  0.00000000000E+00 0. -1.
          1    1    1    2  502    0  0.24047493946E+03  0.12602984490E+03  0.18974809683E+04  0.19168061309E+04  0.00000000000E+00 0. -1.
         22    1    3    3    0    0 -0.55662215585E+02 -0.53051305998E+02 -0.86674378158E+03  0.87014797950E+03  0.00000000000E+00 0. -1.
         22    1    3    3    0    0 -0.14076015380E+03 -0.12621078110E+03 -0.77830722344E+03  0.80093989551E+03  0.00000000000E+00 0. -1.
</event>
<event>
 7    1  0.5950675E-006  0.4664200E+02  0.7818608E-02  0.1515622E+00
          2   -1    0    0  502    0  0.00000000000E+00  0.00000000000E+00  0.29895229964E+03  0.29895229964E+03  0.00000000000E+00 0. -1.
          1   -1    0    0  501    0 -0.00000000000E+00 -0.00000000000E+00 -0.86480174430E+03  0.86480174430E+03  0.00000000000E+00 0. -1.
         25    2    1    2    0    0 -0.19761011341E+02 -0.57994331721E+01 -0.51274170718E+03  0.52815912328E+03  0.12499548085E+03 0.  0.
          2    1    1    2  501    0 -0.24091843262E+02  0.22003358327E+02 -0.34169306030E+03  0.34324730464E+03  0.00000000000E+00 0. -1.
          1    1    1    2  502    0  0.43852854603E+02 -0.16203925155E+02  0.28858532282E+03  0.29234761602E+03  0.00000000000E+00 0. -1.
         22    1    3    3    0    0 -0.64893820730E+02  0.27447568371E+02 -0.29884510721E+03  0.30703904488E+03  0.00000000000E+00 0. -1.
         22    1    3    3    0    0  0.45132809389E+02 -0.33247001543E+02 -0.21389659997E+03  0.22112007840E+03  0.00000000000E+00 0. -1.
</event>
<event>
 7    1  0.5950675E-006  0.3337551E+02  0.7818608E-02  0.1648898E+00
          2   -1    0    0  502    0  0.00000000000E+00  0.00000000000E+00  0.59170699573E+02  0.59170699573E+02  0.00000000000E+00 0. -1.
          1   -1    0    0  501    0 -0.00000000000E+00 -0.00000000000E+00 -0.10609972129E+04  0.10609972129E+04  0.00000000000E+00 0. -1.
         25    2    1    2    0    0  0.40916424883E+02 -0.17908254159E+02 -0.24811148602E+03  0.28137569973E+03  0.12497245902E+03 0.  0.
          2    1    1    2  501    0 -0.77262445048E+01  0.18493445943E+02 -0.78963097971E+03  0.78988529959E+03  0.00000000000E+00 0. -1.
          1    1    1    2  502    0 -0.33190180378E+02 -0.58519178333E+00  0.35915952363E+02  0.48906913183E+02  0.00000000000E+00 0. -1.
         22    1    3    3    0    0  0.40373689170E+02  0.34581703455E+02 -0.20969197639E+03  0.21632534284E+03  0.00000000000E+00 0. -1.
         22    1    3    3    0    0  0.54273571312E+00 -0.52489957614E+02 -0.38419509629E+02  0.65050356898E+02  0.00000000000E+00 0. -1.
</event>
<event>
 7    1  0.5950675E-006  0.6112530E+02  0.7818608E-02  0.1399607E+00
          2   -1    0    0  502    0  0.00000000000E+00  0.00000000000E+00  0.30770890416E+04  0.30770890416E+04  0.00000000000E+00 0. -1.
          1   -1    0    0  501    0 -0.00000000000E+00 -0.00000000000E+00 -0.82497641337E+01  0.82497641337E+01  0.00000000000E+00 0. -1.
         25    2    1    2    0    0 -0.24710278815E+02 -0.24681157990E+02  0.14146956052E+04  0.14206367474E+04  0.12500142071E+03 0.  0.
          2    1    1    2  501    0  0.33433055606E+02 -0.47482130405E+02  0.18816226209E+03  0.19691967599E+03  0.00000000000E+00 0. -1.
          1    1    1    2  502    0 -0.87227767911E+01  0.72163288395E+02  0.14659814102E+04  0.14677823824E+04  0.00000000000E+00 0. -1.
         22    1    3    3    0    0  0.16392764066E+02  0.68935164860E+01  0.11863251134E+04  0.11864583929E+04  0.00000000000E+00 0. -1.
         22    1    3    3    0    0 -0.41103042882E+02 -0.31574674476E+02  0.22837049180E+03  0.23417835452E+03  0.00000000000E+00 0. -1.
</event>
<event>
 7    1  0.5950675E-006  0.7863110E+02  0.7818608E-02  0.1373375E+00
          2   -1    0    0  502    0  0.00000000000E+00  0.00000000000E+00  0.85485773584E+03  0.85485773584E+03  0.00000000000E+00 0. -1.
          1   -1    0    0  501    0 -0.00000000000E+00 -0.00000000000E+00 -0.11122170337E+04  0.11122170337E+04  0.00000000000E+00 0. -1.
         25    2    1    2    0    0  0.10056081247E+02 -0.41746392288E+02  0.45458683875E+02  0.13977091381E+03  0.12500212146E+03 0.  0.
          2    1    1    2  501    0  0.38348209348E+02  0.69502602536E+02 -0.10625573143E+04  0.10655182979E+04  0.00000000000E+00 0. -1.
          1    1    1    2  502    0 -0.48404290594E+02 -0.27756210248E+02  0.75973933262E+03  0.76178555781E+03  0.00000000000E+00 0. -1.
         22    1    3    3    0    0  0.75871473024E+01 -0.85055094684E+02  0.14835922748E+02  0.86672017051E+02  0.00000000000E+00 0. -1.
         22    1    3    3    0    0  0.24689339444E+01  0.43308702396E+02  0.30622761127E+02  0.53098896759E+02  0.00000000000E+00 0. -1.
</event>
<event>
 7    1  0.5950675E-006  0.2346536E+03  0.7818608E-02  0.1254094E+00
          2   -1    0    0  502    0  0.00000000000E+00  0.00000000000E+00  0.13602805994E+03  0.13602805994E+03  0.00000000000E+00 0. -1.
          1   -1    0    0  501    0 -0.00000000000E+00 -0.00000000000E+00 -0.25756939503E+04  0.25756939503E+04  0.00000000000E+00 0. -1.
         25    2    1    2    0    0 -0.16542100751E+03 -0.18293193717E+03 -0.87145124866E+03  0.91425927383E+03  0.12495814350E+03 0.  0.
          2    1    1    2  501    0  0.11383288996E+03  0.20191193541E+03 -0.16677377742E+04  0.16837682857E+04  0.00000000000E+00 0. -1.
          1    1    1    2  502    0  0.51588117551E+02 -0.18979998235E+02  0.99523132524E+02  0.11369445067E+03  0.00000000000E+00 0. -1.
         22    1    3    3    0    0 -0.59160620183E+02 -0.75883552890E+02 -0.56000369786E+03  0.56820985050E+03  0.00000000000E+00 0.  1.
         22    1    3    3    0    0 -0.10626038732E+03 -0.10704838428E+03 -0.31144755080E+03  0.34604942333E+03  0.00000000000E+00 0.  1.
</event>
<event>
 7    1  0.5950675E-006  0.4417772E+02  0.7818608E-02  0.1523456E+00
          2   -1    0    0  502    0  0.00000000000E+00  0.00000000000E+00  0.12101357125E+03  0.12101357125E+03  0.00000000000E+00 0. -1.
          1   -1    0    0  501    0 -0.00000000000E+00 -0.00000000000E+00 -0.95126251341E+03  0.95126251341E+03  0.00000000000E+00 0. -1.
         25    2    1    2    0    0 -0.71253062301E+02  0.20836274474E+02 -0.36270337548E+03  0.39075586015E+03  0.12500101774E+03 0.  0.
          2    1    1    2  501    0  0.32688646286E+02  0.79941590276E-02 -0.56955401683E+03  0.57049130207E+03  0.00000000000E+00 0. -1.
          1    1    1    2  502    0  0.38564416015E+02 -0.20844268633E+02  0.10200845014E+03  0.11102892244E+03  0.00000000000E+00 0. -1.
         22    1    3    3    0    0 -0.15857631376E+02 -0.23068074487E+02 -0.28236367431E+03  0.28374785480E+03  0.00000000000E+00 0.  1.
         22    1    3    3    0    0 -0.55395430925E+02  0.43904348960E+02 -0.80339701165E+02  0.10700800535E+03  0.00000000000E+00 0.  1.
</event>
<event>
 7    1  0.5950675E-006  0.5792313E+02  0.7818608E-02  0.1462476E+00
          2   -1    0    0  502    0  0.00000000000E+00  0.00000000000E+00  0.15978463490E+03  0.15978463490E+03  0.00000000000E+00 0. -1.
          1   -1    0    0  501    0 -0.00000000000E+00 -0.00000000000E+00 -0.38513558748E+03  0.38513558748E+03  0.00000000000E+00 0. -1.
         25    2    1    2    0    0  0.26430990333E+02  0.37273447378E+02 -0.40529915738E+02  0.13912291243E+03  0.12499841425E+03 0.  0.
          2    1    1    2  501    0  0.47560783801E+01 -0.59103976434E+02 -0.28892739147E+03  0.29494904281E+03  0.00000000000E+00 0. -1.
          1    1    1    2  502    0 -0.31187068713E+02  0.21830529056E+02  0.10410635463E+03  0.11084826714E+03  0.00000000000E+00 0. -1.
         22    1    3    3    0    0  0.79314539931E+01  0.28919364579E+02 -0.85056507905E+02  0.90187843677E+02  0.00000000000E+00 0. -1.
         22    1    3    3    0    0  0.18499536340E+02  0.83540827992E+01  0.44526592167E+02  0.48935068757E+02  0.00000000000E+00 0. -1.
</event>
<event>
 7    1  0.5950675E-006  0.1416102E+03  0.7818608E-02  0.1355924E+00
          2   -1    0    0  502    0  0.00000000000E+00  0.00000000000E+00  0.94191288804E+03  0.94191288804E+03  0.00000000000E+00 0. -1.
          1   -1    0    0  501    0 -0.00000000000E+00 -0.00000000000E+00 -0.48753684236E+03  0.48753684236E+03  0.00000000000E+00 0. -1.
         25    2    1    2    0    0 -0.11370724170E+03  0.14401244580E+00 -0.71862903508E+02  0.18362651267E+03  0.12500024680E+03 0.  0.
          2    1    1    2  501    0 -0.27366857433E+02 -0.23141614563E+02 -0.35311447010E+03  0.35492859592E+03  0.00000000000E+00 0. -1.
          1    1    1    2  502    0  0.14107409913E+03  0.22997602117E+02  0.87935341929E+03  0.89089462181E+03  0.00000000000E+00 0. -1.
         22    1    3    3    0    0 -0.73868165397E+02  0.57114697681E+02 -0.16641752151E+02  0.94844833623E+02  0.00000000000E+00 0.  1.
         22    1    3    3    0    0 -0.39839076303E+02 -0.56970685236E+02 -0.55221151356E+02  0.88781679045E+02  0.00000000000E+00 0.  1.
</event>
<event>
 7    1  0.5950675E-006  0.1558033E+03  0.7818608E-02  0.1225864E+00
          2   -1    0    0  502    0  0.00000000000E+00  0.00000000000E+00  0.13333642332E+04  0.13333642332E+04  0.00000000000E+00 0. -1.
          1   -1    0    0  501    0 -0.00000000000E+00 -0.00000000000E+00 -0.16233872002E+04  0.16233872002E+04  0.00000000000E+00 0. -1.
         25    2    1    2    0    0 -0.17796930275E+03 -0.83688083139E+02  0.48394068523E+02  0.23799975730E+03  0.12500052251E+03 0.  0.
          2    1    1    2  501    0  0.79652806072E+02  0.13363750601E+03 -0.15220561877E+04  0.15299864676E+04  0.00000000000E+00 0. -1.
          1    1    1    2  502    0  0.98316496674E+02 -0.49949422870E+02  0.11836391522E+04  0.11887652085E+04  0.00000000000E+00 0. -1.
         22    1    3    3    0    0 -0.13664712845E+03 -0.38625532631E+02 -0.23164877911E+02  0.14387835505E+03  0.00000000000E+00 0.  1.
         22    1    3    3    0    0 -0.41322174300E+02 -0.45062550508E+02  0.71558946434E+02  0.94121402252E+02  0.00000000000E+00 0.  1.
</event>
<event>
 7    1  0.5950675E-006  0.4497518E+02  0.7818608E-02  0.1541148E+00
          2   -1    0    0  502    0  0.00000000000E+00  0.00000000000E+00  0.67715107331E+02  0.67715107331E+02  0.00000000000E+00 0. -1.
          1   -1    0    0  501    0 -0.00000000000E+00 -0.00000000000E+00 -0.30553343564E+03  0.30553343564E+03  0.00000000000E+00 0. -1.
         25    2    1    2    0    0 -0.85676205901E+01 -0.24925893112E+02 -0.13197145920E+03  0.18367514574E+03  0.12500155539E+03 0.  0.
          2    1    1    2  501    0  0.19758036955E+02 -0.20653107149E+02 -0.13253596002E+03  0.13558285864E+03  0.00000000000E+00 0. -1.
          1    1    1    2  502    0 -0.11190416365E+02  0.45579000261E+02  0.26689090909E+02  0.53990538585E+02  0.00000000000E+00 0. -1.
         22    1    3    3    0    0  0.47208324824E+02  0.13929434589E+02 -0.20943367609E+02  0.53490931264E+02  0.00000000000E+00 0.  1.
         22    1    3    3    0    0 -0.55775945414E+02 -0.38855327702E+02 -0.11102809159E+03  0.13018421448E+03  0.00000000000E+00 0.  1.
</event>
<event>
 7    1  0.5950675E-006  0.7568651E+02  0.7818608E-02  0.1429694E+00
          2   -1    0    0  502    0  0.00000000000E+00  0.00000000000E+00  0.45175869274E+03  0.45175869274E+03  0.00000000000E+00 0. -1.
          1   -1    0    0  501    0 -0.00000000000E+00 -0.00000000000E+00 -0.54370980760E+03  0.54370980760E+03  0.00000000000E+00 0. -1.
         25    2    1    2    0    0  0.59220276384E+02 -0.27808286447E+02 -0.28134904684E+03  0.31474239621E+03  0.12500059155E+03 0.  0.
          2    1    1    2  501    0 -0.51192369875E+02  0.64073958839E+02 -0.23799122146E+03  0.25172594707E+03  0.00000000000E+00 0. -1.
          1    1    1    2  502    0 -0.80279065092E+01 -0.36265672392E+02  0.42738915344E+03  0.42900015706E+03  0.00000000000E+00 0. -1.
         22    1    3    3    0    0  0.61970483874E+02  0.38323410664E+02 -0.17383502343E+03  0.18848777161E+03  0.00000000000E+00 0. -1.
         22    1    3    3    0    0 -0.27502074893E+01 -0.66131697111E+02 -0.10751402341E+03  0.12625462460E+03  0.00000000000E+00 0. -1.
</event>
<event>
 7    1  0.5950675E-006  0.4940693E+02  0.7818608E-02  0.1574765E+00
          2   -1    0    0  502    0  0.00000000000E+00  0.00000000000E+00  0.85044704760E+03  0.85044704760E+03  0.00000000000E+00 0. -1.
          1   -1    0    0  501    0 -0.00000000000E+00 -0.00000000000E+00 -0.88991142197E+03  0.88991142197E+03  0.00000000000E+00 0. -1.
         25    2    1    2    0    0  0.49105040535E+01  0.33052745315E+02  0.26651446401E+03  0.29626197388E+03  0.12499840247E+03 0.  0.
          2    1    1    2  501    0  0.92481659081E+01 -0.48578796053E+02 -0.87414463768E+03  0.87554227515E+03  0.00000000000E+00 0. -1.
          1    1    1    2  502    0 -0.14158669962E+02  0.15526050738E+02  0.56816579930E+03  0.56855422053E+03  0.00000000000E+00 0. -1.
         22    1    3    3    0    0 -0.49349707273E+02  0.52170227556E+02  0.15184973936E+03  0.16797460997E+03  0.00000000000E+00 0. -1.
         22    1    3    3    0    0  0.54260211326E+02 -0.19117482240E+02  0.11466472466E+03  0.12828736392E+03  0.00000000000E+00 0. -1.
</event>
<event>
 7    1  0.5950675E-006  0.8608396E+02  0.7818608E-02  0.1364144E+00
          2   -1    0    0  502    0  0.00000000000E+00  0.00000000000E+00  0.85071757029E+03  0.85071757029E+03  0.00000000000E+00 0. -1.
          1   -1    0    0  501    0 -0.00000000000E+00 -0.00000000000E+00 -0.25045268235E+03  0.25045268235E+03  0.00000000000E+00 0. -1.
         25    2    1    2    0    0 -0.10974536825E+03  0.81519821927E+01 -0.33477070137E+02  0.16987382492E+03  0.12500360595E+03 0.  0.
          2    1    1    2  501    0  0.70022160025E+02 -0.46224585898E+02 -0.13588700582E+03  0.15970314206E+03  0.00000000000E+00 0. -1.
          1    1    1    2  502    0  0.39723208229E+02  0.38072603705E+02  0.76962896388E+03  0.77159328566E+03  0.00000000000E+00 0. -1.
         22    1    3    3    0    0 -0.85555997589E+02  0.30253961658E+02 -0.74471918362E+02  0.11739334540E+03  0.00000000000E+00 0.  1.
         22    1    3    3    0    0 -0.24189370665E+02 -0.22101979466E+02  0.40994848225E+02  0.52480479518E+02  0.00000000000E+00 0.  1.
</event>
<event>
 7    1  0.5950675E-006  0.6261908E+02  0.7818608E-02  0.1475478E+00
          2   -1    0    0  502    0  0.00000000000E+00  0.00000000000E+00  0.10500374276E+04  0.10500374276E+04  0.00000000000E+00 0. -1.
          1   -1    0    0  501    0 -0.00000000000E+00 -0.00000000000E+00 -0.37025021947E+02  0.37025021947E+02  0.00000000000E+00 0. -1.
         25    2    1    2    0    0 -0.43887178012E+01 -0.31785968070E+02  0.73993189232E+03  0.75110192084E+03  0.12500112642E+03 0.  0.
          2    1    1    2  501    0  0.41548501953E+01  0.63863058791E+02  0.30916332090E+01  0.64072702879E+02  0.00000000000E+00 0. -1.
          1    1    1    2  502    0  0.23386760591E+00 -0.32077090721E+02  0.26998888013E+03  0.27188782583E+03  0.00000000000E+00 0. -1.
         22    1    3    3    0    0  0.28545016369E+02  0.40494650009E+02  0.27151424134E+03  0.27599749617E+03  0.00000000000E+00 0. -1.
         22    1    3    3    0    0 -0.32933734170E+02 -0.72280618079E+02  0.46841765097E+03  0.47510442467E+03  0.00000000000E+00 0. -1.
</event>
<event>
 7    1  0.5950675E-006  0.4283514E+02  0.7818608E-02  0.1604350E+00
          2   -1    0    0  502    0  0.00000000000E+00  0.00000000000E+00  0.94760652745E+03  0.94760652745E+03  0.00000000000E+00 0. -1.
          1   -1    0    0  501    0 -0.00000000000E+00 -0.00000000000E+00 -0.14560417231E+04  0.14560417231E+04  0.00000000000E+00 0. -1.
         25    2    1    2    0    0  0.27995298854E+02 -0.23204242281E+02 -0.69554526644E+03  0.70762313715E+03  0.12500045181E+03 0.  0.
          2    1    1    2  501    0 -0.11781487328E+02 -0.16451799681E+02 -0.75383433202E+03  0.75410587140E+03  0.00000000000E+00 0. -1.
          1    1    1    2  502    0 -0.16213811526E+02  0.39656041962E+02  0.94094440278E+03  0.94191924201E+03  0.00000000000E+00 0. -1.
         22    1    3    3    0    0  0.21386199190E+02 -0.60127158257E+02 -0.18492376498E+03  0.19562577419E+03  0.00000000000E+00 0. -1.
         22    1    3    3    0    0  0.66090996646E+01  0.36922915975E+02 -0.51062150146E+03  0.51199736296E+03  0.00000000000E+00 0. -1.
</event>
<event>
 7    1  0.5950675E-006  0.6922510E+02  0.7818608E-02  0.1498115E+00
          2   -1    0    0  502    0  0.00000000000E+00  0.00000000000E+00  0.18062000462E+03  0.18062000462E+03  0.00000000000E+00 0. -1.
          1   -1    0    0  501    0 -0.00000000000E+00 -0.00000000000E+00 -0.52028801938E+03  0.52028801938E+03  0.00000000000E+00 0. -1.
         25    2    1    2    0    0 -0.37064824056E+02 -0.33110139092E+02 -0.14064537856E+03  0.19461711282E+03  0.12499846239E+03 0.  0.
          2    1    1    2  501    0 -0.24765194317E+02 -0.18773630074E+00 -0.34416343059E+03  0.34505335392E+03  0.00000000000E+00 0. -1.
          1    1    1    2  502    0  0.61830018373E+02  0.33297875392E+02  0.14514079439E+03  0.16123755727E+03  0.00000000000E+00 0. -1.
         22    1    3    3    0    0  0.39180615464E+02 -0.19420974517E+02 -0.95305968894E+02  0.10485953741E+03  0.00000000000E+00 0.  1.
         22    1    3    3    0    0 -0.76245439520E+02 -0.13689164574E+02 -0.45339409666E+02  0.89757575408E+02  0.00000000000E+00 0.  1.
</event>
<event>
 7    1  0.5950675E-006  0.1004649E+03  0.7818608E-02  0.1302721E+00
          2   -1    0    0  502    0  0.00000000000E+00  0.00000000000E+00  0.67521684427E+03  0.67521684427E+03  0.00000000000E+00 0. -1.
          1   -1    0    0  501    0 -0.00000000000E+00 -0.00000000000E+00 -0.24401831545E+04  0.24401831545E+04  0.00000000000E+00 0. -1.
         25    2    1    2    0    0  0.79434727680E+02 -0.10165219970E+03  0.23844704612E+03  0.29853929247E+03  0.12500267868E+03 0.  0.
          2    1    1    2  501    0 -0.80688318342E+02  0.23380221850E+01 -0.24033856784E+04  0.24047408987E+04  0.00000000000E+00 0. -1.
          1    1    1    2  502    0  0.12535906616E+01  0.99314177516E+02  0.39997232205E+03  0.41211980752E+03  0.00000000000E+00 0. -1.
         22    1    3    3    0    0  0.62108702025E+02 -0.12161135700E+03  0.13595017437E+03  0.19268955065E+03  0.00000000000E+00 0.  1.
         22    1    3    3    0    0  0.17326025655E+02  0.19959157295E+02  0.10249687175E+03  0.10584974182E+03  0.00000000000E+00 0.  1.
</event>
<event>
 7    1  0.5950675E-006  0.1295868E+03  0.7818608E-02  0.1409716E+00
          2   -1    0    0  502    0  0.00000000000E+00  0.00000000000E+00  0.52212137307E+03  0.52212137307E+03  0.00000000000E+00 0. -1.
          1   -1    0    0  501    0 -0.00000000000E+00 -0.00000000000E+00 -0.49861437687E+03  0.49861437687E+03  0.00000000000E+00 0. -1.
         25    2    1    2    0    0 -0.82386277399E+02  0.73967284423E+02  0.59436537122E+02  0.17724594626E+03  0.12499906260E+03 0.  0.
          2    1    1    2  501    0  0.86131165396E+02 -0.98987371533E+02 -0.42950560518E+03  0.44910148324E+03  0.00000000000E+00 0. -1.
          1    1    1    2  502    0 -0.37448879969E+01  0.25020087110E+02  0.39357606426E+03  0.39438832044E+03  0.00000000000E+00 0. -1.
         22    1    3    3    0    0 -0.29276341457E+02 -0.11662283325E+02 -0.29262767704E+02  0.43004913617E+02  0.00000000000E+00 0.  1.
         22    1    3    3    0    0 -0.53109935941E+02  0.85629567747E+02  0.88699304826E+02  0.13424103264E+03  0.00000000000E+00 0.  1.
</event>
<event>
 7    1  0.5950675E-006  0.7233186E+02  0.7818608E-02  0.1368747E+00
          2   -1    0    0  502    0  0.00000000000E+00  0.00000000000E+00  0.10761316792E+04  0.10761316792E+04  0.00000000000E+00 0. -1.
          1   -1    0    0  501    0 -0.00000000000E+00 -0.00000000000E+00 -0.45955713709E+02  0.45955713709E+02  0.00000000000E+00 0. -1.
         25    2    1    2    0    0  0.16488597434E+02 -0.23376966204E+02  0.19940210004E+03  0.23707689944E+03  0.12500360936E+03 0.  0.
          2    1    1    2  501    0 -0.17462890998E+02  0.86391529107E+02  0.49280858323E+02  0.10098045286E+03  0.00000000000E+00 0. -1.
          1    1    1    2  502    0  0.97429356425E+00 -0.63014562904E+02  0.78149300718E+03  0.78403004066E+03  0.00000000000E+00 0. -1.
         22    1    3    3    0    0  0.58047245068E+02 -0.27141895361E+02  0.48093444519E+02  0.80119564087E+02  0.00000000000E+00 0. -1.
         22    1    3    3    0    0 -0.41558647634E+02  0.37649291576E+01  0.15130865552E+03  0.15695733535E+03  0.00000000000E+00 0. -1.
</event>
<event>
 7    1  0.5950675E-006  0.6770222E+02  0.7818608E-02  0.1403579E+00
          2   -1    0    0  502    0  0.00000000000E+00  0.00000000000E+00  0.92390988174E+03  0.92390988174E+03  0.00000000000E+00 0. -1.
          1   -1    0    0  501    0 -0.00000000000E+00 -0.00000000000E+00 -0.54647651130E+03  0.54647651130E+03  0.00000000000E+00 0. -1.
         25    2    1    2    0    0 -0.10781708278E+03 -0.28244380188E+02  0.20674002713E+03  0.26606114804E+03  0.12499930930E+03 0.  0.
          2    1    1    2  501    0  0.57470192964E+02  0.35095307919E+02 -0.51367665154E+03  0.51807162251E+03  0.00000000000E+00 0. -1.
          1    1    1    2  502    0  0.50346889819E+02 -0.68509277314E+01  0.68436999485E+03  0.68625362249E+03  0.00000000000E+00 0. -1.
         22    1    3    3    0    0 -0.12809942155E+03 -0.50131551762E+02  0.17284006890E+03  0.22089889928E+03  0.00000000000E+00 0. -1.
         22    1    3    3    0    0  0.20282338768E+02  0.21887171574E+02  0.33899958222E+02  0.45162248758E+02  0.00000000000E+00 0. -1.
</event>
<event>
 7    1  0.5950675E-006  0.1598171E+03  0.7818608E-02  0.1324980E+00
          2   -1    0    0  502    0  0.00000000000E+00  0.00000000000E+00  0.28329534187E+04  0.28329534187E+04  0.00000000000E+00 0. -1.
          1   -1    0    0  501    0 -0.00000000000E+00 -0.00000000000E+00 -0.10005492771E+03  0.10005492771E+03  0.00000000000E+00 0. -1.
         25    2    1    2    0    0  0.48740257713E+01 -0.14734855633E+03  0.11965111171E+04  0.12120229859E+04  0.12500204643E+03 0.  0.
          2    1    1    2  501    0  0.38650200997E+02 -0.15148258910E+02 -0.83042969723E+02  0.92840953278E+02  0.00000000000E+00 0. -1.
          1    1    1    2  502    0 -0.43524226768E+02  0.16249681524E+03  0.16194303436E+04  0.16281444073E+04  0.00000000000E+00 0. -1.
         22    1    3    3    0    0 -0.58070913004E+02 -0.83464393407E+02  0.72019984872E+03  0.72734198146E+03  0.00000000000E+00 0. -1.
         22    1    3    3    0    0  0.62944938776E+02 -0.63884162923E+02  0.47631126842E+03  0.48468100439E+03  0.00000000000E+00 0. -1.
</event>
<event>
 7    1  0.5950675E-006  0.1135004E+03  0.7818608E-02  0.1317576E+00
          2   -1    0    0  502    0  0.00000000000E+00  0.00000000000E+00  0.84049158716E+03  0.84049158716E+03  0.00000000000E+00 0. -1.
          1   -1    0    0  501    0 -0.00000000000E+00 -0.00000000000E+00 -0.10156244201E+04  0.10156244201E+04  0.00000000000E+00 0. -1.
         25    2    1    2    0    0 -0.65470209511E+02 -0.97345520251E+02 -0.10108232035E+03  0.19901140201E+03  0.12500161597E+03 0.  0.
          2    1    1    2  501    0  0.60253830505E+02 -0.16385687404E+02 -0.86034622321E+03  0.86260920389E+03  0.00000000000E+00 0. -1.
          1    1    1    2  502    0  0.52163790055E+01  0.11373120765E+03  0.78629571064E+03  0.79449540135E+03  0.00000000000E+00 0. -1.
         22    1    3    3    0    0 -0.28651912964E+02 -0.98221178193E+02 -0.11992699727E+03  0.15764141789E+03  0.00000000000E+00 0.  1.
         22    1    3    3    0    0 -0.36818296547E+02  0.87565794252E+00  0.18844676915E+02  0.41369984112E+02  0.00000000000E+00 0.  1.
</event>
<event>
 7    1  0.5950675E-006  0.5508030E+02  0.7818608E-02  0.1528095E+00
          2   -1    0    0  502    0  0.00000000000E+00  0.00000000000E+00  0.24530713329E+03  0.24530713329E+03  0.00000000000E+00 0. -1.
          1   -1    0    0  501    0 -0.00000000000E+00 -0.00000000000E+00 -0.19979635836E+04  0.19979635836E+04  0.00000000000E+00 0. -1.
         25    2    1    2    0    0  0.18961150922E+02  0.30845494401E+02  0.17666864134E+03  0.21942497267E+03  0.12499816011E+03 0.  0.
          2    1    1    2  501    0 -0.92484321857E+01 -0.54340675851E+02 -0.19727532120E+04  0.19735231638E+04  0.00000000000E+00 0. -1.
          1    1    1    2  502    0 -0.97127187368E+01  0.23495181450E+02  0.43428120388E+02  0.50322580390E+02  0.00000000000E+00 0. -1.
         22    1    3    3    0    0 -0.53617994116E+02  0.92534420630E+01  0.74608306603E+02  0.92341295730E+02  0.00000000000E+00 0. -1.
         22    1    3    3    0    0  0.72579145038E+02  0.21592052338E+02  0.10206033473E+03  0.12708367694E+03  0.00000000000E+00 0. -1.
</event>
<event>
 7    1  0.5950675E-006  0.2941491E+02  0.7818608E-02  0.1614281E+00
          2   -1    0    0  502    0  0.00000000000E+00  0.00000000000E+00  0.86313703702E+02  0.86313703702E+02  0.00000000000E+00 0. -1.
          1   -1    0    0  501    0 -0.00000000000E+00 -0.00000000000E+00 -0.61873756416E+03  0.61873756416E+03  0.00000000000E+00 0. -1.
         25    2    1    2    0    0 -0.35231999226E+02 -0.37342823249E+02 -0.53139739425E+02  0.14519904149E+03  0.12499259789E+03 0.  0.
          2    1    1    2  501    0  0.25725760729E+02  0.10478423024E+02 -0.51410626408E+03  0.51485615747E+03  0.00000000000E+00 0. -1.
          1    1    1    2  502    0  0.95062384970E+01  0.26864400225E+02  0.34822143051E+02  0.44996068900E+02  0.00000000000E+00 0. -1.
         22    1    3    3    0    0 -0.54685086713E+02  0.90459823986E+01 -0.72533489328E+02  0.91287433859E+02  0.00000000000E+00 0. -1.
         22    1    3    3    0    0  0.19453087487E+02 -0.46388805648E+02  0.19393749904E+02  0.53911607633E+02  0.00000000000E+00 0. -1.
</event>
<event>
 7    1  0.5950675E-006  0.6634501E+02  0.7818608E-02  0.1513018E+00
          2   -1    0    0  502    0  0.00000000000E+00  0.00000000000E+00  0.16048213495E+03  0.16048213495E+03  0.00000000000E+00 0. -1.
          1   -1    0    0  501    0 -0.00000000000E+00 -0.00000000000E+00 -0.82168645570E+03  0.82168645570E+03  0.00000000000E+00 0. -1.
         25    2    1    2    0    0  0.21999918479E+02  0.44013450898E+02 -0.11137700004E+03  0.17450181857E+03  0.12499947309E+03 0.  0.
          2    1    1    2  501    0 -0.78488238162E+01  0.21984901239E+02 -0.66969469574E+03  0.67010142920E+03  0.00000000000E+00 0. -1.
          1    1    1    2  502    0 -0.14151094663E+02 -0.65998352137E+02  0.11986737502E+03  0.13756534287E+03  0.00000000000E+00 0. -1.
         22    1    3    3    0    0 -0.11809944038E+02 -0.31016870758E+02 -0.79674083866E+02  0.86310374172E+02  0.00000000000E+00 0. -1.
         22    1    3    3    0    0  0.33809862518E+02  0.75030321657E+02 -0.31702916175E+02  0.88191444400E+02  0.00000000000E+00 0. -1.
</event>
<event>
 7    1  0.5950675E-006  0.5074142E+02  0.7818608E-02  0.1541788E+00
          2   -1    0    0  502    0  0.00000000000E+00  0.00000000000E+00  0.13490440968E+03  0.13490440968E+03  0.00000000000E+00 0. -1.
          1   -1    0    0  501    0 -0.00000000000E+00 -0.00000000000E+00 -0.19028055956E+03  0.19028055956E+03  0.00000000000E+00 0. -1.
         25    2    1    2    0    0  0.53288855874E+02  0.29942743244E+02  0.16269789823E+02  0.14007737719E+03  0.12498278084E+03 0.  0.
          2    1    1    2  501    0 -0.23323683387E+02  0.96179802764E+01 -0.11589998811E+03  0.11861410959E+03  0.00000000000E+00 0. -1.
          1    1    1    2  502    0 -0.29965172487E+02 -0.39560723520E+02  0.44254048403E+02  0.66493482445E+02  0.00000000000E+00 0. -1.
         22    1    3    3    0    0  0.48539715795E+01  0.49711454789E+02  0.55516357007E+02  0.74678348084E+02  0.00000000000E+00 0.  1.
         22    1    3    3    0    0  0.48434884294E+02 -0.19768711545E+02 -0.39246567184E+02  0.65399029110E+02  0.00000000000E+00 0.  1.
</event>
<event>
 7    1  0.5950675E-006  0.5708662E+02  0.7818608E-02  0.1465969E+00
          2   -1    0    0  502    0  0.00000000000E+00  0.00000000000E+00  0.20613990495E+04  0.20613990495E+04  0.00000000000E+00 0. -1.
          1   -1    0    0  501    0 -0.00000000000E+00 -0.00000000000E+00 -0.50060664887E+02  0.50060664887E+02  0.00000000000E+00 0. -1.
         25    2    1    2    0    0  0.49921339518E+02 -0.19595931541E+02  0.11286161052E+03  0.17674811223E+03  0.12500404545E+03 0.  0.
          2    1    1    2  501    0 -0.31774460231E+02  0.52600310879E+02  0.34736137647E+02  0.70590426307E+02  0.00000000000E+00 0. -1.
          1    1    1    2  502    0 -0.18146879287E+02 -0.33004379338E+02  0.18637406364E+04  0.18641211758E+04  0.00000000000E+00 0. -1.
         22    1    3    3    0    0  0.50547165547E+02  0.42462771339E+01 -0.99075302162E+01  0.51683710870E+02  0.00000000000E+00 0.  1.
         22    1    3    3    0    0 -0.62582602837E+00 -0.23842208675E+02  0.12276914073E+03  0.12506440136E+03  0.00000000000E+00 0.  1.
</event>
<event>
 7    1  0.5950675E-006  0.4867127E+02  0.7818608E-02  0.1469510E+00
          2   -1    0    0  502    0  0.00000000000E+00  0.00000000000E+00  0.30021965839E+04  0.30021965839E+04  0.00000000000E+00 0. -1.
          1   -1    0    0  501    0 -0.00000000000E+00 -0.00000000000E+00 -0.31146299814E+02  0.31146299814E+02  0.00000000000E+00 0. -1.
         25    2    1    2    0    0 -0.13375838472E+02  0.49215126678E+02  0.54613264318E+03  0.56256991384E+03  0.12499200883E+03 0.  0.
          2    1    1    2  501    0  0.45143119616E+02 -0.20136391272E+02  0.41305141563E+01  0.49602788725E+02  0.00000000000E+00 0. -1.
          1    1    1    2  502    0 -0.31767281144E+02 -0.29078735406E+02  0.24207871267E+04  0.24211701811E+04  0.00000000000E+00 0. -1.
         22    1    3    3    0    0  0.17930378668E+02  0.83628054770E+02  0.29430009157E+03  0.30647625344E+03  0.00000000000E+00 0.  1.
         22    1    3    3    0    0 -0.31306217140E+02 -0.34412928092E+02  0.25183255160E+03  0.25609366040E+03  0.00000000000E+00 0.  1.
</event>
<event>
 7    1  0.5950675E-006  0.8095488E+02  0.7818608E-02  0.1335269E+00
          2   -1    0    0  502    0  0.00000000000E+00  0.00000000000E+00  0.10979809390E+04  0.10979809390E+04  0.00000000000E+00 0. -1.
          1   -1    0    0  501    0 -0.00000000000E+00 -0.00000000000E+00 -0.12673892640E+03  0.12673892640E+03  0.00000000000E+00 0. -1.
         25    2    1    2    0    0  0.50375799487E+02 -0.49938962123E+02  0.19224641511E+03  0.24003158163E+03  0.12499941978E+03 0.  0.
          2    1    1    2  501    0 -0.82356246295E+02 -0.17748321782E+02 -0.83696210804E+02  0.11875441016E+03  0.00000000000E+00 0. -1.
          1    1    1    2  502    0  0.31980446808E+02  0.67687283905E+02  0.86269180832E+03  0.86593387364E+03  0.00000000000E+00 0. -1.
         22    1    3    3    0    0 -0.32079345708E+02 -0.50093940608E+02  0.99555479312E+02  0.11597318987E+03  0.00000000000E+00 0.  1.
         22    1    3    3    0    0  0.82455145195E+02  0.15497848540E+00  0.92690935799E+02  0.12405839176E+03  0.00000000000E+00 0.  1.
</event>
<event>
 7    1  0.5950675E-006  0.1069794E+03  0.7818608E-02  0.1295006E+00
          2   -1    0    0  502    0  0.00000000000E+00  0.00000000000E+00  0.23819843915E+04  0.23819843915E+04  0.00000000000E+00 0. -1.
          1   -1    0    0  501    0 -0.00000000000E+00 -0.00000000000E+00 -0.17505078886E+02  0.17505078886E+02  0.00000000000E+00 0. -1.
         25    2    1    2    0    0  0.31517142196E+02 -0.17574691624E+01  0.60925223877E+03  0.62274448434E+03  0.12500393346E+03 0.  0.
          2    1    1    2  501    0 -0.77576605465E+02  0.98313792067E+02  0.44881024496E+03  0.46595532770E+03  0.00000000000E+00 0. -1.
          1    1    1    2  502    0  0.46059463269E+02 -0.96556322905E+02  0.13064168289E+04  0.13107896583E+04  0.00000000000E+00 0. -1.
         22    1    3    3    0    0  0.33942715637E+02  0.39445770841E+02  0.53714503673E+03  0.53965995522E+03  0.00000000000E+00 0. -1.
         22    1    3    3    0    0 -0.24255734402E+01 -0.41203240004E+02  0.72107202038E+02  0.83084529120E+02  0.00000000000E+00 0. -1.
</event>
<event>
 7    1  0.5950675E-006  0.9713679E+02  0.7818608E-02  0.1320772E+00
          2   -1    0    0  502    0  0.00000000000E+00  0.00000000000E+00  0.31077998013E+03  0.31077998013E+03  0.00000000000E+00 0. -1.
          1   -1    0    0  501    0 -0.00000000000E+00 -0.00000000000E+00 -0.10337921185E+04  0.10337921185E+04  0.00000000000E+00 0. -1.
         25    2    1    2    0    0  0.94342049350E+02 -0.54894330748E+02  0.88940165487E+02  0.18827894031E+03  0.12499918601E+03 0.  0.
          2    1    1    2  501    0 -0.59782563855E+02 -0.38125859188E+02 -0.96841963828E+03  0.97101191130E+03  0.00000000000E+00 0. -1.
          1    1    1    2  502    0 -0.34559485494E+02  0.93020189936E+02  0.15646733440E+03  0.18528124705E+03  0.00000000000E+00 0. -1.
         22    1    3    3    0    0  0.83724456080E+02  0.16470103663E+02  0.77416672949E+02  0.11521453949E+03  0.00000000000E+00 0. -1.
         22    1    3    3    0    0  0.10617593270E+02 -0.71364434411E+02  0.11523492538E+02  0.73064400812E+02  0.00000000000E+00 0. -1.
</event>
<event>
 7    1  0.5950675E-006  0.1771340E+03  0.7818608E-02  0.1348093E+00
          2   -1    0    0  502    0  0.00000000000E+00  0.00000000000E+00  0.10333269286E+04  0.10333269286E+04  0.00000000000E+00 0. -1.
          1   -1    0    0  501    0 -0.00000000000E+00 -0.00000000000E+00 -0.33252100029E+03  0.33252100029E+03  0.00000000000E+00 0. -1.
         25    2    1    2    0    0  0.14008743301E+03  0.51978170380E+02  0.28063962737E+03  0.34162793717E+03  0.12499931170E+03 0.  0.
          2    1    1    2  501    0 -0.17036071000E+03 -0.56609565185E+02 -0.27498393724E+03  0.32839546301E+03  0.00000000000E+00 0. -1.
          1    1    1    2  502    0  0.30273276989E+02  0.46313948049E+01  0.69515023819E+03  0.69582452872E+03  0.00000000000E+00 0. -1.
         22    1    3    3    0    0  0.93048861078E+01  0.37691255145E+02  0.15472650270E+03  0.15952273273E+03  0.00000000000E+00 0. -1.
         22    1    3    3    0    0  0.13078254690E+03  0.14286915236E+02  0.12591312467E+03  0.18210520444E+03  0.00000000000E+00 0. -1.
</event>
<event>
 7    1  0.5950675E-006  0.5403444E+02  0.7818608E-02  0.1490871E+00
          2   -1    0    0  502    0  0.00000000000E+00  0.00000000000E+00  0.37985434991E+04  0.37985434991E+04  0.00000000000E+00 0. -1.
          1   -1    0    0  501    0 -0.00000000000E+00 -0.00000000000E+00 -0.43960141202E+03  0.43960141202E+03  0.00000000000E+00 0. -1.
         25    2    1    2    0    0 -0.27701962123E+02 -0.55659424631E+02  0.13243181719E+03  0.19242684665E+03  0.12499813940E+03 0.  0.
          2    1    1    2  501    0 -0.18560350408E+02  0.27720384749E+02 -0.40872345065E+03  0.41008263247E+03  0.00000000000E+00 0. -1.
          1    1    1    2  502    0  0.46262312532E+02  0.27939039882E+02  0.36352337206E+04  0.36356354320E+04  0.00000000000E+00 0. -1.
         22    1    3    3    0    0 -0.67918548141E+02 -0.59019718588E+02  0.12041357112E+03  0.15031860987E+03  0.00000000000E+00 0. -1.
         22    1    3    3    0    0  0.40216586018E+02  0.33602939570E+01  0.12018246075E+02  0.42108236785E+02  0.00000000000E+00 0. -1.
</event>
<event>
 7    1  0.5950675E-006  0.8669584E+02  0.7818608E-02  0.1354932E+00
          2   -1    0    0  502    0  0.00000000000E+00  0.00000000000E+00  0.19850816923E+04  0.19850816923E+04  0.00000000000E+00 0. -1.
          1   -1    0    0  501    0 -0.00000000000E+00 -0.00000000000E+00 -0.72279668480E+03  0.72279668480E+03  0.00000000000E+00 0. -1.
         25    2    1    2    0    0 -0.38610211898E+01 -0.82529393358E+02  0.44336540987E+03  0.46799627203E+03  0.12498646212E+03 0.  0.
          2    1    1    2  501    0  0.59618398064E+02  0.63135001347E+02 -0.70725519249E+03  0.71256598928E+03  0.00000000000E+00 0. -1.
          1    1    1    2  502    0 -0.55757376874E+02  0.19394392012E+02  0.15261747901E+04  0.15273161158E+04  0.00000000000E+00 0. -1.
         22    1    3    3    0    0  0.15197177936E+02  0.10585553680E+02  0.26707745600E+03  0.26771883697E+03  0.00000000000E+00 0. -1.
         22    1    3    3    0    0 -0.19058199126E+02 -0.93114947038E+02  0.17628795387E+03  0.20027743506E+03  0.00000000000E+00 0. -1.
</event>
<event>
 7    1  0.5950675E-006  0.3430902E+02  0.7818608E-02  0.1555585E+00
          2   -1    0    0  502    0  0.00000000000E+00  0.00000000000E+00  0.31981913525E+03  0.31981913525E+03  0.00000000000E+00 0. -1.
          1   -1    0    0  501    0 -0.00000000000E+00 -0.00000000000E+00 -0.21929781526E+03  0.21929781526E+03  0.00000000000E+00 0. -1.
         25    2    1    2    0    0 -0.56813558551E+01  0.35581960115E+01  0.14465230717E+02  0.12602483303E+03  0.12501230771E+03 0.  0.
          2    1    1    2  501    0 -0.19178948546E+02 -0.28246984722E+02 -0.16048357638E+03  0.16407529522E+03  0.00000000000E+00 0. -1.
          1    1    1    2  502    0  0.24860304401E+02  0.24688788710E+02  0.24653966565E+03  0.24901682225E+03  0.00000000000E+00 0. -1.
         22    1    3    3    0    0 -0.21131161346E+02 -0.25642244652E+01  0.67327270436E+02  0.70612056841E+02  0.00000000000E+00 0.  1.
         22    1    3    3    0    0  0.15449805491E+02  0.61224204767E+01 -0.52862039719E+02  0.55412776193E+02  0.00000000000E+00 0.  1.
</event>
<event>
 7    1  0.5950675E-006  0.1366873E+03  0.7818608E-02  0.1286985E+00
          2   -1    0    0  502    0  0.00000000000E+00  0.00000000000E+00  0.26850514020E+03  0.26850514020E+03  0.00000000000E+00 0. -1.
          1   -1    0    0  501    0 -0.00000000000E+00 -0.00000000000E+00 -0.14451181529E+04  0.14451181529E+04  0.00000000000E+00 0. -1.
         25    2    1    2    0    0  0.12346320126E+03  0.42853010189E+02 -0.36781097884E+03  0.40986775831E+03  0.12500848210E+03 0.  0.
          2    1    1    2  501    0 -0.32397016402E+02  0.60551584992E+02 -0.10358741953E+04  0.10381480672E+04  0.00000000000E+00 0. -1.
          1    1    1    2  502    0 -0.91066184859E+02 -0.10340459518E+03  0.22707216141E+03  0.26560746754E+03  0.00000000000E+00 0. -1.
         22    1    3    3    0    0  0.19252855600E+02 -0.38081724129E+02 -0.49872300091E+02  0.65636395984E+02  0.00000000000E+00 0. -1.
         22    1    3    3    0    0  0.10421034566E+03  0.80934734318E+02 -0.31793867875E+03  0.34423136232E+03  0.00000000000E+00 0. -1.
</event>
<event>
 7    1  0.5950675E-006  0.7710184E+02  0.7818608E-02  0.1418861E+00
          2   -1    0    0  502    0  0.00000000000E+00  0.00000000000E+00  0.19977685368E+03  0.19977685368E+03  0.00000000000E+00 0. -1.
          1   -1    0    0  501    0 -0.00000000000E+00 -0.00000000000E+00 -0.43234178129E+03  0.43234178129E+03  0.00000000000E+00 0. -1.
         25    2    1    2    0    0 -0.71750424355E+01 -0.69847395815E+02 -0.12102471034E+03  0.18761511584E+03  0.12498924450E+03 0.  0.
          2    1    1    2  501    0  0.46456019817E+02  0.64757792150E+02 -0.26981931776E+03  0.28134355805E+03  0.00000000000E+00 0. -1.
          1    1    1    2  502    0 -0.39280977382E+02  0.50896036649E+01  0.15827910049E+03  0.16315996108E+03  0.00000000000E+00 0. -1.
         22    1    3    3    0    0  0.48319698066E+02 -0.18993919648E+02 -0.94470850456E+02  0.10779751291E+03  0.00000000000E+00 0.  1.
         22    1    3    3    0    0 -0.55494740501E+02 -0.50853476166E+02 -0.26553859887E+02  0.79817602923E+02  0.00000000000E+00 0.  1.
</event>
<event>
 7    1  0.6655143E-006  0.2165505E+03  0.7818608E-02  0.1266428E+00
          2   -1    0    0  502    0  0.00000000000E+00  0.00000000000E+00  0.17114595364E+04  0.17114595364E+04  0.00000000000E+00 0. -1.
          1   -1    0    0  501    0 -0.00000000000E+00 -0.00000000000E+00 -0.14493093053E+04  0.14493093053E+04  0.00000000000E+00 0. -1.
         25    2    1    2    0    0  0.16397165168E+03 -0.16156313067E+02 -0.35582073513E+03  0.41155918515E+03  0.12499935330E+03 0.  0.
          2    1    1    2  501    0  0.52681195967E+02 -0.30118442653E+01 -0.10579344812E+04  0.10592496147E+04  0.00000000000E+00 0. -1.
          1    1    1    2  502    0 -0.21665284765E+03  0.19168157332E+02  0.16759054475E+04  0.16899600420E+04  0.00000000000E+00 0. -1.
         22    1    3    3    0    0  0.22538873344E+01 -0.14747196099E+02 -0.14543220639E+03  0.14619537085E+03  0.00000000000E+00 0.  1.
         22    1    3    3    0    0  0.16171776435E+03 -0.14091169685E+01 -0.21038852874E+03  0.26536381430E+03  0.00000000000E+00 0.  1.
</event>
<event>
 7    1  0.5950675E-006  0.1692696E+03  0.7818608E-02  0.1211214E+00
          2   -1    0    0  502    0  0.00000000000E+00  0.00000000000E+00  0.26300618043E+03  0.26300618043E+03  0.00000000000E+00 0. -1.
          1   -1    0    0  501    0 -0.00000000000E+00 -0.00000000000E+00 -0.47167889822E+03  0.47167889822E+03  0.00000000000E+00 0. -1.
         25    2    1    2    0    0 -0.64334015119E+02 -0.69232415094E+02 -0.68624444863E+02  0.17106504692E+03  0.12498777157E+03 0.  0.
          2    1    1    2  501    0 -0.17146381213E+02 -0.11717775625E+03 -0.28844390587E+03  0.31180845367E+03  0.00000000000E+00 0. -1.
          1    1    1    2  502    0  0.81480396331E+02  0.18641017135E+03  0.14839563294E+03  0.25181157806E+03  0.00000000000E+00 0. -1.
         22    1    3    3    0    0  0.32837760421E+02  0.27983028107E+01 -0.28662007876E+02  0.43676763886E+02  0.00000000000E+00 0. -1.
         22    1    3    3    0    0 -0.97171775540E+02 -0.72030717905E+02 -0.39962436987E+02  0.12738828303E+03  0.00000000000E+00 0. -1.
</event>
<event>
 7    1  0.5950675E-006  0.9041888E+02  0.7818608E-02  0.1419023E+00
          2   -1    0    0  502    0  0.00000000000E+00  0.00000000000E+00  0.15821378038E+04  0.15821378038E+04  0.00000000000E+00 0. -1.
          1   -1    0    0  501    0 -0.00000000000E+00 -0.00000000000E+00 -0.16134097414E+04  0.16134097414E+04  0.00000000000E+00 0. -1.
         25    2    1    2    0    0  0.64414073462E+02  0.53582377540E+02 -0.61933744218E+02  0.16273363221E+03  0.12500480926E+03 0.  0.
          2    1    1    2  501    0 -0.21367773722E+02  0.26103038686E+02 -0.14995473978E+04  0.14999267811E+04  0.00000000000E+00 0. -1.
          1    1    1    2  502    0 -0.43046299740E+02 -0.79685416225E+02  0.15302092045E+04  0.15328871318E+04  0.00000000000E+00 0. -1.
         22    1    3    3    0    0 -0.36239687085E+02  0.16633568140E+02 -0.32781587897E+02  0.51619986576E+02  0.00000000000E+00 0.  1.
         22    1    3    3    0    0  0.10065376055E+03  0.36948809400E+02 -0.29152156322E+02  0.11111364564E+03  0.00000000000E+00 0.  1.
</event>
<event>
 7    1  0.5950675E-006  0.6992393E+02  0.7818608E-02  0.1422383E+00
          2   -1    0    0  502    0  0.00000000000E+00  0.00000000000E+00  0.16822495682E+04  0.16822495682E+04  0.00000000000E+00 0. -1.
          1   -1    0    0  501    0 -0.00000000000E+00 -0.00000000000E+00 -0.26285808724E+03  0.26285808724E+03  0.00000000000E+00 0. -1.
         25    2    1    2    0    0 -0.99384637443E+02 -0.13292684758E+02 -0.15628219662E+03  0.22383668132E+03  0.12499893319E+03 0.  0.
          2    1    1    2  501    0  0.56984545775E+02  0.16336253974E+02 -0.60408718528E+02  0.84636427885E+02  0.00000000000E+00 0. -1.
          1    1    1    2  502    0  0.42400091668E+02 -0.30435692151E+01  0.16360823961E+04  0.16366345462E+04  0.00000000000E+00 0. -1.
         22    1    3    3    0    0 -0.48560512799E+01 -0.38675726431E+02  0.53272289789E+00  0.38983032754E+02  0.00000000000E+00 0. -1.
         22    1    3    3    0    0 -0.94528586163E+02  0.25383041672E+02 -0.15681491952E+03  0.18485364857E+03  0.00000000000E+00 0. -1.
</event>
<event>
 7    1  0.5950675E-006  0.3984678E+03  0.7818608E-02  0.1136431E+00
          2   -1    0    0  502    0  0.00000000000E+00  0.00000000000E+00  0.24245735025E+04  0.24245735025E+04  0.00000000000E+00 0. -1.
          1   -1    0    0  501    0 -0.00000000000E+00 -0.00000000000E+00 -0.57113825063E+03  0.57113825063E+03  0.00000000000E+00 0. -1.
         25    2    1    2    0    0  0.24976104237E+02 -0.50279275546E+03  0.23388302927E+03  0.56898888199E+03  0.12499086258E+03 0.  0.
          2    1    1    2  501    0 -0.20554348503E+02  0.11595014851E+03 -0.37600395790E+03  0.39401255632E+03  0.00000000000E+00 0. -1.
          1    1    1    2  502    0 -0.44217557339E+01  0.38684260695E+03  0.19955561805E+04  0.20327103149E+04  0.00000000000E+00 0. -1.
         22    1    3    3    0    0  0.18576186900E+02 -0.94033760637E+02  0.10071812564E+03  0.13903799370E+03  0.00000000000E+00 0.  1.
         22    1    3    3    0    0  0.63999173365E+01 -0.40875899482E+03  0.13316490363E+03  0.42995088830E+03  0.00000000000E+00 0.  1.
</event>
<event>
 7    1  0.5950675E-006  0.1754289E+03  0.7818608E-02  0.1340089E+00
          2   -1    0    0  502    0  0.00000000000E+00  0.00000000000E+00  0.94491702582E+03  0.94491702582E+03  0.00000000000E+00 0. -1.
          1   -1    0    0  501    0 -0.00000000000E+00 -0.00000000000E+00 -0.85385585515E+03  0.85385585515E+03  0.00000000000E+00 0. -1.
         25    2    1    2    0    0 -0.16880102673E+03  0.10612410215E+03  0.96437509643E+02  0.25432518341E+03  0.12499997588E+03 0.  0.
          2    1    1    2  501    0  0.33123759953E+02  0.57767376333E+00 -0.76486986756E+03  0.76558698493E+03  0.00000000000E+00 0. -1.
          1    1    1    2  502    0  0.13567726677E+03 -0.10670177591E+03  0.75949352859E+03  0.77886071263E+03  0.00000000000E+00 0. -1.
         22    1    3    3    0    0 -0.10280875646E+03  0.12940514234E+03  0.70767877270E+02  0.17978716229E+03  0.00000000000E+00 0.  1.
         22    1    3    3    0    0 -0.65992270263E+02 -0.23281040194E+02  0.25669632373E+02  0.74538021125E+02  0.00000000000E+00 0.  1.
</event>
<event>
 7    1  0.5950675E-006  0.4761420E+02  0.7818608E-02  0.1543684E+00
          2   -1    0    0  502    0  0.00000000000E+00  0.00000000000E+00  0.11823959522E+04  0.11823959522E+04  0.00000000000E+00 0. -1.
          1   -1    0    0  501    0 -0.00000000000E+00 -0.00000000000E+00 -0.70272530167E+02  0.70272530167E+02  0.00000000000E+00 0. -1.
         25    2    1    2    0    0 -0.83895579044E+01  0.71882897652E+02  0.18515410410E+03  0.23482820742E+03  0.12499883631E+03 0.  0.
          2    1    1    2  501    0  0.90773900707E+01 -0.45334476466E+02 -0.33442403544E+02  0.57061441638E+02  0.00000000000E+00 0. -1.
          1    1    1    2  502    0 -0.68783216629E+00 -0.26548421186E+02  0.96041172151E+03  0.96077883334E+03  0.00000000000E+00 0. -1.
         22    1    3    3    0    0  0.33831616520E+02  0.70231383642E+02  0.48547512348E+02  0.91836193735E+02  0.00000000000E+00 0.  1.
         22    1    3    3    0    0 -0.42221174424E+02  0.16515140103E+01  0.13660659175E+03  0.14299201369E+03  0.00000000000E+00 0.  1.
</event>
<event>
 7    1  0.5950675E-006  0.4891685E+02  0.7818608E-02  0.1461024E+00
          2   -1    0    0  502    0  0.00000000000E+00  0.00000000000E+00  0.21416494867E+03  0.21416494867E+03  0.00000000000E+00 0. -1.
          1   -1    0    0  501    0 -0.00000000000E+00 -0.00000000000E+00 -0.20510776603E+03  0.20510776603E+03  0.00000000000E+00 0. -1.
         25    2    1    2    0    0 -0.25141172813E+02 -0.22367172681E+02  0.64330982570E+02  0.14455456623E+03  0.12500071326E+03 0.  0.
          2    1    1    2  501    0 -0.12039639179E+02  0.48688133621E+02 -0.15616390223E+03  0.16402027809E+03  0.00000000000E+00 0. -1.
          1    1    1    2  502    0  0.37180811992E+02 -0.26320960940E+02  0.10089010230E+03  0.11069787038E+03  0.00000000000E+00 0. -1.
         22    1    3    3    0    0  0.20595592237E+02  0.38326829977E+02  0.51603902185E+02  0.67498792851E+02  0.00000000000E+00 0.  1.
         22    1    3    3    0    0 -0.45736765050E+02 -0.60694002658E+02  0.12727080385E+02  0.77055773379E+02  0.00000000000E+00 0.  1.
</event>
<event>
 7    1  0.5950675E-006  0.2875210E+03  0.7818608E-02  0.1319013E+00
          2   -1    0    0  502    0  0.00000000000E+00  0.00000000000E+00  0.17774688375E+04  0.17774688375E+04  0.00000000000E+00 0. -1.
          1   -1    0    0  501    0 -0.00000000000E+00 -0.00000000000E+00 -0.13314915669E+04  0.13314915669E+04  0.00000000000E+00 0. -1.
         25    2    1    2    0    0 -0.29130518943E+03  0.95771603636E+02 -0.48121550046E+03  0.58415274421E+03  0.12504062234E+03 0.  0.
          2    1    1    2  501    0  0.23271974577E+02  0.71108723962E+01 -0.78667904542E+03  0.78705531560E+03  0.00000000000E+00 0. -1.
          1    1    1    2  502    0  0.26803321485E+03 -0.10288247603E+03  0.17138718164E+04  0.17377523446E+04  0.00000000000E+00 0. -1.
         22    1    3    3    0    0 -0.26670818268E+03  0.12240447352E+03 -0.40946744663E+03  0.50376552055E+03  0.00000000000E+00 0.  1.
         22    1    3    3    0    0 -0.24597006746E+02 -0.26632869885E+02 -0.71748053827E+02  0.80387223656E+02  0.00000000000E+00 0.  1.
</event>
<event>
 7    1  0.5950675E-006  0.6191279E+02  0.7818608E-02  0.1463507E+00
          2   -1    0    0  502    0  0.00000000000E+00  0.00000000000E+00  0.23445724682E+04  0.23445724682E+04  0.00000000000E+00 0. -1.
          1   -1    0    0  501    0 -0.00000000000E+00 -0.00000000000E+00 -0.15078402053E+02  0.15078402053E+02  0.00000000000E+00 0. -1.
         25    2    1    2    0    0  0.19182082925E+02 -0.61212994769E+02  0.51873153440E+03  0.53742092217E+03  0.12499543900E+03 0.  0.
          2    1    1    2  501    0  0.16166475191E+02  0.61610079289E+02  0.17746132776E+03  0.18854622680E+03  0.00000000000E+00 0. -1.
          1    1    1    2  502    0 -0.35348558117E+02 -0.39708452049E+00  0.16333012040E+04  0.16336837213E+04  0.00000000000E+00 0. -1.
         22    1    3    3    0    0  0.13548086048E+02  0.11980433604E+02  0.38029452383E+03  0.38072431795E+03  0.00000000000E+00 0. -1.
         22    1    3    3    0    0  0.56339968771E+01 -0.73193428373E+02  0.13843701056E+03  0.15669660421E+03  0.00000000000E+00 0. -1.
</event>
<event>
 7    1  0.5950675E-006  0.5602605E+02  0.7818608E-02  0.1534094E+00
          2   -1    0    0  502    0  0.00000000000E+00  0.00000000000E+00  0.13268023528E+04  0.13268023528E+04  0.00000000000E+00 0. -1.
          1   -1    0    0  501    0 -0.00000000000E+00 -0.00000000000E+00 -0.46377871785E+03  0.46377871785E+03  0.00000000000E+00 0. -1.
         25    2    1    2    0    0 -0.39136251503E+02 -0.43987461790E+02 -0.34462421902E+03  0.37129177420E+03  0.12500074512E+03 0.  0.
          2    1    1    2  501    0 -0.11902357681E+02  0.20870506036E+02 -0.10385108571E+03  0.10659405304E+03  0.00000000000E+00 0. -1.
          1    1    1    2  502    0  0.51038609184E+02  0.23116955754E+02  0.13114989397E+04  0.13126952434E+04  0.00000000000E+00 0. -1.
         22    1    3    3    0    0 -0.18842424320E+02 -0.67805311997E+02 -0.32876209195E+03  0.33620992013E+03  0.00000000000E+00 0.  1.
         22    1    3    3    0    0 -0.20293827183E+02  0.23817850207E+02 -0.15862127069E+02  0.35081854075E+02  0.00000000000E+00 0.  1.
</event>
<event>
 7    1  0.5950675E-006  0.6640388E+02  0.7818608E-02  0.1524883E+00
          2   -1    0    0  502    0  0.00000000000E+00  0.00000000000E+00  0.22112289599E+03  0.22112289599E+03  0.00000000000E+00 0. -1.
          1   -1    0    0  501    0 -0.00000000000E+00 -0.00000000000E+00 -0.77558740111E+03  0.77558740111E+03  0.00000000000E+00 0. -1.
         25    2    1    2    0    0  0.15749442819E+02 -0.50783391470E+02 -0.26562594761E+02  0.13841049860E+03  0.12499958753E+03 0.  0.
          2    1    1    2  501    0 -0.13770078350E+01  0.66829948783E+02 -0.69077835707E+03  0.69400495445E+03  0.00000000000E+00 0. -1.
          1    1    1    2  502    0 -0.14372434984E+02 -0.16046557312E+02  0.16287644671E+03  0.16429484405E+03  0.00000000000E+00 0. -1.
         22    1    3    3    0    0 -0.53311012118E+02 -0.31919750938E+02 -0.24764401100E+00  0.62136912061E+02  0.00000000000E+00 0.  1.
         22    1    3    3    0    0  0.69060454936E+02 -0.18863640532E+02 -0.26314950750E+02  0.76273586536E+02  0.00000000000E+00 0.  1.
</event>
<event>
 7    1  0.5950675E-006  0.9286062E+02  0.7818608E-02  0.1341315E+00
          2   -1    0    0  502    0  0.00000000000E+00  0.00000000000E+00  0.81017159943E+03  0.81017159943E+03  0.00000000000E+00 0. -1.
          1   -1    0    0  501    0 -0.00000000000E+00 -0.00000000000E+00 -0.36274709274E+03  0.36274709274E+03  0.00000000000E+00 0. -1.
         25    2    1    2    0    0  0.15121554830E+03 -0.18170781795E+02  0.46306596278E+02  0.20242565447E+03  0.12504209440E+03 0.  0.
          2    1    1    2  501    0 -0.61822130631E+02  0.35775603033E+01 -0.27827848915E+03  0.28508541228E+03  0.00000000000E+00 0. -1.
          1    1    1    2  502    0 -0.89393417665E+02  0.14593221492E+02  0.67939639956E+03  0.68540762541E+03  0.00000000000E+00 0. -1.
         22    1    3    3    0    0 -0.31309821825E+01  0.33938960867E+02  0.59935097279E+01  0.34606043880E+02  0.00000000000E+00 0. -1.
         22    1    3    3    0    0  0.15434653048E+03 -0.52109742663E+02  0.40313086550E+02  0.16781961059E+03  0.00000000000E+00 0. -1.
</event>
<event>
 7    1  0.5950675E-006  0.9018441E+02  0.7818608E-02  0.1432939E+00
          2   -1    0    0  502    0  0.00000000000E+00  0.00000000000E+00  0.85672709564E+03  0.85672709564E+03  0.00000000000E+00 0. -1.
          1   -1    0    0  501    0 -0.00000000000E+00 -0.00000000000E+00 -0.95496518895E+02  0.95496518895E+02  0.00000000000E+00 0. -1.
         25    2    1    2    0    0  0.57188170184E+02  0.46187912328E+02  0.27787697598E+03  0.31343973505E+03  0.12500017469E+03 0.  0.
          2    1    1    2  501    0 -0.18973965135E+01  0.30357185418E+02 -0.70582513697E+02  0.76857335758E+02  0.00000000000E+00 0. -1.
          1    1    1    2  502    0 -0.55290773670E+02 -0.76545097746E+02  0.55393611446E+03  0.56192654372E+03  0.00000000000E+00 0. -1.
         22    1    3    3    0    0 -0.30190599483E+02  0.18569782026E+01  0.14626858895E+03  0.14936338500E+03  0.00000000000E+00 0. -1.
         22    1    3    3    0    0  0.87378769667E+02  0.44330934126E+02  0.13160838703E+03  0.16407635005E+03  0.00000000000E+00 0. -1.
</event>
<event>
 7    1  0.5950675E-006  0.6922808E+02  0.7818608E-02  0.1382985E+00
          2   -1    0    0  502    0  0.00000000000E+00  0.00000000000E+00  0.15778141817E+04  0.15778141817E+04  0.00000000000E+00 0. -1.
          1   -1    0    0  501    0 -0.00000000000E+00 -0.00000000000E+00 -0.35173877877E+02  0.35173877877E+02  0.00000000000E+00 0. -1.
         25    2    1    2    0    0 -0.56339191548E+02 -0.89434430330E+01  0.35529587478E+03  0.38093816930E+03  0.12499856208E+03 0.  0.
          2    1    1    2  501    0  0.55764485718E+02 -0.49640452728E+02  0.42898526534E+02  0.86105377261E+02  0.00000000000E+00 0. -1.
          1    1    1    2  502    0  0.57470583002E+00  0.58583895761E+02  0.11444459025E+04  0.11459445130E+04  0.00000000000E+00 0. -1.
         22    1    3    3    0    0 -0.91079043481E+02 -0.67471232167E+01  0.17589786273E+03  0.19819428333E+03  0.00000000000E+00 0.  1.
         22    1    3    3    0    0  0.34739851933E+02 -0.21963198163E+01  0.17939801205E+03  0.18274388597E+03  0.00000000000E+00 0.  1.
</event>
<event>
 7    1  0.5950675E-006  0.4423311E+02  0.7818608E-02  0.1564898E+00
          2   -1    0    0  502    0  0.00000000000E+00  0.00000000000E+00  0.86331286995E+03  0.86331286995E+03  0.00000000000E+00 0. -1.
          1   -1    0    0  501    0 -0.00000000000E+00 -0.00000000000E+00 -0.98797551194E+02  0.98797551194E+02  0.00000000000E+00 0. -1.
         25    2    1    2    0    0 -0.21822798458E+02  0.79067823204E+00  0.38375452923E+03  0.40419084034E+03  0.12500334798E+03 0.  0.
          2    1    1    2  501    0 -0.24961113760E+02  0.43798859824E+00 -0.85625706485E+02  0.89190866378E+02  0.00000000000E+00 0. -1.
          1    1    1    2  502    0  0.46783912217E+02 -0.12286668303E+01  0.46638649601E+03  0.46872871442E+03  0.00000000000E+00 0. -1.
         22    1    3    3    0    0 -0.55015839089E+02  0.44995548350E+02  0.23420091793E+03  0.24474764939E+03  0.00000000000E+00 0. -1.
         22    1    3    3    0    0  0.33193040631E+02 -0.44204870118E+02  0.14955361130E+03  0.15944319095E+03  0.00000000000E+00 0. -1.
</event>
<event>
 7    1  0.5950675E-006  0.8203667E+02  0.7818608E-02  0.1352948E+00
          2   -1    0    0  502    0  0.00000000000E+00  0.00000000000E+00  0.77379459674E+03  0.77379459674E+03  0.00000000000E+00 0. -1.
          1   -1    0    0  501    0 -0.00000000000E+00 -0.00000000000E+00 -0.45319239994E+02  0.45319239994E+02  0.00000000000E+00 0. -1.
         25    2    1    2    0    0 -0.12083716581E+03 -0.20689984759E+02  0.21659016161E+03  0.27850885588E+03  0.12500475425E+03 0.  0.
          2    1    1    2  501    0  0.58838634284E+02  0.34162891309E+02  0.84264552794E+02  0.10830329120E+03  0.00000000000E+00 0. -1.
          1    1    1    2  502    0  0.61998531528E+02 -0.13472906551E+02  0.42762064235E+03  0.43230168966E+03  0.00000000000E+00 0. -1.
         22    1    3    3    0    0 -0.72718857295E+02  0.50827415727E+02  0.11596855654E+03  0.14601426129E+03  0.00000000000E+00 0. -1.
         22    1    3    3    0    0 -0.48118308517E+02 -0.71517400486E+02  0.10062160507E+03  0.13249459459E+03  0.00000000000E+00 0. -1.
</event>
<event>
 7    1  0.5950675E-006  0.1480318E+03  0.7818608E-02  0.1290399E+00
          2   -1    0    0  502    0  0.00000000000E+00  0.00000000000E+00  0.20839727089E+04  0.20839727089E+04  0.00000000000E+00 0. -1.
          1   -1    0    0  501    0 -0.00000000000E+00 -0.00000000000E+00 -0.28834135525E+03  0.28834135525E+03  0.00000000000E+00 0. -1.
         25    2    1    2    0    0  0.94520105872E+02  0.31517326479E+02 -0.11549405962E+03  0.19721535575E+03  0.12501050537E+03 0.  0.
          2    1    1    2  501    0  0.26415192394E+02  0.55439768849E+02 -0.12196812055E+03  0.13655604267E+03  0.00000000000E+00 0. -1.
          1    1    1    2  502    0 -0.12093529827E+03 -0.86957095328E+02  0.20330935338E+04  0.20385426657E+04  0.00000000000E+00 0. -1.
         22    1    3    3    0    0  0.21555156397E+02  0.71010635716E+02 -0.36677349263E+02  0.82779001571E+02  0.00000000000E+00 0.  1.
         22    1    3    3    0    0  0.72964949475E+02 -0.39493309237E+02 -0.78816710354E+02  0.11443635418E+03  0.00000000000E+00 0.  1.
</event>
<event>
 7    1  0.5950675E-006  0.6321207E+02  0.7818608E-02  0.1479903E+00
          2   -1    0    0  502    0  0.00000000000E+00  0.00000000000E+00  0.12309665962E+04  0.12309665962E+04  0.00000000000E+00 0. -1.
          1   -1    0    0  501    0 -0.00000000000E+00 -0.00000000000E+00 -0.36897905140E+03  0.36897905140E+03  0.00000000000E+00 0. -1.
         25    2    1    2    0    0 -0.71710761040E+02  0.18482977679E+02  0.81693467366E+03  0.82975380898E+03  0.12500027505E+03 0.  0.
          2    1    1    2  501    0  0.23940877403E+02  0.19371008921E+02 -0.35962932551E+03  0.36094549916E+03  0.00000000000E+00 0. -1.
          1    1    1    2  502    0  0.47769883638E+02 -0.37853986599E+02  0.40468219664E+03  0.40924633946E+03  0.00000000000E+00 0. -1.
         22    1    3    3    0    0 -0.52014670990E+02  0.38546276427E+02  0.78305903014E+03  0.78573073384E+03  0.00000000000E+00 0.  1.
         22    1    3    3    0    0 -0.19696090050E+02 -0.20063298748E+02  0.33875643526E+02  0.44023075133E+02  0.00000000000E+00 0.  1.
</event>
<event>
 7    1  0.5950675E-006  0.2890947E+02  0.7818608E-02  0.1623567E+00
          2   -1    0    0  502    0  0.00000000000E+00  0.00000000000E+00  0.10451017553E+04  0.10451017553E+04  0.00000000000E+00 0. -1.
          1   -1    0    0  501    0 -0.00000000000E+00 -0.00000000000E+00 -0.11393148867E+02  0.11393148867E+02  0.00000000000E+00 0. -1.
         25    2    1    2    0    0  0.25410299998E+02  0.20512384872E+02  0.44652639000E+03  0.46483784572E+03  0.12498785770E+03 0.  0.
          2    1    1    2  501    0  0.32383136521E+01 -0.26567019507E+02  0.97690336407E+02  0.10129015267E+03  0.00000000000E+00 0. -1.
          1    1    1    2  502    0 -0.28648613650E+02  0.60546346350E+01  0.48949188001E+03  0.49036690575E+03  0.00000000000E+00 0. -1.
         22    1    3    3    0    0  0.27834738845E+02 -0.43085733382E+02  0.30988181841E+03  0.31409854264E+03  0.00000000000E+00 0.  1.
         22    1    3    3    0    0 -0.24244388471E+01  0.63598118254E+02  0.13664457159E+03  0.15073930308E+03  0.00000000000E+00 0.  1.
</event>
<event>
 7    1  0.5950675E-006  0.8557726E+02  0.7818608E-02  0.1364691E+00
          2   -1    0    0  502    0  0.00000000000E+00  0.00000000000E+00  0.10033400436E+04  0.10033400436E+04  0.00000000000E+00 0. -1.
          1   -1    0    0  501    0 -0.00000000000E+00 -0.00000000000E+00 -0.43142624476E+03  0.43142624476E+03  0.00000000000E+00 0. -1.
         25    2    1    2    0    0 -0.17783801149E+02  0.47777670268E+02  0.24707207504E+03  0.28154615936E+03  0.12499864091E+03 0.  0.
          2    1    1    2  501    0 -0.54097859919E+02  0.10438884814E+02 -0.40944242992E+03  0.41313272950E+03  0.00000000000E+00 0. -1.
          1    1    1    2  502    0  0.71881661068E+02 -0.58216555083E+02  0.73428415368E+03  0.74008739945E+03  0.00000000000E+00 0. -1.
         22    1    3    3    0    0 -0.14490196843E+02  0.12385414037E+02  0.24521257572E+03  0.24595237664E+03  0.00000000000E+00 0.  1.
         22    1    3    3    0    0 -0.32936043062E+01  0.35392256231E+02  0.18594993181E+01  0.35593782718E+02  0.00000000000E+00 0.  1.
</event>
<event>
 7    1  0.5950675E-006  0.6736516E+02  0.7818608E-02  0.1371981E+00
          2   -1    0    0  502    0  0.00000000000E+00  0.00000000000E+00  0.10601346329E+04  0.10601346329E+04  0.00000000000E+00 0. -1.
          1   -1    0    0  501    0 -0.00000000000E+00 -0.00000000000E+00 -0.12810494371E+04  0.12810494371E+04  0.00000000000E+00 0. -1.
         25    2    1    2    0    0 -0.90561473996E+02  0.37215367491E+02  0.57779166505E+03  0.59921032472E+03  0.12499376342E+03 0.  0.
          2    1    1    2  501    0  0.63381312858E+02  0.22798846953E+02 -0.12671404834E+04  0.12689294633E+04  0.00000000000E+00 0. -1.
          1    1    1    2  502    0  0.27180161138E+02 -0.60014214444E+02  0.46843401418E+03  0.47304428200E+03  0.00000000000E+00 0. -1.
         22    1    3    3    0    0 -0.58603512872E+02  0.64904624635E+02  0.52163466725E+03  0.52891370572E+03  0.00000000000E+00 0. -1.
         22    1    3    3    0    0 -0.31957961124E+02 -0.27689257145E+02  0.56156997796E+02  0.70296618993E+02  0.00000000000E+00 0. -1.
</event>
<event>
 7    1  0.5950675E-006  0.8673777E+02  0.7818608E-02  0.1391388E+00
          2   -1    0    0  502    0  0.00000000000E+00  0.00000000000E+00  0.11252720107E+04  0.11252720107E+04  0.00000000000E+00 0. -1.
          1   -1    0    0  501    0 -0.00000000000E+00 -0.00000000000E+00 -0.16026184991E+03  0.16026184991E+03  0.00000000000E+00 0. -1.
         25    2    1    2    0    0 -0.17305928916E+02  0.44985419065E+02  0.13541340805E+03  0.19048538222E+03  0.12499882662E+03 0.  0.
          2    1    1    2  501    0 -0.31357486879E+02  0.30429210000E+02 -0.12697114261E+03  0.13427918625E+03  0.00000000000E+00 0. -1.
          1    1    1    2  502    0  0.48663415795E+02 -0.75414629065E+02  0.95656789530E+03  0.96076929209E+03  0.00000000000E+00 0. -1.
         22    1    3    3    0    0 -0.35670415600E+02  0.22565346082E+02  0.15154757526E+03  0.15731573653E+03  0.00000000000E+00 0.  1.
         22    1    3    3    0    0  0.18364486684E+02  0.22420072984E+02 -0.16134167211E+02  0.33169645692E+02  0.00000000000E+00 0.  1.
</event>
<event>
 7    1  0.5950675E-006  0.5959176E+02  0.7818608E-02  0.1475696E+00
          2   -1    0    0  502    0  0.00000000000E+00  0.00000000000E+00  0.92826553499E+03  0.92826553499E+03  0.00000000000E+00 0. -1.
          1   -1    0    0  501    0 -0.00000000000E+00 -0.00000000000E+00 -0.37233688232E+03  0.37233688232E+03  0.00000000000E+00 0. -1.
         25    2    1    2    0    0 -0.31647705023E+02 -0.80104631168E+01  0.70007464745E+03  0.71189563307E+03  0.12500054251E+03 0.  0.
          2    1    1    2  501    0  0.58389238378E+02 -0.12424398044E+02 -0.36269835951E+03  0.36757824857E+03  0.00000000000E+00 0. -1.
          1    1    1    2  502    0 -0.26741533355E+02  0.20434861161E+02  0.21855236474E+03  0.22112853568E+03  0.00000000000E+00 0. -1.
         22    1    3    3    0    0  0.34727129513E+02  0.62262752211E+01  0.72170612256E+02  0.80332666461E+02  0.00000000000E+00 0. -1.
         22    1    3    3    0    0 -0.66374834536E+02 -0.14236738338E+02  0.62790403519E+03  0.63156296661E+03  0.00000000000E+00 0. -1.
</event>
<event>
 7    1  0.5950675E-006  0.6416670E+02  0.7818608E-02  0.1422376E+00
          2   -1    0    0  502    0  0.00000000000E+00  0.00000000000E+00  0.80725845170E+03  0.80725845170E+03  0.00000000000E+00 0. -1.
          1   -1    0    0  501    0 -0.00000000000E+00 -0.00000000000E+00 -0.33497896827E+02  0.33497896827E+02  0.00000000000E+00 0. -1.
         25    2    1    2    0    0 -0.21259558341E+02 -0.22506678034E+02  0.39440169113E+03  0.41489237493E+03  0.12499787771E+03 0.  0.
          2    1    1    2  501    0 -0.26038345511E+02 -0.38315829386E+02  0.85167334611E+01  0.47102366897E+02  0.00000000000E+00 0. -1.
          1    1    1    2  502    0  0.47297903852E+02  0.60822507420E+02  0.37084213028E+03  0.37876160670E+03  0.00000000000E+00 0. -1.
         22    1    3    3    0    0 -0.68008885019E+02 -0.20103889448E+02  0.31352402036E+03  0.32144468600E+03  0.00000000000E+00 0. -1.
         22    1    3    3    0    0  0.46749326678E+02 -0.24027885853E+01  0.80877670773E+02  0.93447688936E+02  0.00000000000E+00 0. -1.
</event>
<event>
 7    1  0.5950675E-006  0.1703686E+03  0.7818608E-02  0.1301383E+00
          2   -1    0    0  502    0  0.00000000000E+00  0.00000000000E+00  0.14222130481E+04  0.14222130481E+04  0.00000000000E+00 0. -1.
          1   -1    0    0  501    0 -0.00000000000E+00 -0.00000000000E+00 -0.25726869292E+03  0.25726869292E+03  0.00000000000E+00 0. -1.
         25    2    1    2    0    0  0.17964272333E+03  0.59106219395E+02  0.11290129248E+03  0.25325085657E+03  0.12499696513E+03 0.  0.
          2    1    1    2  501    0 -0.10827675392E+02 -0.46957805894E+02 -0.17809722753E+03  0.18450175214E+03  0.00000000000E+00 0. -1.
          1    1    1    2  502    0 -0.16881504794E+03 -0.12148413501E+02  0.12301402903E+04  0.12417291323E+04  0.00000000000E+00 0. -1.
         22    1    3    3    0    0  0.81797206120E+02  0.79380219767E+02  0.10159794600E+03  0.15268970119E+03  0.00000000000E+00 0. -1.
         22    1    3    3    0    0  0.97845517207E+02 -0.20274000372E+02  0.11303346483E+02  0.10056115537E+03  0.00000000000E+00 0. -1.
</event>
<event>
 7    1  0.5950675E-006  0.2935954E+02  0.7818608E-02  0.1606102E+00
          2   -1    0    0  502    0  0.00000000000E+00  0.00000000000E+00  0.10154961568E+04  0.10154961568E+04  0.00000000000E+00 0. -1.
          1   -1    0    0  501    0 -0.00000000000E+00 -0.00000000000E+00 -0.17927823612E+03  0.17927823612E+03  0.00000000000E+00 0. -1.
         25    2    1    2    0    0 -0.39836956152E+02 -0.79899093467E+00 -0.24656270009E+02  0.13350076573E+03  0.12500760512E+03 0.  0.
          2    1    1    2  501    0  0.20503265659E+02 -0.21104209412E+02 -0.97812266112E+02  0.10214211159E+03  0.00000000000E+00 0. -1.
          1    1    1    2  502    0  0.19333690493E+02  0.21903200347E+02  0.95868645679E+03  0.95913151560E+03  0.00000000000E+00 0. -1.
         22    1    3    3    0    0 -0.72501081999E+02  0.35913196517E+02 -0.67091905634E+01  0.81186069083E+02  0.00000000000E+00 0. -1.
         22    1    3    3    0    0  0.32664125847E+02 -0.36712187451E+02 -0.17947079445E+02  0.52314696649E+02  0.00000000000E+00 0. -1.
</event>
<event>
 7    1  0.5950675E-006  0.8402252E+02  0.7818608E-02  0.1339869E+00
          2   -1    0    0  502    0  0.00000000000E+00  0.00000000000E+00  0.18269227102E+04  0.18269227102E+04  0.00000000000E+00 0. -1.
          1   -1    0    0  501    0 -0.00000000000E+00 -0.00000000000E+00 -0.33479393170E+03  0.33479393170E+03  0.00000000000E+00 0. -1.
         25    2    1    2    0    0  0.87794251169E+02  0.69423045778E+02  0.55938352826E+03  0.58400449030E+03  0.12499569266E+03 0.  0.
          2    1    1    2  501    0 -0.19583484893E+02 -0.81666731581E+02 -0.31603869592E+03  0.32700676636E+03  0.00000000000E+00 0. -1.
          1    1    1    2  502    0 -0.68210766276E+02  0.12243685803E+02  0.12487839461E+04  0.12507053852E+04  0.00000000000E+00 0. -1.
         22    1    3    3    0    0  0.99198830400E+02  0.80930312262E+02  0.55116419222E+03  0.56583751218E+03  0.00000000000E+00 0.  1.
         22    1    3    3    0    0 -0.11404579230E+02 -0.11507266484E+02  0.82193360323E+01  0.18166978124E+02  0.00000000000E+00 0.  1.
</event>
<event>
 7    1  0.5950675E-006  0.5184590E+02  0.7818608E-02  0.1473013E+00
          2   -1    0    0  502    0  0.00000000000E+00  0.00000000000E+00  0.38923501238E+03  0.38923501238E+03  0.00000000000E+00 0. -1.
          1   -1    0    0  501    0 -0.00000000000E+00 -0.00000000000E+00 -0.74530113946E+03  0.74530113946E+03  0.00000000000E+00 0. -1.
         25    2    1    2    0    0 -0.74772759664E+02 -0.34272011871E+02 -0.31552540656E+03  0.34920867469E+03  0.12499951964E+03 0.  0.
          2    1    1    2  501    0  0.35345444464E+02  0.34704884499E+02 -0.41039686102E+03  0.41337551087E+03  0.00000000000E+00 0. -1.
          1    1    1    2  502    0  0.39427315200E+02 -0.43287262777E+00  0.36985614049E+03  0.37195196628E+03  0.00000000000E+00 0. -1.
         22    1    3    3    0    0 -0.85840929627E+01  0.79888182081E+01 -0.23989596977E+03  0.24018239773E+03  0.00000000000E+00 0. -1.
         22    1    3    3    0    0 -0.66188666701E+02 -0.42260830079E+02 -0.75629436795E+02  0.10902627696E+03  0.00000000000E+00 0. -1.
</event>
<event>
 7    1  0.5950675E-006  0.1096697E+03  0.7818608E-02  0.1294430E+00
          2   -1    0    0  502    0  0.00000000000E+00  0.00000000000E+00  0.77499239673E+03  0.77499239673E+03  0.00000000000E+00 0. -1.
          1   -1    0    0  501    0 -0.00000000000E+00 -0.00000000000E+00 -0.22444995682E+04  0.22444995682E+04  0.00000000000E+00 0. -1.
         25    2    1    2    0    0  0.11880999225E+03 -0.10895623116E+03  0.24585488631E+03  0.31944250475E+03  0.12494644513E+03 0.  0.
          2    1    1    2  501    0 -0.19953864172E+02  0.77299531308E+02 -0.22015030750E+04  0.22029501046E+04  0.00000000000E+00 0. -1.
          1    1    1    2  502    0 -0.98856128080E+02  0.31656699855E+02  0.48614101720E+03  0.49709935557E+03  0.00000000000E+00 0. -1.
         22    1    3    3    0    0  0.24101217830E+01 -0.24545636195E+02  0.13673035122E+03  0.13893698531E+03  0.00000000000E+00 0.  1.
         22    1    3    3    0    0  0.11639987047E+03 -0.84410594968E+02  0.10912453509E+03  0.18050551944E+03  0.00000000000E+00 0.  1.
</event>
<event>
 7    1  0.5950675E-006  0.9088339E+02  0.7818608E-02  0.1339948E+00
          2   -1    0    0  502    0  0.00000000000E+00  0.00000000000E+00  0.19028328644E+04  0.19028328644E+04  0.00000000000E+00 0. -1.
          1   -1    0    0  501    0 -0.00000000000E+00 -0.00000000000E+00 -0.12953749931E+04  0.12953749931E+04  0.00000000000E+00 0. -1.
         25    2    1    2    0    0  0.15231322765E+03 -0.18592917978E+02 -0.55880469640E+01  0.19799130483E+03  0.12499725838E+03 0.  0.
          2    1    1    2  501    0 -0.64025537779E+02  0.13203985134E+00 -0.11915995766E+04  0.11933184143E+04  0.00000000000E+00 0. -1.
          1    1    1    2  502    0 -0.88287689870E+02  0.18460878127E+02  0.18046454949E+04  0.18068981384E+04  0.00000000000E+00 0. -1.
         22    1    3    3    0    0  0.42139043258E+02  0.34579038434E+02  0.39815719981E+02  0.67503336387E+02  0.00000000000E+00 0.  1.
         22    1    3    3    0    0  0.11017418439E+03 -0.53171956412E+02 -0.45403766945E+02  0.13048796844E+03  0.00000000000E+00 0.  1.
</event>
<event>
 7    1  0.8294408E-006  0.1098868E+03  0.7818608E-02  0.1356018E+00
          2   -1    0    0  502    0  0.00000000000E+00  0.00000000000E+00  0.16078637688E+04  0.16078637688E+04  0.00000000000E+00 0. -1.
          1   -1    0    0  501    0 -0.00000000000E+00 -0.00000000000E+00 -0.90273107304E+03  0.90273107304E+03  0.00000000000E+00 0. -1.
         25    2    1    2    0    0  0.43462146103E+02 -0.84371860726E+02 -0.13241140043E+03  0.20534252383E+03  0.12500081640E+03 0.  0.
          2    1    1    2  501    0  0.43164597667E+02  0.16327159169E+02 -0.73119527343E+03  0.73265018017E+03  0.00000000000E+00 0. -1.
          1    1    1    2  502    0 -0.86626743770E+02  0.68044701556E+02  0.15687393696E+04  0.15726021378E+04  0.00000000000E+00 0. -1.
         22    1    3    3    0    0  0.49411184180E-01  0.32090191040E+02 -0.20392379703E+02  0.38021466994E+02  0.00000000000E+00 0.  1.
         22    1    3    3    0    0  0.43412734919E+02 -0.11646205177E+03 -0.11201902073E+03  0.16732105683E+03  0.00000000000E+00 0.  1.
</event>
<event>
 7    1  0.5950675E-006  0.1164049E+03  0.7818608E-02  0.1313406E+00
          2   -1    0    0  502    0  0.00000000000E+00  0.00000000000E+00  0.24316136459E+03  0.24316136459E+03  0.00000000000E+00 0. -1.
          1   -1    0    0  501    0 -0.00000000000E+00 -0.00000000000E+00 -0.17433031440E+04  0.17433031440E+04  0.00000000000E+00 0. -1.
         25    2    1    2    0    0 -0.13622241147E+01  0.77837125008E+02 -0.20136269770E+03  0.24946672164E+03  0.12500494189E+03 0.  0.
          2    1    1    2  501    0 -0.53944585977E+02 -0.10844616474E+03 -0.15108547077E+04  0.15157019947E+04  0.00000000000E+00 0. -1.
          1    1    1    2  502    0  0.55306810092E+02  0.30609039733E+02  0.21207562595E+03  0.22129579227E+03  0.00000000000E+00 0. -1.
         22    1    3    3    0    0 -0.45743482880E+01  0.11183693759E+03 -0.14003538862E+03  0.17927168024E+03  0.00000000000E+00 0. -1.
         22    1    3    3    0    0  0.32121241733E+01 -0.33999812583E+02 -0.61327309084E+02  0.70195041398E+02  0.00000000000E+00 0. -1.
</event>
<event>
 7    1  0.5950675E-006  0.1209566E+03  0.7818608E-02  0.1345463E+00
          2   -1    0    0  502    0  0.00000000000E+00  0.00000000000E+00  0.34991475057E+03  0.34991475057E+03  0.00000000000E+00 0. -1.
          1   -1    0    0  501    0 -0.00000000000E+00 -0.00000000000E+00 -0.10020523129E+04  0.10020523129E+04  0.00000000000E+00 0. -1.
         25    2    1    2    0    0 -0.15763093960E+03 -0.40422360453E+02 -0.24283211076E+03  0.31791687455E+03  0.12498889858E+03 0.  0.
          2    1    1    2  501    0  0.45854888078E+02 -0.12479083416E+01 -0.70952121115E+03  0.71100251554E+03  0.00000000000E+00 0. -1.
          1    1    1    2  502    0  0.11177605152E+03  0.41670268794E+02  0.30021575956E+03  0.32304767339E+03  0.00000000000E+00 0. -1.
         22    1    3    3    0    0 -0.13485498746E+03 -0.81065262059E+02 -0.20134134735E+03  0.25553039449E+03  0.00000000000E+00 0.  1.
         22    1    3    3    0    0 -0.22775952138E+02  0.40642901606E+02 -0.41490763402E+02  0.62386480061E+02  0.00000000000E+00 0.  1.
</event>
<event>
 7    1  0.5950675E-006  0.1194200E+03  0.7818608E-02  0.1361818E+00
          2   -1    0    0  502    0  0.00000000000E+00  0.00000000000E+00  0.53266869081E+02  0.53266869081E+02  0.00000000000E+00 0. -1.
          1   -1    0    0  501    0 -0.00000000000E+00 -0.00000000000E+00 -0.24751906461E+04  0.24751906461E+04  0.00000000000E+00 0. -1.
         25    2    1    2    0    0  0.94663593733E+02 -0.62223914465E+02 -0.29479291531E+03  0.33964807566E+03  0.12499976350E+03 0.  0.
          2    1    1    2  501    0 -0.11693154771E+03  0.28464315484E+02 -0.21422543033E+04  0.21456320058E+04  0.00000000000E+00 0. -1.
          1    1    1    2  502    0  0.22267953974E+02  0.33759598980E+02  0.15123441621E+02  0.43177433735E+02  0.00000000000E+00 0. -1.
         22    1    3    3    0    0  0.48110360205E+02  0.13026832748E+02 -0.25092435981E+02  0.55802647553E+02  0.00000000000E+00 0.  1.
         22    1    3    3    0    0  0.46553233529E+02 -0.75250747213E+02 -0.26970047933E+03  0.28384542811E+03  0.00000000000E+00 0.  1.
</event>
<event>
 7    1  0.5950675E-006  0.1358590E+03  0.7818608E-02  0.1430373E+00
          2   -1    0    0  502    0  0.00000000000E+00  0.00000000000E+00  0.67696917938E+03  0.67696917938E+03  0.00000000000E+00 0. -1.
          1   -1    0    0  501    0 -0.00000000000E+00 -0.00000000000E+00 -0.11448917833E+04  0.11448917833E+04  0.00000000000E+00 0. -1.
         25    2    1    2    0    0 -0.34479827287E+02 -0.13015042321E+03 -0.15995455511E+03  0.24359041028E+03  0.12499134823E+03 0.  0.
          2    1    1    2  501    0  0.19962535255E+02 -0.50293395137E+01 -0.93572923249E+03  0.93595565793E+03  0.00000000000E+00 0. -1.
          1    1    1    2  502    0  0.14517292032E+02  0.13517976272E+03  0.62776118364E+03  0.64231489451E+03  0.00000000000E+00 0. -1.
         22    1    3    3    0    0 -0.61305188934E+02 -0.61867445252E+02 -0.26056034992E+02  0.90911077058E+02  0.00000000000E+00 0. -1.
         22    1    3    3    0    0  0.26825361648E+02 -0.68282977955E+02 -0.13389852011E+03  0.15267933323E+03  0.00000000000E+00 0. -1.
</event>
<event>
 7    1  0.5950675E-006  0.8876696E+02  0.7818608E-02  0.1443059E+00
          2   -1    0    0  502    0  0.00000000000E+00  0.00000000000E+00  0.24967003576E+04  0.24967003576E+04  0.00000000000E+00 0. -1.
          1   -1    0    0  501    0 -0.00000000000E+00 -0.00000000000E+00 -0.84120660144E+03  0.84120660144E+03  0.00000000000E+00 0. -1.
         25    2    1    2    0    0 -0.26536702651E+02 -0.92966339706E+02  0.81550602085E+03  0.83067586045E+03  0.12500151275E+03 0.  0.
          2    1    1    2  501    0  0.28228328396E+02  0.48689482727E+01 -0.83221531897E+03  0.83270816154E+03  0.00000000000E+00 0. -1.
          1    1    1    2  502    0 -0.16916257448E+01  0.88097391434E+02  0.16722030543E+04  0.16745229370E+04  0.00000000000E+00 0. -1.
         22    1    3    3    0    0 -0.74725756924E+01 -0.77077304812E+02  0.19702253113E+03  0.21169465765E+03  0.00000000000E+00 0. -1.
         22    1    3    3    0    0 -0.19064126958E+02 -0.15889034894E+02  0.61848348972E+03  0.61898120280E+03  0.00000000000E+00 0. -1.
</event>
<event>
 7    1  0.5950675E-006  0.1759727E+03  0.7818608E-02  0.1278592E+00
          2   -1    0    0  502    0  0.00000000000E+00  0.00000000000E+00  0.10213337085E+04  0.10213337085E+04  0.00000000000E+00 0. -1.
          1   -1    0    0  501    0 -0.00000000000E+00 -0.00000000000E+00 -0.27740160722E+03  0.27740160722E+03  0.00000000000E+00 0. -1.
         25    2    1    2    0    0  0.64528887353E+02 -0.16565316305E+03  0.22523275682E+03  0.31298544610E+03  0.12500058797E+03 0.  0.
          2    1    1    2  501    0 -0.11371304753E+03  0.13537533681E+03 -0.19873533105E+03  0.26599411799E+03  0.00000000000E+00 0. -1.
          1    1    1    2  502    0  0.49184160181E+02  0.30277826245E+02  0.71743467554E+03  0.71975575165E+03  0.00000000000E+00 0. -1.
         22    1    3    3    0    0 -0.26159832682E+02 -0.72552988674E+02  0.13254645856E+03  0.15335200256E+03  0.00000000000E+00 0.  1.
         22    1    3    3    0    0  0.90688720035E+02 -0.93100174379E+02  0.92686298256E+02  0.15963344354E+03  0.00000000000E+00 0.  1.
</event>
<event>
 7    1  0.5950675E-006  0.7342767E+02  0.7818608E-02  0.1468179E+00
          2   -1    0    0  502    0  0.00000000000E+00  0.00000000000E+00  0.10582364136E+03  0.10582364136E+03  0.00000000000E+00 0. -1.
          1   -1    0    0  501    0 -0.00000000000E+00 -0.00000000000E+00 -0.11334096614E+04  0.11334096614E+04  0.00000000000E+00 0. -1.
         25    2    1    2    0    0  0.90614695870E+02 -0.10295402012E+02 -0.15505564138E+03  0.21905271629E+03  0.12499928873E+03 0.  0.
          2    1    1    2  501    0 -0.71860263804E+02 -0.11588320401E+02 -0.94208425655E+03  0.94489202194E+03  0.00000000000E+00 0. -1.
          1    1    1    2  502    0 -0.18754432065E+02  0.21883722413E+02  0.69553877853E+02  0.75288564558E+02  0.00000000000E+00 0. -1.
         22    1    3    3    0    0  0.32023673721E+02 -0.12115513270E+02  0.16319606438E+02  0.37929288086E+02  0.00000000000E+00 0. -1.
         22    1    3    3    0    0  0.58591022149E+02  0.18201112581E+01 -0.17137524782E+03  0.18112342821E+03  0.00000000000E+00 0. -1.
</event>
<event>
 7    1  0.5950675E-006  0.1783296E+03  0.7818608E-02  0.1306446E+00
          2   -1    0    0  502    0  0.00000000000E+00  0.00000000000E+00  0.19685740580E+03  0.19685740580E+03  0.00000000000E+00 0. -1.
          1   -1    0    0  501    0 -0.00000000000E+00 -0.00000000000E+00 -0.81228188762E+03  0.81228188762E+03  0.00000000000E+00 0. -1.
         25    2    1    2    0    0 -0.63461844084E+02  0.15752991661E+03  0.27305051157E+02  0.21263619641E+03  0.12500202367E+03 0.  0.
          2    1    1    2  501    0  0.10565079284E+03 -0.14520671508E+03 -0.70093208160E+03  0.72356952889E+03  0.00000000000E+00 0. -1.
          1    1    1    2  502    0 -0.42188948755E+02 -0.12323201530E+02  0.58202548619E+02  0.72933568120E+02  0.00000000000E+00 0. -1.
         22    1    3    3    0    0 -0.69232128575E+02  0.18748915933E+02  0.14203859089E+02  0.73118801198E+02  0.00000000000E+00 0. -1.
         22    1    3    3    0    0  0.57702844911E+01  0.13878100068E+03  0.13101192068E+02  0.13951739521E+03  0.00000000000E+00 0. -1.
</event>
<event>
 7    1  0.5950675E-006  0.6821572E+02  0.7818608E-02  0.1448988E+00
          2   -1    0    0  502    0  0.00000000000E+00  0.00000000000E+00  0.42027835865E+03  0.42027835865E+03  0.00000000000E+00 0. -1.
          1   -1    0    0  501    0 -0.00000000000E+00 -0.00000000000E+00 -0.40074028325E+03  0.40074028325E+03  0.00000000000E+00 0. -1.
         25    2    1    2    0    0 -0.30693437964E+02  0.45488502025E+02 -0.35325738637E+02  0.14101088141E+03  0.12499947966E+03 0.  0.
          2    1    1    2  501    0  0.62886844342E+02 -0.30120929783E+02 -0.30779719180E+03  0.31559647794E+03  0.00000000000E+00 0. -1.
          1    1    1    2  502    0 -0.32193406378E+02 -0.15367572242E+02  0.36266100584E+03  0.36441128255E+03  0.00000000000E+00 0. -1.
         22    1    3    3    0    0 -0.56223979307E+02  0.54331309828E+02 -0.64419770920E+02  0.10130613980E+03  0.00000000000E+00 0. -1.
         22    1    3    3    0    0  0.25530541343E+02 -0.88428078028E+01  0.29094032283E+02  0.39704741601E+02  0.00000000000E+00 0. -1.
</event>
<event>
 7    1  0.5950675E-006  0.1382389E+03  0.7818608E-02  0.1326549E+00
          2   -1    0    0  502    0  0.00000000000E+00  0.00000000000E+00  0.98738019558E+03  0.98738019558E+03  0.00000000000E+00 0. -1.
          1   -1    0    0  501    0 -0.00000000000E+00 -0.00000000000E+00 -0.10864507849E+04  0.10864507849E+04  0.00000000000E+00 0. -1.
         25    2    1    2    0    0 -0.18169447074E+03 -0.20496770152E+02 -0.63337471382E+02  0.23036815428E+03  0.12499941177E+03 0.  0.
          2    1    1    2  501    0  0.45159257055E+02  0.14170753002E+02 -0.93382797837E+03  0.93502666375E+03  0.00000000000E+00 0. -1.
          1    1    1    2  502    0  0.13653521368E+03  0.63260171504E+01  0.89809486038E+03  0.90843616249E+03  0.00000000000E+00 0. -1.
         22    1    3    3    0    0 -0.34289095638E+01  0.98231974727E-01  0.28552833536E+02  0.28758153161E+02  0.00000000000E+00 0. -1.
         22    1    3    3    0    0 -0.17826556117E+03 -0.20595002127E+02 -0.91890304918E+02  0.20161000112E+03  0.00000000000E+00 0. -1.
</event>
<event>
 7    1  0.5950675E-006  0.8927874E+02  0.7818608E-02  0.1370422E+00
          2   -1    0    0  502    0  0.00000000000E+00  0.00000000000E+00  0.12732387818E+04  0.12732387818E+04  0.00000000000E+00 0. -1.
          1   -1    0    0  501    0 -0.00000000000E+00 -0.00000000000E+00 -0.37075392363E+03  0.37075392363E+03  0.00000000000E+00 0. -1.
         25    2    1    2    0    0  0.28181591569E+02 -0.68553913424E+02  0.67179538013E+02  0.16009983249E+03  0.12500009955E+03 0.  0.
          2    1    1    2  501    0 -0.75286207855E+02  0.50753804401E+02 -0.31737797510E+03  0.33011019498E+03  0.00000000000E+00 0. -1.
          1    1    1    2  502    0  0.47104616287E+02  0.17800109023E+02  0.11526832953E+04  0.11537826780E+04  0.00000000000E+00 0. -1.
         22    1    3    3    0    0 -0.93462929647E+01 -0.77915384998E+02 -0.45511815187E+01  0.78605811902E+02  0.00000000000E+00 0.  1.
         22    1    3    3    0    0  0.37527884533E+02  0.93614715742E+01  0.71730719532E+02  0.81494020591E+02  0.00000000000E+00 0.  1.
</event>
<event>
 7    1  0.5950675E-006  0.4792546E+03  0.7818608E-02  0.1151854E+00
          2   -1    0    0  502    0  0.00000000000E+00  0.00000000000E+00  0.77701330500E+03  0.77701330500E+03  0.00000000000E+00 0. -1.
          1   -1    0    0  501    0 -0.00000000000E+00 -0.00000000000E+00 -0.13099146905E+04  0.13099146905E+04  0.00000000000E+00 0. -1.
         25    2    1    2    0    0 -0.38480566098E+03 -0.35321164114E+03 -0.14321296029E+03  0.55585011179E+03  0.12500213850E+03 0.  0.
          2    1    1    2  501    0  0.30346964702E+03  0.35645338937E+03 -0.89991636571E+03  0.10143975112E+04  0.00000000000E+00 0. -1.
          1    1    1    2  502    0  0.81336013960E+02 -0.32417482380E+01  0.51022794048E+03  0.51668037252E+03  0.00000000000E+00 0. -1.
         22    1    3    3    0    0  0.57833684395E+01 -0.15421205982E+02  0.72319427003E+01  0.17987827542E+02  0.00000000000E+00 0. -1.
         22    1    3    3    0    0 -0.39058902942E+03 -0.33779043515E+03 -0.15044490299E+03  0.53786228425E+03  0.00000000000E+00 0. -1.
</event>
<event>
 7    1  0.5950675E-006  0.1088415E+03  0.7818608E-02  0.1294212E+00
          2   -1    0    0  502    0  0.00000000000E+00  0.00000000000E+00  0.33289513768E+03  0.33289513768E+03  0.00000000000E+00 0. -1.
          1   -1    0    0  501    0 -0.00000000000E+00 -0.00000000000E+00 -0.12249097977E+04  0.12249097977E+04  0.00000000000E+00 0. -1.
         25    2    1    2    0    0 -0.84702634583E+02 -0.98965528000E+02 -0.47993450466E+03  0.51276771565E+03  0.12499955766E+03 0.  0.
          2    1    1    2  501    0 -0.22115196617E+02  0.77511338570E+02 -0.71685568637E+03  0.72137311054E+03  0.00000000000E+00 0. -1.
          1    1    1    2  502    0  0.10681783120E+03  0.21454189430E+02  0.30477553098E+03  0.32366410921E+03  0.00000000000E+00 0. -1.
         22    1    3    3    0    0 -0.10372477442E+03 -0.33634394061E+02 -0.24483188107E+03  0.26801632651E+03  0.00000000000E+00 0.  1.
         22    1    3    3    0    0  0.19022139833E+02 -0.65331133938E+02 -0.23510262359E+03  0.24475138914E+03  0.00000000000E+00 0.  1.
</event>
<event>
 7    1  0.5950675E-006  0.5903668E+02  0.7818608E-02  0.1417952E+00
          2   -1    0    0  502    0  0.00000000000E+00  0.00000000000E+00  0.16479231074E+04  0.16479231074E+04  0.00000000000E+00 0. -1.
          1   -1    0    0  501    0 -0.00000000000E+00 -0.00000000000E+00 -0.35904540658E+03  0.35904540658E+03  0.00000000000E+00 0. -1.
         25    2    1    2    0    0  0.48788356467E+02 -0.88657228558E+02  0.42871006455E+02  0.16643973729E+03  0.12499542013E+03 0.  0.
          2    1    1    2  501    0 -0.29004338288E+01  0.52012815005E+02 -0.29441497873E+03  0.29898816890E+03  0.00000000000E+00 0. -1.
          1    1    1    2  502    0 -0.45887922639E+02  0.36644413553E+02  0.15404216731E+04  0.15415406078E+04  0.00000000000E+00 0. -1.
         22    1    3    3    0    0  0.25720936921E+01  0.24012665237E+02 -0.18165817412E+02  0.30219541359E+02  0.00000000000E+00 0. -1.
         22    1    3    3    0    0  0.46216262775E+02 -0.11266989379E+03  0.61036823867E+02  0.13622019593E+03  0.00000000000E+00 0. -1.
</event>
<event>
 7    1  0.5950675E-006  0.2172806E+03  0.7818608E-02  0.1332611E+00
          2   -1    0    0  502    0  0.00000000000E+00  0.00000000000E+00  0.74849528190E+03  0.74849528190E+03  0.00000000000E+00 0. -1.
          1   -1    0    0  501    0 -0.00000000000E+00 -0.00000000000E+00 -0.58669853039E+03  0.58669853039E+03  0.00000000000E+00 0. -1.
         25    2    1    2    0    0  0.58199921901E+02  0.20760269886E+03  0.40852353734E+03  0.47854179397E+03  0.12499862613E+03 0.  0.
          2    1    1    2  501    0 -0.85677286298E+02 -0.19985722962E+03 -0.52951609157E+03  0.57242536706E+03  0.00000000000E+00 0. -1.
          1    1    1    2  502    0  0.27477364398E+02 -0.77454692413E+01  0.28278930574E+03  0.28422665126E+03  0.00000000000E+00 0. -1.
         22    1    3    3    0    0  0.62748999063E+02  0.14668364583E+03  0.37792048011E+03  0.41021630651E+03  0.00000000000E+00 0. -1.
         22    1    3    3    0    0 -0.45490771625E+01  0.60919053034E+02  0.30603057227E+02  0.68325487465E+02  0.00000000000E+00 0. -1.
</event>
<event>
 7    1  0.5950675E-006  0.8898041E+02  0.7818608E-02  0.1330675E+00
          2   -1    0    0  502    0  0.00000000000E+00  0.00000000000E+00  0.12799859369E+04  0.12799859369E+04  0.00000000000E+00 0. -1.
          1   -1    0    0  501    0 -0.00000000000E+00 -0.00000000000E+00 -0.29719569280E+03  0.29719569280E+03  0.00000000000E+00 0. -1.
         25    2    1    2    0    0 -0.10930311681E+03 -0.51293920043E+02  0.64472061818E+02  0.18536481405E+03  0.12500091982E+03 0.  0.
          2    1    1    2  501    0  0.65935681924E+02 -0.26079492334E+02 -0.22969091024E+03  0.24038628979E+03  0.00000000000E+00 0. -1.
          1    1    1    2  502    0  0.43367434889E+02  0.77373412377E+02  0.11480090925E+04  0.11514305258E+04  0.00000000000E+00 0. -1.
         22    1    3    3    0    0 -0.82346976490E+01  0.35835391509E+02 -0.88179154788E+00  0.36779927764E+02  0.00000000000E+00 0. -1.
         22    1    3    3    0    0 -0.10106841916E+03 -0.87129311552E+02  0.65353853366E+02  0.14858488629E+03  0.00000000000E+00 0. -1.
</event>
<event>
 7    1  0.5950675E-006  0.1368913E+03  0.7818608E-02  0.1408847E+00
          2   -1    0    0  502    0  0.00000000000E+00  0.00000000000E+00  0.12804675260E+04  0.12804675260E+04  0.00000000000E+00 0. -1.
          1   -1    0    0  501    0 -0.00000000000E+00 -0.00000000000E+00 -0.78686523942E+03  0.78686523942E+03  0.00000000000E+00 0. -1.
         25    2    1    2    0    0  0.99933412952E+02 -0.78092748295E+02  0.37544762463E+03  0.41553854329E+03  0.12500479096E+03 0.  0.
          2    1    1    2  501    0 -0.12045114929E+03  0.65427261185E+02 -0.76052738225E+03  0.77278140830E+03  0.00000000000E+00 0. -1.
          1    1    1    2  502    0  0.20517736340E+02  0.12665487110E+02  0.87868204420E+03  0.87901281382E+03  0.00000000000E+00 0. -1.
         22    1    3    3    0    0  0.28035441975E+01  0.29736715177E+02  0.97669067816E+02  0.10213412210E+03  0.00000000000E+00 0. -1.
         22    1    3    3    0    0  0.97129868754E+02 -0.10782946347E+03  0.27777855681E+03  0.31340442119E+03  0.00000000000E+00 0. -1.
</event>
<event>
 7    1  0.5950675E-006  0.6808613E+02  0.7818608E-02  0.1482153E+00
          2   -1    0    0  502    0  0.00000000000E+00  0.00000000000E+00  0.17834306258E+03  0.17834306258E+03  0.00000000000E+00 0. -1.
          1   -1    0    0  501    0 -0.00000000000E+00 -0.00000000000E+00 -0.96217862653E+02  0.96217862653E+02  0.00000000000E+00 0. -1.
         25    2    1    2    0    0  0.81387328294E+02 -0.14011275497E+02  0.42813498807E+01  0.14987965059E+03  0.12500146662E+03 0.  0.
          2    1    1    2  501    0 -0.16008499767E+02  0.23144501941E+02  0.96001452250E+01  0.29733866604E+02  0.00000000000E+00 0. -1.
          1    1    1    2  502    0 -0.65378828527E+02 -0.91332264439E+01  0.68243704821E+02  0.94947408035E+02  0.00000000000E+00 0. -1.
         22    1    3    3    0    0 -0.12317257875E+02  0.39083168811E+02  0.94526694696E+01  0.42054273100E+02  0.00000000000E+00 0. -1.
         22    1    3    3    0    0  0.93704586169E+02 -0.53094444308E+02 -0.51713195889E+01  0.10782537749E+03  0.00000000000E+00 0. -1.
</event>
<event>
 7    1  0.5950675E-006  0.6208460E+02  0.7818608E-02  0.1538255E+00
          2   -1    0    0  502    0  0.00000000000E+00  0.00000000000E+00  0.31455684230E+03  0.31455684230E+03  0.00000000000E+00 0. -1.
          1   -1    0    0  501    0 -0.00000000000E+00 -0.00000000000E+00 -0.68170941691E+02  0.68170941691E+02  0.00000000000E+00 0. -1.
         25    2    1    2    0    0  0.37755456497E+02  0.38838316448E+02  0.13578142651E+03  0.19234030307E+03  0.12499722829E+03 0.  0.
          2    1    1    2  501    0  0.19302197699E+02 -0.85203661652E+01 -0.29403096708E+02  0.36189965068E+02  0.00000000000E+00 0. -1.
          1    1    1    2  502    0 -0.57057654196E+02 -0.30317950282E+02  0.14000757081E+03  0.15419751585E+03  0.00000000000E+00 0. -1.
         22    1    3    3    0    0  0.35001521738E+02  0.37104852985E+02 -0.52439050412E+01  0.51277433430E+02  0.00000000000E+00 0. -1.
         22    1    3    3    0    0  0.27539347592E+01  0.17334634621E+01  0.14102533155E+03  0.14106286964E+03  0.00000000000E+00 0. -1.
</event>
<event>
 7    1  0.5950675E-006  0.5774960E+02  0.7818608E-02  0.1530696E+00
          2   -1    0    0  502    0  0.00000000000E+00  0.00000000000E+00  0.40153027338E+03  0.40153027338E+03  0.00000000000E+00 0. -1.
          1   -1    0    0  501    0 -0.00000000000E+00 -0.00000000000E+00 -0.79895050879E+03  0.79895050879E+03  0.00000000000E+00 0. -1.
         25    2    1    2    0    0 -0.58739287755E+02 -0.86286308426E+01 -0.40305078325E+02  0.14412922545E+03  0.12499590831E+03 0.  0.
          2    1    1    2  501    0  0.95771178934E+01 -0.21826956944E+02 -0.70413881089E+03  0.70454212240E+03  0.00000000000E+00 0. -1.
          1    1    1    2  502    0  0.49162169861E+02  0.30455587786E+02  0.34702365380E+03  0.35180943431E+03  0.00000000000E+00 0. -1.
         22    1    3    3    0    0 -0.20468591677E+02 -0.65134859215E+02 -0.83899858855E+01  0.68788843524E+02  0.00000000000E+00 0.  1.
         22    1    3    3    0    0 -0.38270696078E+02  0.56506228373E+02 -0.31915092439E+02  0.75340381925E+02  0.00000000000E+00 0.  1.
</event>
<event>
 7    1  0.5950675E-006  0.4709656E+02  0.7818608E-02  0.1500440E+00
          2   -1    0    0  502    0  0.00000000000E+00  0.00000000000E+00  0.39886308477E+02  0.39886308477E+02  0.00000000000E+00 0. -1.
          1   -1    0    0  501    0 -0.00000000000E+00 -0.00000000000E+00 -0.41593416697E+04  0.41593416697E+04  0.00000000000E+00 0. -1.
         25    2    1    2    0    0 -0.27518963418E+02 -0.67390427978E+02 -0.10362771603E+04  0.10463240867E+04  0.12499991370E+03 0.  0.
          2    1    1    2  501    0  0.33551141798E+02  0.32077095269E+02 -0.31086184677E+04  0.31089650042E+04  0.00000000000E+00 0. -1.
          1    1    1    2  502    0 -0.60321783798E+01  0.35313332710E+02  0.25440266780E+02  0.43938887297E+02  0.00000000000E+00 0. -1.
         22    1    3    3    0    0 -0.50408439001E+02  0.19548331984E+02 -0.34119320137E+03  0.34545035630E+03  0.00000000000E+00 0. -1.
         22    1    3    3    0    0  0.22889475583E+02 -0.86938759963E+02 -0.69508395889E+03  0.70087373041E+03  0.00000000000E+00 0. -1.
</event>
<event>
 7    1  0.5950675E-006  0.4938998E+02  0.7818608E-02  0.1488416E+00
          2   -1    0    0  502    0  0.00000000000E+00  0.00000000000E+00  0.37326061021E+03  0.37326061021E+03  0.00000000000E+00 0. -1.
          1   -1    0    0  501    0 -0.00000000000E+00 -0.00000000000E+00 -0.13227118958E+03  0.13227118958E+03  0.00000000000E+00 0. -1.
         25    2    1    2    0    0 -0.55296466458E+02 -0.40647482239E+02  0.83587216421E+02  0.16529278608E+03  0.12499986146E+03 0.  0.
          2    1    1    2  501    0  0.48694814031E+02  0.41118282415E+01 -0.83361577657E+02  0.96629419301E+02  0.00000000000E+00 0. -1.
          1    1    1    2  502    0  0.66016524269E+01  0.36535653997E+02  0.24076378187E+03  0.24360959441E+03  0.00000000000E+00 0. -1.
         22    1    3    3    0    0 -0.92364543048E+02 -0.42796464718E+02  0.76867679901E+02  0.12755934469E+03  0.00000000000E+00 0.  1.
         22    1    3    3    0    0  0.37068076590E+02  0.21489824796E+01  0.67195365199E+01  0.37733441386E+02  0.00000000000E+00 0.  1.
</event>
<event>
 7    1  0.5950675E-006  0.2358073E+03  0.7818608E-02  0.1279261E+00
          2   -1    0    0  502    0  0.00000000000E+00  0.00000000000E+00  0.13219834103E+04  0.13219834103E+04  0.00000000000E+00 0. -1.
          1   -1    0    0  501    0 -0.00000000000E+00 -0.00000000000E+00 -0.75227540743E+03  0.75227540743E+03  0.00000000000E+00 0. -1.
         25    2    1    2    0    0  0.21941267776E+03 -0.15182301665E+01 -0.20807121838E+03  0.32720467977E+03  0.12500016944E+03 0.  0.
          2    1    1    2  501    0  0.13411938910E+02 -0.40673005241E+02 -0.47257327376E+03  0.47450992881E+03  0.00000000000E+00 0. -1.
          1    1    1    2  502    0 -0.23282461667E+03  0.42191235407E+02  0.12503524950E+04  0.12725442092E+04  0.00000000000E+00 0. -1.
         22    1    3    3    0    0  0.16274367690E+03 -0.53143217949E+02 -0.17129509898E+03  0.24218116549E+03  0.00000000000E+00 0. -1.
         22    1    3    3    0    0  0.56669000858E+02  0.51624987783E+02 -0.36776119400E+02  0.85023514276E+02  0.00000000000E+00 0. -1.
</event>
<event>
 7    1  0.5950675E-006  0.3061445E+03  0.7818608E-02  0.1201260E+00
          2   -1    0    0  502    0  0.00000000000E+00  0.00000000000E+00  0.13851732266E+04  0.13851732266E+04  0.00000000000E+00 0. -1.
          1   -1    0    0  501    0 -0.00000000000E+00 -0.00000000000E+00 -0.14725487062E+04  0.14725487062E+04  0.00000000000E+00 0. -1.
         25    2    1    2    0    0 -0.13709815096E+02 -0.25884843937E+03  0.80772134272E+02  0.29890310946E+03  0.12501382955E+03 0.  0.
          2    1    1    2  501    0  0.47826027033E+02 -0.54979054085E+02 -0.13416354604E+04  0.13436129405E+04  0.00000000000E+00 0. -1.
          1    1    1    2  502    0 -0.34116211938E+02  0.31382749345E+03  0.11734878466E+04  0.12152058828E+04  0.00000000000E+00 0. -1.
         22    1    3    3    0    0 -0.37933774721E+02 -0.27494652543E+02  0.42307885889E+02  0.63125940717E+02  0.00000000000E+00 0. -1.
         22    1    3    3    0    0  0.24223959626E+02 -0.23135378682E+03  0.38464248383E+02  0.23577716874E+03  0.00000000000E+00 0. -1.
</event>
<event>
 7    1  0.5950675E-006  0.5854147E+02  0.7818608E-02  0.1452466E+00
          2   -1    0    0  502    0  0.00000000000E+00  0.00000000000E+00  0.15889437493E+04  0.15889437493E+04  0.00000000000E+00 0. -1.
          1   -1    0    0  501    0 -0.00000000000E+00 -0.00000000000E+00 -0.27163232697E+03  0.27163232697E+03  0.00000000000E+00 0. -1.
         25    2    1    2    0    0 -0.14997492475E+02 -0.92422558630E+02  0.64880727453E+03  0.66734027168E+03  0.12500121840E+03 0.  0.
          2    1    1    2  501    0  0.24443928713E+02  0.53021452756E+02 -0.25866977770E+03  0.26517698618E+03  0.00000000000E+00 0. -1.
          1    1    1    2  502    0 -0.94464362384E+01  0.39401105875E+02  0.92717392553E+03  0.92805881844E+03  0.00000000000E+00 0. -1.
         22    1    3    3    0    0 -0.15766116936E+02 -0.77955867628E+01  0.54107127340E+01  0.18401560491E+02  0.00000000000E+00 0. -1.
         22    1    3    3    0    0  0.76862446077E+00 -0.84626971868E+02  0.64339656179E+03  0.64893871119E+03  0.00000000000E+00 0. -1.
</event>
<event>
 7    1  0.5950675E-006  0.9767849E+02  0.7818608E-02  0.1412961E+00
          2   -1    0    0  502    0  0.00000000000E+00  0.00000000000E+00  0.51272903396E+03  0.51272903396E+03  0.00000000000E+00 0. -1.
          1   -1    0    0  501    0 -0.00000000000E+00 -0.00000000000E+00 -0.11563977267E+03  0.11563977267E+03  0.00000000000E+00 0. -1.
         25    2    1    2    0    0  0.24246721227E+02 -0.10567797078E+03 -0.66582806932E+01  0.16560566089E+03  0.12500066087E+03 0.  0.
          2    1    1    2  501    0  0.24614910112E+02  0.21565271231E+02 -0.12701703496E+02  0.35103959817E+02  0.00000000000E+00 0. -1.
          1    1    1    2  502    0 -0.48861631339E+02  0.84112699546E+02  0.41644924548E+03  0.42765918593E+03  0.00000000000E+00 0. -1.
         22    1    3    3    0    0  0.20557002986E+02 -0.38401571908E+02 -0.63806336366E+02  0.77256194944E+02  0.00000000000E+00 0. -1.
         22    1    3    3    0    0  0.36897182412E+01 -0.67276398869E+02  0.57148055673E+02  0.88349465944E+02  0.00000000000E+00 0. -1.
</event>
<event>
 7    1  0.5950675E-006  0.3504275E+02  0.7818608E-02  0.1618107E+00
          2   -1    0    0  502    0  0.00000000000E+00  0.00000000000E+00  0.13382684366E+04  0.13382684366E+04  0.00000000000E+00 0. -1.
          1   -1    0    0  501    0 -0.00000000000E+00 -0.00000000000E+00 -0.16861037671E+04  0.16861037671E+04  0.00000000000E+00 0. -1.
         25    2    1    2    0    0 -0.18736543076E+02  0.43226365924E+02 -0.85973876679E+03  0.87005488936E+03  0.12500074646E+03 0.  0.
          2    1    1    2  501    0 -0.23049468396E+01 -0.34453793546E+02 -0.82074641368E+03  0.82147249025E+03  0.00000000000E+00 0. -1.
          1    1    1    2  502    0  0.21041489915E+02 -0.87725723778E+01  0.13326498500E+04  0.13328448241E+04  0.00000000000E+00 0. -1.
         22    1    3    3    0    0  0.24270629267E+02 -0.34451695664E+02 -0.36357892238E+03  0.36601313580E+03  0.00000000000E+00 0.  1.
         22    1    3    3    0    0 -0.43007172343E+02  0.77678061587E+02 -0.49615984441E+03  0.50404175356E+03  0.00000000000E+00 0.  1.
</event>
<event>
 7    1  0.5950675E-006  0.1158684E+03  0.7818608E-02  0.1387708E+00
          2   -1    0    0  502    0  0.00000000000E+00  0.00000000000E+00  0.21886451752E+04  0.21886451752E+04  0.00000000000E+00 0. -1.
          1   -1    0    0  501    0 -0.00000000000E+00 -0.00000000000E+00 -0.99589705851E+02  0.99589705851E+02  0.00000000000E+00 0. -1.
         25    2    1    2    0    0  0.12623939090E+03 -0.53560826202E+02  0.45020040100E+03  0.48694087966E+03  0.12500349317E+03 0.  0.
          2    1    1    2  501    0 -0.11189542047E+03  0.23075094210E+02 -0.40788469758E+02  0.12131258946E+03  0.00000000000E+00 0. -1.
          1    1    1    2  502    0 -0.14343970425E+02  0.30485731992E+02  0.16796435381E+04  0.16799814119E+04  0.00000000000E+00 0. -1.
         22    1    3    3    0    0  0.12691241900E+03  0.45074855325E+01  0.29204745997E+03  0.31846318217E+03  0.00000000000E+00 0. -1.
         22    1    3    3    0    0 -0.67302810534E+00 -0.58068311735E+02  0.15815294103E+03  0.16847769749E+03  0.00000000000E+00 0. -1.
</event>
<event>
 7    1  0.5950675E-006  0.1052706E+03  0.7818608E-02  0.1422003E+00
          2   -1    0    0  502    0  0.00000000000E+00  0.00000000000E+00  0.44992937892E+02  0.44992937892E+02  0.00000000000E+00 0. -1.
          1   -1    0    0  501    0 -0.00000000000E+00 -0.00000000000E+00 -0.10803864520E+04  0.10803864520E+04  0.00000000000E+00 0. -1.
         25    2    1    2    0    0 -0.68432728902E+02 -0.10269246429E+03 -0.69278100263E+03  0.71470173761E+03  0.12499710211E+03 0.  0.
          2    1    1    2  501    0  0.51463897343E+02  0.80021252023E+02 -0.36333621026E+03  0.37558638845E+03  0.00000000000E+00 0. -1.
          1    1    1    2  502    0  0.16968831559E+02  0.22671212268E+02  0.20723698740E+02  0.35091263865E+02  0.00000000000E+00 0. -1.
         22    1    3    3    0    0 -0.18098786250E+02 -0.11773959578E+03 -0.40461292709E+03  0.42178406708E+03  0.00000000000E+00 0. -1.
         22    1    3    3    0    0 -0.50333942651E+02  0.15047131484E+02 -0.28816807554E+03  0.29291767053E+03  0.00000000000E+00 0. -1.
</event>
<event>
 7    1  0.5950675E-006  0.9803535E+02  0.7818608E-02  0.1334612E+00
          2   -1    0    0  502    0  0.00000000000E+00  0.00000000000E+00  0.19280681929E+03  0.19280681929E+03  0.00000000000E+00 0. -1.
          1   -1    0    0  501    0 -0.00000000000E+00 -0.00000000000E+00 -0.59053686688E+03  0.59053686688E+03  0.00000000000E+00 0. -1.
         25    2    1    2    0    0 -0.95945939320E+02 -0.12022262217E+03 -0.21636154954E+02  0.19937805947E+03  0.12499754095E+03 0.  0.
          2    1    1    2  501    0  0.71054697143E+02  0.63247576109E+02 -0.46546972332E+03  0.47509061156E+03  0.00000000000E+00 0. -1.
          1    1    1    2  502    0  0.24891242177E+02  0.56975046063E+02  0.89375830685E+02  0.10887501514E+03  0.00000000000E+00 0. -1.
         22    1    3    3    0    0 -0.97213694389E+02 -0.57913203753E+02  0.31521021290E+02  0.11746495788E+03  0.00000000000E+00 0.  1.
         22    1    3    3    0    0  0.12677550687E+01 -0.62309418420E+02 -0.53157176244E+02  0.81913101595E+02  0.00000000000E+00 0.  1.
</event>
<event>
 7    1  0.5950675E-006  0.6052478E+02  0.7818608E-02  0.1400331E+00
          2   -1    0    0  502    0  0.00000000000E+00  0.00000000000E+00  0.21269561316E+04  0.21269561316E+04  0.00000000000E+00 0. -1.
          1   -1    0    0  501    0 -0.00000000000E+00 -0.00000000000E+00 -0.82410188189E+02  0.82410188189E+02  0.00000000000E+00 0. -1.
         25    2    1    2    0    0  0.17400390108E+02 -0.28884837798E+02  0.30001657168E+02  0.13289993961E+03  0.12500074834E+03 0.  0.
          2    1    1    2  501    0  0.20204946930E+02  0.76309382049E+02  0.20571753827E+02  0.81575478697E+02  0.00000000000E+00 0. -1.
          1    1    1    2  502    0 -0.37605337038E+02 -0.47424544251E+02  0.19939725324E+04  0.19948909015E+04  0.00000000000E+00 0. -1.
         22    1    3    3    0    0  0.57495616306E+02 -0.19293435322E+02  0.57316594132E+02  0.83445638015E+02  0.00000000000E+00 0. -1.
         22    1    3    3    0    0 -0.40095226198E+02 -0.95914024759E+01 -0.27314936964E+02  0.49454301599E+02  0.00000000000E+00 0. -1.
</event>
<event>
 7    1  0.5950675E-006  0.4001032E+02  0.7818608E-02  0.1532483E+00
          2   -1    0    0  502    0  0.00000000000E+00  0.00000000000E+00  0.86932167656E+02  0.86932167656E+02  0.00000000000E+00 0. -1.
          1   -1    0    0  501    0 -0.00000000000E+00 -0.00000000000E+00 -0.33950187569E+04  0.33950187569E+04  0.00000000000E+00 0. -1.
         25    2    1    2    0    0  0.15148771367E+02  0.70585704762E+01 -0.14870060557E+04  0.14923444260E+04  0.12500226979E+03 0.  0.
          2    1    1    2  501    0 -0.94907807058E+01  0.32649785122E+02 -0.19004097632E+04  0.19007139057E+04  0.00000000000E+00 0. -1.
          1    1    1    2  502    0 -0.56579906613E+01 -0.39708355598E+02  0.79329229707E+02  0.88892592765E+02  0.00000000000E+00 0. -1.
         22    1    3    3    0    0  0.41950086660E+02 -0.47612797001E+02 -0.63388362156E+03  0.63705198681E+03  0.00000000000E+00 0. -1.
         22    1    3    3    0    0 -0.26801315293E+02  0.54671367477E+02 -0.85312243414E+03  0.85529243920E+03  0.00000000000E+00 0. -1.
</event>
<event>
 7    1  0.5950675E-006  0.9221570E+02  0.7818608E-02  0.1315281E+00
          2   -1    0    0  502    0  0.00000000000E+00  0.00000000000E+00  0.27442674995E+03  0.27442674995E+03  0.00000000000E+00 0. -1.
          1   -1    0    0  501    0 -0.00000000000E+00 -0.00000000000E+00 -0.16771818641E+03  0.16771818641E+03  0.00000000000E+00 0. -1.
         25    2    1    2    0    0  0.67515392151E+02 -0.60600535707E+02  0.84233100285E+01  0.15468793146E+03  0.12500660336E+03 0.  0.
          2    1    1    2  501    0 -0.69190735250E+02 -0.36986093040E+02 -0.61862636359E+02  0.99911534370E+02  0.00000000000E+00 0. -1.
          1    1    1    2  502    0  0.16753430993E+01  0.97586628747E+02  0.16014788987E+03  0.18754547053E+03  0.00000000000E+00 0. -1.
         22    1    3    3    0    0  0.12164179631E-01 -0.82963200918E+02 -0.90187675951E+00  0.82968103728E+02  0.00000000000E+00 0. -1.
         22    1    3    3    0    0  0.67503227971E+02  0.22362665211E+02  0.93251867880E+01  0.71719827736E+02  0.00000000000E+00 0. -1.
</event>
<event>
 7    1  0.5950675E-006  0.5200415E+02  0.7818608E-02  0.1545218E+00
          2   -1    0    0  502    0  0.00000000000E+00  0.00000000000E+00  0.94300774601E+03  0.94300774601E+03  0.00000000000E+00 0. -1.
          1   -1    0    0  501    0 -0.00000000000E+00 -0.00000000000E+00 -0.67277242664E+03  0.67277242664E+03  0.00000000000E+00 0. -1.
         25    2    1    2    0    0 -0.31417658922E+02 -0.47667204749E+02  0.63664459876E+03  0.65130552501E+03  0.12499324010E+03 0.  0.
          2    1    1    2  501    0  0.76397662725E+01  0.51440293855E+02 -0.66393894171E+03  0.66597251308E+03  0.00000000000E+00 0. -1.
          1    1    1    2  502    0  0.23777892650E+02 -0.37730891062E+01  0.29752966231E+03  0.29850213456E+03  0.00000000000E+00 0. -1.
         22    1    3    3    0    0  0.83420605373E+01 -0.17742317080E+02  0.87967157042E+01  0.21488648086E+02  0.00000000000E+00 0.  1.
         22    1    3    3    0    0 -0.39759719459E+02 -0.29924887669E+02  0.62784788306E+03  0.62981687692E+03  0.00000000000E+00 0.  1.
</event>
<event>
 7    1  0.5950675E-006  0.1204833E+03  0.7818608E-02  0.1280771E+00
          2   -1    0    0  502    0  0.00000000000E+00  0.00000000000E+00  0.15263554104E+04  0.15263554104E+04  0.00000000000E+00 0. -1.
          1   -1    0    0  501    0 -0.00000000000E+00 -0.00000000000E+00 -0.32367535694E+03  0.32367535694E+03  0.00000000000E+00 0. -1.
         25    2    1    2    0    0 -0.16411615303E+03 -0.58588141499E+02 -0.12726322148E+03  0.24937439834E+03  0.12499992398E+03 0.  0.
          2    1    1    2  501    0  0.44631791772E+02  0.69533587699E+02 -0.12003434783E+03  0.14572289221E+03  0.00000000000E+00 0. -1.
          1    1    1    2  502    0  0.11948436126E+03 -0.10945446201E+02  0.14499776227E+04  0.14549334768E+04  0.00000000000E+00 0. -1.
         22    1    3    3    0    0 -0.51361058673E+02  0.33346143893E+02 -0.90169555296E+01  0.61896923571E+02  0.00000000000E+00 0.  1.
         22    1    3    3    0    0 -0.11275509436E+03 -0.91934285392E+02 -0.11824626595E+03  0.18747747476E+03  0.00000000000E+00 0.  1.
</event>
<event>
 7    1  0.5950675E-006  0.2108500E+03  0.7818608E-02  0.1293088E+00
          2   -1    0    0  502    0  0.00000000000E+00  0.00000000000E+00  0.14893595462E+04  0.14893595462E+04  0.00000000000E+00 0. -1.
          1   -1    0    0  501    0 -0.00000000000E+00 -0.00000000000E+00 -0.93674157428E+03  0.93674157428E+03  0.00000000000E+00 0. -1.
         25    2    1    2    0    0  0.22452517069E+03  0.56534847817E+02 -0.17693959048E+02  0.26371158088E+03  0.12499192139E+03 0.  0.
          2    1    1    2  501    0 -0.15417428839E+02 -0.39117479096E+02 -0.78741858440E+03  0.78854036126E+03  0.00000000000E+00 0. -1.
          1    1    1    2  502    0 -0.20910774185E+03 -0.17417368720E+02  0.13577305154E+04  0.13738491783E+04  0.00000000000E+00 0. -1.
         22    1    3    3    0    0  0.17666247522E+02 -0.31761900214E+02  0.83561876050E+01  0.37292633026E+02  0.00000000000E+00 0.  1.
         22    1    3    3    0    0  0.20685892317E+03  0.88296748030E+02 -0.26050146653E+02  0.22641894785E+03  0.00000000000E+00 0.  1.
</event>
<event>
 7    1  0.5950675E-006  0.1808560E+03  0.7818608E-02  0.1312749E+00
          2   -1    0    0  502    0  0.00000000000E+00  0.00000000000E+00  0.69063103468E+03  0.69063103468E+03  0.00000000000E+00 0. -1.
          1   -1    0    0  501    0 -0.00000000000E+00 -0.00000000000E+00 -0.49263435069E+03  0.49263435069E+03  0.00000000000E+00 0. -1.
         25    2    1    2    0    0  0.14772392975E+03  0.21571811727E+02 -0.16074986346E+03  0.25249489199E+03  0.12500179757E+03 0.  0.
          2    1    1    2  501    0  0.35206608818E+02 -0.20869813976E+02 -0.27147169978E+03  0.27453950212E+03  0.00000000000E+00 0. -1.
          1    1    1    2  502    0 -0.18293053857E+03 -0.70199775034E+00  0.63021824724E+03  0.65623099126E+03  0.00000000000E+00 0. -1.
         22    1    3    3    0    0  0.11731376467E+03 -0.17331897108E+02 -0.45329336589E+02  0.12695535748E+03  0.00000000000E+00 0.  1.
         22    1    3    3    0    0  0.30410165087E+02  0.38903708835E+02 -0.11542052688E+03  0.12553953451E+03  0.00000000000E+00 0.  1.
</event>
<event>
 7    1  0.5950675E-006  0.3281727E+03  0.7818608E-02  0.1290870E+00
          2   -1    0    0  502    0  0.00000000000E+00  0.00000000000E+00  0.16625622426E+04  0.16625622426E+04  0.00000000000E+00 0. -1.
          1   -1    0    0  501    0 -0.00000000000E+00 -0.00000000000E+00 -0.12280516789E+04  0.12280516789E+04  0.00000000000E+00 0. -1.
         25    2    1    2    0    0  0.26777737721E+03  0.15571837174E+03 -0.50605844627E+03  0.60636018800E+03  0.12499836599E+03 0.  0.
          2    1    1    2  501    0  0.26207406254E+02 -0.85911546381E+01 -0.65479256426E+03  0.65537312906E+03  0.00000000000E+00 0. -1.
          1    1    1    2  502    0 -0.29398478347E+03 -0.14712721711E+03  0.15953615742E+04  0.16288806044E+04  0.00000000000E+00 0. -1.
         22    1    3    3    0    0  0.35690949477E+02 -0.20567643464E+02 -0.45933059701E+02  0.61698604569E+02  0.00000000000E+00 0.  1.
         22    1    3    3    0    0  0.23208642774E+03  0.17628601521E+03 -0.46012538657E+03  0.54466158343E+03  0.00000000000E+00 0.  1.
</event>
<event>
 7    1  0.5950675E-006  0.3455497E+02  0.7818608E-02  0.1591516E+00
          2   -1    0    0  502    0  0.00000000000E+00  0.00000000000E+00  0.17294163116E+04  0.17294163116E+04  0.00000000000E+00 0. -1.
          1   -1    0    0  501    0 -0.00000000000E+00 -0.00000000000E+00 -0.27804026137E+02  0.27804026137E+02  0.00000000000E+00 0. -1.
         25    2    1    2    0    0 -0.21043470924E+02  0.19449275133E+02  0.49187835861E+03  0.50832107610E+03  0.12499957908E+03 0.  0.
          2    1    1    2  501    0 -0.13771701768E+02 -0.23343719754E+02 -0.98310681355E+01  0.28831214373E+02  0.00000000000E+00 0. -1.
          1    1    1    2  502    0  0.34815172692E+02  0.38944446212E+01  0.12195649950E+04  0.12200680473E+04  0.00000000000E+00 0. -1.
         22    1    3    3    0    0  0.36981422062E+02 -0.10486574606E+02  0.35041393375E+03  0.35251598374E+03  0.00000000000E+00 0.  1.
         22    1    3    3    0    0 -0.58024892986E+02  0.29935849739E+02  0.14146442485E+03  0.15580509236E+03  0.00000000000E+00 0.  1.
</event>
<event>
 7    1  0.5950675E-006  0.6972041E+02  0.7818608E-02  0.1481257E+00
          2   -1    0    0  502    0  0.00000000000E+00  0.00000000000E+00  0.22519091576E+04  0.22519091576E+04  0.00000000000E+00 0. -1.
          1   -1    0    0  501    0 -0.00000000000E+00 -0.00000000000E+00 -0.20265828729E+02  0.20265828729E+02  0.00000000000E+00 0. -1.
         25    2    1    2    0    0  0.53069084576E+02 -0.13497007933E+00  0.52942030992E+03  0.54656010313E+03  0.12500294327E+03 0.  0.
          2    1    1    2  501    0  0.14268368227E+02 -0.23690891931E+02  0.65276095394E+01  0.28415741741E+02  0.00000000000E+00 0. -1.
          1    1    1    2  502    0 -0.67337452803E+02  0.23825862011E+02  0.16956954094E+04  0.16971991414E+04  0.00000000000E+00 0. -1.
         22    1    3    3    0    0  0.19006004525E+02  0.59896593704E+02  0.18772958306E+03  0.19796774106E+03  0.00000000000E+00 0. -1.
         22    1    3    3    0    0  0.34063080051E+02 -0.60031563783E+02  0.34169072686E+03  0.34859236207E+03  0.00000000000E+00 0. -1.
</event>
<event>
 7    1  0.5950675E-006  0.7937400E+02  0.7818608E-02  0.1393304E+00
          2   -1    0    0  502    0  0.00000000000E+00  0.00000000000E+00  0.34055589539E+03  0.34055589539E+03  0.00000000000E+00 0. -1.
          1   -1    0    0  501    0 -0.00000000000E+00 -0.00000000000E+00 -0.15811539569E+04  0.15811539569E+04  0.00000000000E+00 0. -1.
         25    2    1    2    0    0 -0.56465040265E+02 -0.99360713234E+01 -0.41674620324E+03  0.43885510118E+03  0.12501750131E+03 0.  0.
          2    1    1    2  501    0  0.61356056700E+02  0.56702536419E+02 -0.11501528645E+04  0.11531831403E+04  0.00000000000E+00 0. -1.
          1    1    1    2  502    0 -0.48910164347E+01 -0.46766465095E+02  0.32630100624E+03  0.32967161081E+03  0.00000000000E+00 0. -1.
         22    1    3    3    0    0  0.31672618845E+02  0.23020913075E+02 -0.77910582741E+02  0.87196193302E+02  0.00000000000E+00 0.  1.
         22    1    3    3    0    0 -0.88137659110E+02 -0.32956984398E+02 -0.33883562050E+03  0.35165890788E+03  0.00000000000E+00 0.  1.
</event>
<event>
 7    1  0.1122035E-005  0.6841908E+02  0.7818608E-02  0.1365771E+00
          2   -1    0    0  502    0  0.00000000000E+00  0.00000000000E+00  0.93873790814E+03  0.93873790814E+03  0.00000000000E+00 0. -1.
          1   -1    0    0  501    0 -0.00000000000E+00 -0.00000000000E+00 -0.16839457918E+04  0.16839457918E+04  0.00000000000E+00 0. -1.
         25    2    1    2    0    0 -0.30749809457E+02  0.16973394471E+02 -0.26005742436E+03  0.29066492400E+03  0.12499034834E+03 0.  0.
          2    1    1    2  501    0 -0.11632119154E+02 -0.70685053495E+02 -0.14064044307E+04  0.14082276469E+04  0.00000000000E+00 0. -1.
          1    1    1    2  502    0  0.42381928611E+02  0.53711659024E+02  0.92125397140E+03  0.92379112899E+03  0.00000000000E+00 0. -1.
         22    1    3    3    0    0  0.14548234203E+02  0.51189006932E+02 -0.49816763456E+02  0.72894961900E+02  0.00000000000E+00 0. -1.
         22    1    3    3    0    0 -0.45298043659E+02 -0.34215612461E+02 -0.21024066091E+03  0.21776996210E+03  0.00000000000E+00 0. -1.
</event>
<event>
 7    1  0.5950675E-006  0.1431196E+03  0.7818608E-02  0.1291358E+00
          2   -1    0    0  502    0  0.00000000000E+00  0.00000000000E+00  0.15497504658E+03  0.15497504658E+03  0.00000000000E+00 0. -1.
          1   -1    0    0  501    0 -0.00000000000E+00 -0.00000000000E+00 -0.14169219132E+04  0.14169219132E+04  0.00000000000E+00 0. -1.
         25    2    1    2    0    0  0.10776351668E+03  0.62949644642E+02 -0.48749388641E+03  0.51850848491E+03  0.12500050538E+03 0.  0.
          2    1    1    2  501    0 -0.15286708544E+03 -0.19033264412E+02 -0.89992239090E+03  0.91301200464E+03  0.00000000000E+00 0. -1.
          1    1    1    2  502    0  0.45103568760E+02 -0.43916380231E+02  0.12546941071E+03  0.14037647022E+03  0.00000000000E+00 0. -1.
         22    1    3    3    0    0  0.10107724792E+03  0.95590340999E+02 -0.43127420341E+03  0.45315732574E+03  0.00000000000E+00 0. -1.
         22    1    3    3    0    0  0.66862687593E+01 -0.32640696356E+02 -0.56219683000E+02  0.65351159172E+02  0.00000000000E+00 0. -1.
</event>
<event>
 7    1  0.5950675E-006  0.1090586E+03  0.7818608E-02  0.1446530E+00
          2   -1    0    0  502    0  0.00000000000E+00  0.00000000000E+00  0.16727614237E+04  0.16727614237E+04  0.00000000000E+00 0. -1.
          1   -1    0    0  501    0 -0.00000000000E+00 -0.00000000000E+00 -0.54529616746E+03  0.54529616746E+03  0.00000000000E+00 0. -1.
         25    2    1    2    0    0 -0.89847362226E+02 -0.42502312920E+02 -0.13821138948E+03  0.21120274974E+03  0.12500087285E+03 0.  0.
          2    1    1    2  501    0 -0.16080119141E+02  0.16054404040E+02 -0.36841744240E+03  0.36911749618E+03  0.00000000000E+00 0. -1.
          1    1    1    2  502    0  0.10592748137E+03  0.26447908881E+02  0.16340940881E+04  0.16377373452E+04  0.00000000000E+00 0. -1.
         22    1    3    3    0    0  0.22569810944E+02  0.18163489416E+02 -0.11188635677E+02  0.31056308251E+02  0.00000000000E+00 0.  1.
         22    1    3    3    0    0 -0.11241717317E+03 -0.60665802337E+02 -0.12702275380E+03  0.18014644149E+03  0.00000000000E+00 0.  1.
</event>
<event>
 7    1  0.5950675E-006  0.1965407E+03  0.7818608E-02  0.1168956E+00
          2   -1    0    0  502    0  0.00000000000E+00  0.00000000000E+00  0.42729835956E+03  0.42729835956E+03  0.00000000000E+00 0. -1.
          1   -1    0    0  501    0 -0.00000000000E+00 -0.00000000000E+00 -0.46358103804E+03  0.46358103804E+03  0.00000000000E+00 0. -1.
         25    2    1    2    0    0  0.70107055053E+02 -0.27835447176E+03 -0.23215656956E+02  0.31394293070E+03  0.12499994358E+03 0.  0.
          2    1    1    2  501    0 -0.13219523009E+03  0.12798306872E+03 -0.23706658356E+03  0.30009300188E+03  0.00000000000E+00 0. -1.
          1    1    1    2  502    0  0.62088175034E+02  0.15037140304E+03  0.22399956204E+03  0.27684346502E+03  0.00000000000E+00 0. -1.
         22    1    3    3    0    0 -0.19419612994E+01 -0.15544221601E+03  0.36140897735E+02  0.15960018239E+03  0.00000000000E+00 0.  1.
         22    1    3    3    0    0  0.72049016352E+02 -0.12291225575E+03 -0.59356554691E+02  0.15434274831E+03  0.00000000000E+00 0.  1.
</event>
<event>
 7    1  0.5950675E-006  0.1226666E+03  0.7818608E-02  0.1272102E+00
          2   -1    0    0  502    0  0.00000000000E+00  0.00000000000E+00  0.22007626815E+04  0.22007626815E+04  0.00000000000E+00 0. -1.
          1   -1    0    0  501    0 -0.00000000000E+00 -0.00000000000E+00 -0.15105858073E+03  0.15105858073E+03  0.00000000000E+00 0. -1.
         25    2    1    2    0    0  0.48602428818E+02  0.68538480308E+02  0.26551620107E+03  0.30526126717E+03  0.12500347528E+03 0.  0.
          2    1    1    2  501    0  0.77787567761E+02 -0.41518083248E+02 -0.11391992069E+03  0.14405695146E+03  0.00000000000E+00 0. -1.
          1    1    1    2  502    0 -0.12638999658E+03 -0.27020397060E+02  0.18981078203E+04  0.19025030436E+04  0.00000000000E+00 0. -1.
         22    1    3    3    0    0 -0.11696404236E+02 -0.22778208369E+02  0.12268980725E+03  0.12533332139E+03  0.00000000000E+00 0. -1.
         22    1    3    3    0    0  0.60298833054E+02  0.91316688677E+02  0.14282639383E+03  0.17992794578E+03  0.00000000000E+00 0. -1.
</event>
<event>
 7    1  0.5950675E-006  0.4741586E+02  0.7818608E-02  0.1546361E+00
          2   -1    0    0  502    0  0.00000000000E+00  0.00000000000E+00  0.59973989111E+03  0.59973989111E+03  0.00000000000E+00 0. -1.
          1   -1    0    0  501    0 -0.00000000000E+00 -0.00000000000E+00 -0.36063164507E+04  0.36063164507E+04  0.00000000000E+00 0. -1.
         25    2    1    2    0    0 -0.94340200627E+01 -0.59940404727E+02 -0.20209082629E+04  0.20256794909E+04  0.12500135956E+03 0.  0.
          2    1    1    2  501    0 -0.16578885446E+02  0.20301470115E+02 -0.15819730616E+04  0.15821901835E+04  0.00000000000E+00 0. -1.
          1    1    1    2  502    0  0.26012905509E+02  0.39638934612E+02  0.59630476493E+03  0.59818666741E+03  0.00000000000E+00 0. -1.
         22    1    3    3    0    0 -0.19431498795E+02 -0.97680997344E+02 -0.13886477350E+04  0.13922146718E+04  0.00000000000E+00 0.  1.
         22    1    3    3    0    0  0.99974787322E+01  0.37740592616E+02 -0.63226052795E+03  0.63346481916E+03  0.00000000000E+00 0.  1.
</event>
<event>
 7    1  0.5950675E-006  0.5810362E+02  0.7818608E-02  0.1520099E+00
          2   -1    0    0  502    0  0.00000000000E+00  0.00000000000E+00  0.12298747060E+03  0.12298747060E+03  0.00000000000E+00 0. -1.
          1   -1    0    0  501    0 -0.00000000000E+00 -0.00000000000E+00 -0.77976532857E+03  0.77976532857E+03  0.00000000000E+00 0. -1.
         25    2    1    2    0    0  0.69552743600E+02  0.39472329668E+02 -0.25684781145E+03  0.29663301824E+03  0.12499880125E+03 0.  0.
          2    1    1    2  501    0 -0.44622907809E+02 -0.34520585345E+02 -0.49984697862E+03  0.50302075181E+03  0.00000000000E+00 0. -1.
          1    1    1    2  502    0 -0.24929835791E+02 -0.49517443226E+01  0.99916932097E+02  0.10309902911E+03  0.00000000000E+00 0. -1.
         22    1    3    3    0    0  0.37376949693E+02 -0.24365028381E+02 -0.19391126262E+02  0.48648810407E+02  0.00000000000E+00 0.  1.
         22    1    3    3    0    0  0.32175793907E+02  0.63837358049E+02 -0.23745668519E+03  0.24798420784E+03  0.00000000000E+00 0.  1.
</event>
<event>
 7    1  0.5950675E-006  0.5737420E+02  0.7818608E-02  0.1442577E+00
          2   -1    0    0  502    0  0.00000000000E+00  0.00000000000E+00  0.11884614297E+04  0.11884614297E+04  0.00000000000E+00 0. -1.
          1   -1    0    0  501    0 -0.00000000000E+00 -0.00000000000E+00 -0.19209819853E+02  0.19209819853E+02  0.00000000000E+00 0. -1.
         25    2    1    2    0    0  0.39572900042E+02  0.76432689547E+02  0.58256716706E+03  0.60201116599E+03  0.12499987759E+03 0.  0.
          2    1    1    2  501    0  0.42382693199E+01 -0.44275401581E+02  0.52888502509E+02  0.69104759674E+02  0.00000000000E+00 0. -1.
          1    1    1    2  502    0 -0.43811169362E+02 -0.32157287966E+02  0.53379594026E+03  0.53655532386E+03  0.00000000000E+00 0. -1.
         22    1    3    3    0    0  0.74128207278E+02  0.69066346069E+02  0.52324960708E+03  0.53296838798E+03  0.00000000000E+00 0.  1.
         22    1    3    3    0    0 -0.34555307236E+02  0.73663434779E+01  0.59317559979E+02  0.69042778017E+02  0.00000000000E+00 0.  1.
</event>
<event>
 7    1  0.5950675E-006  0.5415147E+02  0.7818608E-02  0.1510371E+00
          2   -1    0    0  502    0  0.00000000000E+00  0.00000000000E+00  0.26505548833E+04  0.26505548833E+04  0.00000000000E+00 0. -1.
          1   -1    0    0  501    0 -0.00000000000E+00 -0.00000000000E+00 -0.14131904491E+03  0.14131904491E+03  0.00000000000E+00 0. -1.
         25    2    1    2    0    0 -0.33824129080E+02  0.15329963981E+02  0.20775778426E+03  0.24529009838E+03  0.12499942376E+03 0.  0.
          2    1    1    2  501    0  0.21547219811E+01  0.29037203538E+02 -0.12051241635E+03  0.12398001658E+03  0.00000000000E+00 0. -1.
          1    1    1    2  502    0  0.31669407099E+02 -0.44367167519E+02  0.24219904705E+04  0.24226038132E+04  0.00000000000E+00 0. -1.
         22    1    3    3    0    0 -0.46301504013E+02 -0.87718257564E+00  0.11165720641E+02  0.47636876898E+02  0.00000000000E+00 0. -1.
         22    1    3    3    0    0  0.12477374933E+02  0.16207146557E+02  0.19659206362E+03  0.19765322149E+03  0.00000000000E+00 0. -1.
</event>
<event>
 7    1  0.5950675E-006  0.5867063E+02  0.7818608E-02  0.1482023E+00
          2   -1    0    0  502    0  0.00000000000E+00  0.00000000000E+00  0.17494316956E+04  0.17494316956E+04  0.00000000000E+00 0. -1.
          1   -1    0    0  501    0 -0.00000000000E+00 -0.00000000000E+00 -0.12575035970E+04  0.12575035970E+04  0.00000000000E+00 0. -1.
         25    2    1    2    0    0 -0.76867610343E+02 -0.16431896343E+02 -0.98524951217E+03  0.99625463015E+03  0.12501219991E+03 0.  0.
          2    1    1    2  501    0  0.44941406089E+02  0.23445433308E+02 -0.26418869485E+03  0.26900759248E+03  0.00000000000E+00 0. -1.
          1    1    1    2  502    0  0.31926204254E+02 -0.70135369653E+01  0.17413663056E+04  0.17416730700E+04  0.00000000000E+00 0. -1.
         22    1    3    3    0    0 -0.10536839402E+03 -0.53213811058E+01 -0.88956174635E+03  0.89579624699E+03  0.00000000000E+00 0. -1.
         22    1    3    3    0    0  0.28500783678E+02 -0.11110515237E+02 -0.95687765819E+02  0.10045838316E+03  0.00000000000E+00 0. -1.
</event>
<event>
 7    1  0.5950675E-006  0.7887481E+02  0.7818608E-02  0.1498116E+00
          2   -1    0    0  502    0  0.00000000000E+00  0.00000000000E+00  0.24270812269E+04  0.24270812269E+04  0.00000000000E+00 0. -1.
          1   -1    0    0  501    0 -0.00000000000E+00 -0.00000000000E+00 -0.53059745035E+03  0.53059745035E+03  0.00000000000E+00 0. -1.
         25    2    1    2    0    0  0.58901208156E+02  0.53676551909E+01  0.98584220150E+02  0.16983010796E+03  0.12500101224E+03 0.  0.
          2    1    1    2  501    0  0.18600440851E+02  0.11245975006E+02 -0.49405047702E+03  0.49452838361E+03  0.00000000000E+00 0. -1.
          1    1    1    2  502    0 -0.77501649007E+02 -0.16613630197E+02  0.22919500335E+04  0.22933201857E+04  0.00000000000E+00 0. -1.
         22    1    3    3    0    0 -0.80769115477E+00  0.39271224295E+02  0.92982831532E+02  0.10093903300E+03  0.00000000000E+00 0. -1.
         22    1    3    3    0    0  0.59708899310E+02 -0.33903569104E+02  0.56013886175E+01  0.68891074961E+02  0.00000000000E+00 0. -1.
</event>
<event>
 7    1  0.5950675E-006  0.1900090E+03  0.7818608E-02  0.1282538E+00
          2   -1    0    0  502    0  0.00000000000E+00  0.00000000000E+00  0.31341440825E+04  0.31341440825E+04  0.00000000000E+00 0. -1.
          1   -1    0    0  501    0 -0.00000000000E+00 -0.00000000000E+00 -0.87041740656E+03  0.87041740656E+03  0.00000000000E+00 0. -1.
         25    2    1    2    0    0  0.19234874455E+03  0.12173709683E+03  0.96564033252E+03  0.99995219923E+03  0.12500075475E+03 0.  0.
          2    1    1    2  501    0 -0.28456905479E+02 -0.42948535053E+02 -0.84863611671E+03  0.85019858311E+03  0.00000000000E+00 0. -1.
          1    1    1    2  502    0 -0.16389183907E+03 -0.78788561775E+02  0.21467224602E+04  0.21544107067E+04  0.00000000000E+00 0. -1.
         22    1    3    3    0    0  0.19761972231E+03  0.73543017277E+02  0.76386297164E+03  0.79243218604E+03  0.00000000000E+00 0. -1.
         22    1    3    3    0    0 -0.52709777615E+01  0.48194079551E+02  0.20177736088E+03  0.20752001319E+03  0.00000000000E+00 0. -1.
</event>
<event>
 7    1  0.5950675E-006  0.7106000E+02  0.7818608E-02  0.1362227E+00
          2   -1    0    0  502    0  0.00000000000E+00  0.00000000000E+00  0.12747199444E+04  0.12747199444E+04  0.00000000000E+00 0. -1.
          1   -1    0    0  501    0 -0.00000000000E+00 -0.00000000000E+00 -0.42080821365E+02  0.42080821365E+02  0.00000000000E+00 0. -1.
         25    2    1    2    0    0  0.73145059251E+02 -0.53273524411E+02  0.12398737620E+03  0.19795544225E+03  0.12500087824E+03 0.  0.
          2    1    1    2  501    0 -0.65365291852E+02 -0.17749893119E+02  0.32737261141E+03  0.33430600770E+03  0.00000000000E+00 0. -1.
          1    1    1    2  502    0 -0.77797673995E+01  0.71023417531E+02  0.78127913545E+03  0.78453931585E+03  0.00000000000E+00 0. -1.
         22    1    3    3    0    0  0.79749444641E+02 -0.12072724580E+01  0.21174466389E+02  0.82521448449E+02  0.00000000000E+00 0.  1.
         22    1    3    3    0    0 -0.66043853898E+01 -0.52066251953E+02  0.10281290982E+03  0.11543399380E+03  0.00000000000E+00 0.  1.
</event>
<event>
 7    1  0.5950675E-006  0.7859419E+02  0.7818608E-02  0.1410731E+00
          2   -1    0    0  502    0  0.00000000000E+00  0.00000000000E+00  0.23042839982E+04  0.23042839982E+04  0.00000000000E+00 0. -1.
          1   -1    0    0  501    0 -0.00000000000E+00 -0.00000000000E+00 -0.13936737011E+04  0.13936737011E+04  0.00000000000E+00 0. -1.
         25    2    1    2    0    0 -0.17649262685E+02 -0.98880712464E+02 -0.34043974654E+02  0.16395234535E+03  0.12502994667E+03 0.  0.
          2    1    1    2  501    0  0.42510688359E+02  0.65796686006E+02 -0.12932991415E+04  0.12956693374E+04  0.00000000000E+00 0. -1.
          1    1    1    2  502    0 -0.24861425673E+02  0.33084026457E+02  0.22379534132E+04  0.22383360165E+04  0.00000000000E+00 0. -1.
         22    1    3    3    0    0  0.52642602060E+01 -0.59235917993E+02 -0.79599221055E+02  0.99361171533E+02  0.00000000000E+00 0.  1.
         22    1    3    3    0    0 -0.22913522891E+02 -0.39644794471E+02  0.45555246401E+02  0.64591173813E+02  0.00000000000E+00 0.  1.
</event>
<event>
 7    1  0.5950675E-006  0.3120965E+02  0.7818608E-02  0.1599417E+00
          2   -1    0    0  502    0  0.00000000000E+00  0.00000000000E+00  0.37566424330E+03  0.37566424330E+03  0.00000000000E+00 0. -1.
          1   -1    0    0  501    0 -0.00000000000E+00 -0.00000000000E+00 -0.41146217811E+03  0.41146217811E+03  0.00000000000E+00 0. -1.
         25    2    1    2    0    0  0.21643705174E+01 -0.83523978420E+01  0.26281587217E+03  0.29115879168E+03  0.12500724882E+03 0.  0.
          2    1    1    2  501    0 -0.33652958923E+01 -0.28408732614E+02 -0.39332569284E+03  0.39436465607E+03  0.00000000000E+00 0. -1.
          1    1    1    2  502    0  0.12009253749E+01  0.36761130456E+02  0.94711885861E+02  0.10160297366E+03  0.00000000000E+00 0. -1.
         22    1    3    3    0    0 -0.41826597602E+02  0.40707295863E+02  0.10485264208E+03  0.12000260311E+03  0.00000000000E+00 0. -1.
         22    1    3    3    0    0  0.43990968120E+02 -0.49059693705E+02  0.15796323009E+03  0.17115618856E+03  0.00000000000E+00 0. -1.
</event>
<event>
 7    1  0.5950675E-006  0.7097475E+02  0.7818608E-02  0.1383457E+00
          2   -1    0    0  502    0  0.00000000000E+00  0.00000000000E+00  0.13365353013E+04  0.13365353013E+04  0.00000000000E+00 0. -1.
          1   -1    0    0  501    0 -0.00000000000E+00 -0.00000000000E+00 -0.41189028505E+04  0.41189028505E+04  0.00000000000E+00 0. -1.
         25    2    1    2    0    0 -0.40383085324E+02  0.10955871284E+03 -0.24590863151E+04  0.24650284440E+04  0.12500327776E+03 0.  0.
          2    1    1    2  501    0 -0.67617144824E+01 -0.56523551863E+02 -0.16554119027E+04  0.16563904130E+04  0.00000000000E+00 0. -1.
          1    1    1    2  502    0  0.47144799806E+02 -0.53035160977E+02  0.13321306687E+04  0.13340192948E+04  0.00000000000E+00 0. -1.
         22    1    3    3    0    0 -0.59566447918E+02  0.10437417087E+03 -0.12465801202E+04  0.12523594234E+04  0.00000000000E+00 0. -1.
         22    1    3    3    0    0  0.19183362594E+02  0.51845419694E+01 -0.12125061950E+04  0.12126690207E+04  0.00000000000E+00 0. -1.
</event>
<event>
 7    1  0.5950675E-006  0.4345098E+02  0.7818608E-02  0.1488944E+00
          2   -1    0    0  502    0  0.00000000000E+00  0.00000000000E+00  0.44300468820E+03  0.44300468820E+03  0.00000000000E+00 0. -1.
          1   -1    0    0  501    0 -0.00000000000E+00 -0.00000000000E+00 -0.27146249844E+04  0.27146249844E+04  0.00000000000E+00 0. -1.
         25    2    1    2    0    0 -0.53572266027E+02  0.58199121854E+02 -0.52345882137E+01  0.14801844863E+03  0.12499973899E+03 0.  0.
          2    1    1    2  501    0  0.37903103918E+02 -0.18201057371E+02 -0.26365888239E+04  0.26369240699E+04  0.00000000000E+00 0. -1.
          1    1    1    2  502    0  0.15669162109E+02 -0.39998064482E+02  0.37020311593E+03  0.37268715413E+03  0.00000000000E+00 0. -1.
         22    1    3    3    0    0 -0.74247967284E+02 -0.95596447554E+01  0.10087397845E+02  0.75537428133E+02  0.00000000000E+00 0.  1.
         22    1    3    3    0    0  0.20675701257E+02  0.67758766609E+02 -0.15321986058E+02  0.72481020492E+02  0.00000000000E+00 0.  1.
</event>
<event>
 7    1  0.5950675E-006  0.1189166E+03  0.7818608E-02  0.1288977E+00
          2   -1    0    0  502    0  0.00000000000E+00  0.00000000000E+00  0.70808123254E+03  0.70808123254E+03  0.00000000000E+00 0. -1.
          1   -1    0    0  501    0 -0.00000000000E+00 -0.00000000000E+00 -0.46397301108E+03  0.46397301108E+03  0.00000000000E+00 0. -1.
         25    2    1    2    0    0 -0.88036028215E+02 -0.20757731933E+02 -0.36564627482E+02  0.15856584988E+03  0.12499972427E+03 0.  0.
          2    1    1    2  501    0 -0.21231498369E+02  0.74506346485E+02 -0.35648115369E+03  0.36480239188E+03  0.00000000000E+00 0. -1.
          1    1    1    2  502    0  0.10926752658E+03 -0.53748614552E+02  0.63715400263E+03  0.64868600185E+03  0.00000000000E+00 0. -1.
         22    1    3    3    0    0 -0.78169409548E+02  0.98954885239E+00  0.33120524383E+02  0.84902325830E+02  0.00000000000E+00 0. -1.
         22    1    3    3    0    0 -0.98666186668E+01 -0.21747280785E+02 -0.69685151864E+02  0.73663524052E+02  0.00000000000E+00 0. -1.
</event>
<event>
 7    1  0.5950675E-006  0.1194567E+03  0.7818608E-02  0.1248802E+00
          2   -1    0    0  502    0  0.00000000000E+00  0.00000000000E+00  0.39328655486E+03  0.39328655486E+03  0.00000000000E+00 0. -1.
          1   -1    0    0  501    0 -0.00000000000E+00 -0.00000000000E+00 -0.66153880735E+03  0.66153880735E+03  0.00000000000E+00 0. -1.
         25    2    1    2    0    0  0.81343031622E+02  0.87302471909E+01  0.20830213474E+03  0.25633787881E+03  0.12500569094E+03 0.  0.
          2    1    1    2  501    0  0.11944942234E+03  0.13200279078E+01 -0.56598224480E+03  0.57845121523E+03  0.00000000000E+00 0. -1.
          1    1    1    2  502    0 -0.20079245396E+03 -0.10050275099E+02  0.89427857573E+02  0.22003626816E+03  0.00000000000E+00 0. -1.
         22    1    3    3    0    0  0.65080151752E+02  0.46341433852E+02  0.53372805184E+02  0.96081272768E+02  0.00000000000E+00 0. -1.
         22    1    3    3    0    0  0.16262879870E+02 -0.37611186661E+02  0.15492932956E+03  0.16025660605E+03  0.00000000000E+00 0. -1.
</event>
<event>
 7    1  0.5950675E-006  0.6029759E+02  0.7818608E-02  0.1411509E+00
          2   -1    0    0  502    0  0.00000000000E+00  0.00000000000E+00  0.44221982902E+03  0.44221982902E+03  0.00000000000E+00 0. -1.
          1   -1    0    0  501    0 -0.00000000000E+00 -0.00000000000E+00 -0.46860447568E+03  0.46860447568E+03  0.00000000000E+00 0. -1.
         25    2    1    2    0    0  0.80336654250E+02  0.32680114014E+02 -0.34062830758E+02  0.15591391976E+03  0.12500762404E+03 0.  0.
          2    1    1    2  501    0 -0.30225832810E+02 -0.51746988767E+02 -0.36930392833E+03  0.37413465931E+03  0.00000000000E+00 0. -1.
          1    1    1    2  502    0 -0.50110821440E+02  0.19066874753E+02  0.37698211243E+03  0.38077572563E+03  0.00000000000E+00 0. -1.
         22    1    3    3    0    0  0.68378752628E+02  0.22369497677E+01 -0.76308075576E+02  0.10248697553E+03  0.00000000000E+00 0. -1.
         22    1    3    3    0    0  0.11957901622E+02  0.30443164246E+02  0.42245244818E+02  0.53426944234E+02  0.00000000000E+00 0. -1.
</event>
<event>
 7    1  0.5950675E-006  0.4508620E+02  0.7818608E-02  0.1475839E+00
          2   -1    0    0  502    0  0.00000000000E+00  0.00000000000E+00  0.66165751552E+03  0.66165751552E+03  0.00000000000E+00 0. -1.
          1   -1    0    0  501    0 -0.00000000000E+00 -0.00000000000E+00 -0.39424546182E+03  0.39424546182E+03  0.00000000000E+00 0. -1.
         25    2    1    2    0    0  0.86078260664E+02 -0.42306246459E+01  0.94539985060E+02  0.17885851830E+03  0.12500078259E+03 0.  0.
          2    1    1    2  501    0 -0.43725545270E+02 -0.92228979011E+01 -0.34972143545E+03  0.35256498347E+03  0.00000000000E+00 0. -1.
          1    1    1    2  502    0 -0.42352715394E+02  0.13453522547E+02  0.52259350410E+03  0.52447947557E+03  0.00000000000E+00 0. -1.
         22    1    3    3    0    0 -0.13574365449E+02  0.35655477428E+02  0.38656196676E+01  0.38347353017E+02  0.00000000000E+00 0.  1.
         22    1    3    3    0    0  0.99652626113E+02 -0.39886102074E+02  0.90674365392E+02  0.14051116528E+03  0.00000000000E+00 0.  1.
</event>
<event>
 7    1  0.5950675E-006  0.3723150E+02  0.7818608E-02  0.1603816E+00
          2   -1    0    0  502    0  0.00000000000E+00  0.00000000000E+00  0.23311686159E+04  0.23311686159E+04  0.00000000000E+00 0. -1.
          1   -1    0    0  501    0 -0.00000000000E+00 -0.00000000000E+00 -0.38572387336E+03  0.38572387336E+03  0.00000000000E+00 0. -1.
         25    2    1    2    0    0  0.30261246650E+02  0.48108038660E+02  0.29388074258E+03  0.32437776856E+03  0.12499967779E+03 0.  0.
          2    1    1    2  501    0 -0.28720345502E+01 -0.23178040854E+02 -0.36993748247E+03  0.37067399571E+03  0.00000000000E+00 0. -1.
          1    1    1    2  502    0 -0.27389212100E+02 -0.24929997806E+02  0.20215014824E+04  0.20218407250E+04  0.00000000000E+00 0. -1.
         22    1    3    3    0    0  0.66413779714E+02 -0.56178056955E+01  0.19592919260E+03  0.20695554689E+03  0.00000000000E+00 0. -1.
         22    1    3    3    0    0 -0.36152533064E+02  0.53725844355E+02  0.97951549976E+02  0.11742222167E+03  0.00000000000E+00 0. -1.
</event>
<event>
 7    1  0.5950675E-006  0.2940593E+02  0.7818608E-02  0.1611736E+00
          2   -1    0    0  502    0  0.00000000000E+00  0.00000000000E+00  0.89232319995E+03  0.89232319995E+03  0.00000000000E+00 0. -1.
          1   -1    0    0  501    0 -0.00000000000E+00 -0.00000000000E+00 -0.12671514964E+04  0.12671514964E+04  0.00000000000E+00 0. -1.
         25    2    1    2    0    0 -0.43410281985E+01 -0.15922666898E+02 -0.88193622369E+03  0.89090352140E+03  0.12500082379E+03 0.  0.
          2    1    1    2  501    0  0.31076966986E+02  0.36793726164E+01 -0.37984450014E+03  0.38113142083E+03  0.00000000000E+00 0. -1.
          1    1    1    2  502    0 -0.26735938788E+02  0.12243294281E+02  0.88695242740E+03  0.88743975409E+03  0.00000000000E+00 0. -1.
         22    1    3    3    0    0  0.29617621268E+02  0.42825065139E+02 -0.25200056655E+03  0.25732367795E+03  0.00000000000E+00 0. -1.
         22    1    3    3    0    0 -0.33958649467E+02 -0.58747732036E+02 -0.62993565714E+03  0.63357984345E+03  0.00000000000E+00 0. -1.
</event>
<event>
 7    1  0.5950675E-006  0.7859207E+02  0.7818608E-02  0.1372992E+00
          2   -1    0    0  502    0  0.00000000000E+00  0.00000000000E+00  0.82134136641E+03  0.82134136641E+03  0.00000000000E+00 0. -1.
          1   -1    0    0  501    0 -0.00000000000E+00 -0.00000000000E+00 -0.42699839530E+03  0.42699839530E+03  0.00000000000E+00 0. -1.
         25    2    1    2    0    0 -0.36317231584E+02  0.53322537748E+02  0.39518122229E+03  0.41947020594E+03  0.12499928350E+03 0.  0.
          2    1    1    2  501    0 -0.48557411190E+02 -0.27899596029E+02 -0.40817983929E+03  0.41200362965E+03  0.00000000000E+00 0. -1.
          1    1    1    2  502    0  0.84874642774E+02 -0.25422941720E+02  0.40734158811E+03  0.41686592612E+03  0.00000000000E+00 0. -1.
         22    1    3    3    0    0 -0.49260217287E+02  0.66659887092E+02  0.39193530760E+03  0.40060378793E+03  0.00000000000E+00 0.  1.
         22    1    3    3    0    0  0.12942985702E+02 -0.13337349344E+02  0.32459146883E+01  0.18866418011E+02  0.00000000000E+00 0.  1.
</event>
<event>
 7    1  0.5950675E-006  0.1899468E+03  0.7818608E-02  0.1278373E+00
          2   -1    0    0  502    0  0.00000000000E+00  0.00000000000E+00  0.10484175281E+04  0.10484175281E+04  0.00000000000E+00 0. -1.
          1   -1    0    0  501    0 -0.00000000000E+00 -0.00000000000E+00 -0.21605355628E+03  0.21605355628E+03  0.00000000000E+00 0. -1.
         25    2    1    2    0    0 -0.14214124390E+03  0.16705302958E+03  0.83643432343E+03  0.87370706419E+03  0.12502323267E+03 0.  0.
          2    1    1    2  501    0  0.88523988012E+02 -0.16655532681E+03 -0.14633634441E+03  0.23872892376E+03  0.00000000000E+00 0. -1.
          1    1    1    2  502    0  0.53617255883E+02 -0.49770277309E+00  0.14226599279E+03  0.15203509641E+03  0.00000000000E+00 0. -1.
         22    1    3    3    0    0 -0.11976302616E+03  0.62984653971E+02  0.33895497589E+03  0.36496674472E+03  0.00000000000E+00 0.  1.
         22    1    3    3    0    0 -0.22378217732E+02  0.10406837561E+03  0.49747934753E+03  0.50874031947E+03  0.00000000000E+00 0.  1.
</event>
<event>
 7    1  0.5950675E-006  0.7892942E+02  0.7818608E-02  0.1373641E+00
          2   -1    0    0  502    0  0.00000000000E+00  0.00000000000E+00  0.13570898683E+03  0.13570898683E+03  0.00000000000E+00 0. -1.
          1   -1    0    0  501    0 -0.00000000000E+00 -0.00000000000E+00 -0.22705680296E+04  0.22705680296E+04  0.00000000000E+00 0. -1.
         25    2    1    2    0    0  0.60018207786E+02  0.62488633277E+02 -0.35178796199E+03  0.38325886038E+03  0.12500227718E+03 0.  0.
          2    1    1    2  501    0 -0.52951456075E+02  0.16508192883E+02 -0.18894850845E+04  0.18902989874E+04  0.00000000000E+00 0. -1.
          1    1    1    2  502    0 -0.70667517115E+01 -0.78996826160E+02  0.10641400377E+03  0.13271916863E+03  0.00000000000E+00 0. -1.
         22    1    3    3    0    0  0.89158044105E+01  0.49158883304E+02 -0.31490189527E+03  0.31884054169E+03  0.00000000000E+00 0.  1.
         22    1    3    3    0    0  0.51102403376E+02  0.13329749973E+02 -0.36886066719E+02  0.64418318692E+02  0.00000000000E+00 0.  1.
</event>
<event>
 7    1  0.5950675E-006  0.1503567E+03  0.7818608E-02  0.1350330E+00
          2   -1    0    0  502    0  0.00000000000E+00  0.00000000000E+00  0.23828026677E+04  0.23828026677E+04  0.00000000000E+00 0. -1.
          1   -1    0    0  501    0 -0.00000000000E+00 -0.00000000000E+00 -0.42424889261E+03  0.42424889261E+03  0.00000000000E+00 0. -1.
         25    2    1    2    0    0  0.98436924555E+01  0.12614952837E+03  0.37158545361E+03  0.41196150397E+03  0.12500371848E+03 0.  0.
          2    1    1    2  501    0  0.15887910715E+02 -0.15045591455E+03 -0.38973476027E+03  0.41807007940E+03  0.00000000000E+00 0. -1.
          1    1    1    2  502    0 -0.25731603170E+02  0.24306386182E+02  0.19767030817E+04  0.19770199769E+04  0.00000000000E+00 0. -1.
         22    1    3    3    0    0  0.60712864262E+02  0.28993806339E+02  0.12144052293E+03  0.13883260893E+03  0.00000000000E+00 0. -1.
         22    1    3    3    0    0 -0.50869171806E+02  0.97155722026E+02  0.25014493068E+03  0.27312889505E+03  0.00000000000E+00 0. -1.
</event>
<event>
 7    1  0.5950675E-006  0.1654589E+03  0.7818608E-02  0.1269425E+00
          2   -1    0    0  502    0  0.00000000000E+00  0.00000000000E+00  0.15425293145E+04  0.15425293145E+04  0.00000000000E+00 0. -1.
          1   -1    0    0  501    0 -0.00000000000E+00 -0.00000000000E+00 -0.20369417962E+04  0.20369417962E+04  0.00000000000E+00 0. -1.
         25    2    1    2    0    0  0.49308274493E+02  0.18944662359E+03 -0.15842243098E+03  0.28114479148E+03  0.12499359191E+03 0.  0.
          2    1    1    2  501    0 -0.62284824978E+02 -0.24912624889E+02 -0.18119378893E+04  0.18131792391E+04  0.00000000000E+00 0. -1.
          1    1    1    2  502    0  0.12976550485E+02 -0.16453399870E+03  0.14759478385E+04  0.14851470802E+04  0.00000000000E+00 0. -1.
         22    1    3    3    0    0  0.77682771944E+02  0.98576460529E+02 -0.13244832439E+03  0.18246777869E+03  0.00000000000E+00 0.  1.
         22    1    3    3    0    0 -0.28374497451E+02  0.90870163058E+02 -0.25974106585E+02  0.98677012787E+02  0.00000000000E+00 0.  1.
</event>
<event>
 7    1  0.5950675E-006  0.7824201E+02  0.7818608E-02  0.1334856E+00
          2   -1    0    0  502    0  0.00000000000E+00  0.00000000000E+00  0.79166360294E+03  0.79166360294E+03  0.00000000000E+00 0. -1.
          1   -1    0    0  501    0 -0.00000000000E+00 -0.00000000000E+00 -0.15493672094E+03  0.15493672094E+03  0.00000000000E+00 0. -1.
         25    2    1    2    0    0  0.21008170503E+02  0.11094255628E+02  0.22772125655E+03  0.26085656704E+03  0.12499900859E+03 0.  0.
          2    1    1    2  501    0 -0.56071037494E+02  0.58851489478E+02 -0.12331935407E+03  0.14769943178E+03  0.00000000000E+00 0. -1.
          1    1    1    2  502    0  0.35062866991E+02 -0.69945745106E+02  0.53232497952E+03  0.53804432505E+03  0.00000000000E+00 0. -1.
         22    1    3    3    0    0 -0.17126149753E+02  0.33074984230E+02  0.97711050000E+01  0.38506286241E+02  0.00000000000E+00 0.  1.
         22    1    3    3    0    0  0.38134320256E+02 -0.21980728602E+02  0.21795015155E+03  0.22235028080E+03  0.00000000000E+00 0.  1.
</event>
<event>
 7    1  0.5950675E-006  0.6402255E+02  0.7818608E-02  0.1436670E+00
          2   -1    0    0  502    0  0.00000000000E+00  0.00000000000E+00  0.33081981250E+03  0.33081981250E+03  0.00000000000E+00 0. -1.
          1   -1    0    0  501    0 -0.00000000000E+00 -0.00000000000E+00 -0.13375496058E+04  0.13375496058E+04  0.00000000000E+00 0. -1.
         25    2    1    2    0    0  0.21288453779E+02 -0.20034908604E+02 -0.51437187110E+03  0.53015031640E+03  0.12500536137E+03 0.  0.
          2    1    1    2  501    0 -0.48952960877E+02  0.51182033538E+02 -0.81239788633E+03  0.81547919571E+03  0.00000000000E+00 0. -1.
          1    1    1    2  502    0  0.27664507098E+02 -0.31147124934E+02  0.32003996417E+03  0.32273990613E+03  0.00000000000E+00 0. -1.
         22    1    3    3    0    0 -0.15551098839E+02 -0.66355782256E+02 -0.30860171335E+03  0.31603788380E+03  0.00000000000E+00 0.  1.
         22    1    3    3    0    0  0.36839552618E+02  0.46320873652E+02 -0.20577015775E+03  0.21411243260E+03  0.00000000000E+00 0.  1.
</event>
<event>
 7    1  0.5950675E-006  0.5483889E+02  0.7818608E-02  0.1446689E+00
          2   -1    0    0  502    0  0.00000000000E+00  0.00000000000E+00  0.24438400438E+03  0.24438400438E+03  0.00000000000E+00 0. -1.
          1   -1    0    0  501    0 -0.00000000000E+00 -0.00000000000E+00 -0.21866507125E+03  0.21866507125E+03  0.00000000000E+00 0. -1.
         25    2    1    2    0    0  0.18746214056E+02 -0.26181864945E+02  0.97497132910E+02  0.16176279511E+03  0.12499840144E+03 0.  0.
          2    1    1    2  501    0 -0.56017261707E+02  0.72459704890E+00 -0.17760777587E+03  0.18623367230E+03  0.00000000000E+00 0. -1.
          1    1    1    2  502    0  0.37271047650E+02  0.25457267896E+02  0.10582957609E+03  0.11505260821E+03  0.00000000000E+00 0. -1.
         22    1    3    3    0    0 -0.31480725310E+02 -0.51112520607E+02  0.14765283448E+02  0.61818600956E+02  0.00000000000E+00 0.  1.
         22    1    3    3    0    0  0.50226939366E+02  0.24930655662E+02  0.82731849462E+02  0.99944194154E+02  0.00000000000E+00 0.  1.
</event>
<event>
 7    1  0.5950675E-006  0.6982436E+02  0.7818608E-02  0.1385422E+00
          2   -1    0    0  502    0  0.00000000000E+00  0.00000000000E+00  0.20968338061E+04  0.20968338061E+04  0.00000000000E+00 0. -1.
          1   -1    0    0  501    0 -0.00000000000E+00 -0.00000000000E+00 -0.20953541770E+04  0.20953541770E+04  0.00000000000E+00 0. -1.
         25    2    1    2    0    0 -0.90902512877E+01  0.98250528697E+01 -0.14511915420E+02  0.12655356787E+03  0.12500418200E+03 0.  0.
          2    1    1    2  501    0 -0.41501025162E+02  0.39000215864E+02 -0.20238151820E+04  0.20246163199E+04  0.00000000000E+00 0. -1.
          1    1    1    2  502    0  0.50591276449E+02 -0.48825268733E+02  0.20398067265E+04  0.20410180954E+04  0.00000000000E+00 0. -1.
         22    1    3    3    0    0  0.39400131848E+02  0.42297029598E+02 -0.31423298229E+02  0.65793865778E+02  0.00000000000E+00 0.  1.
         22    1    3    3    0    0 -0.48490383136E+02 -0.32471976728E+02  0.16911382809E+02  0.60759702088E+02  0.00000000000E+00 0.  1.
</event>
<event>
 7    1  0.5950675E-006  0.7550503E+02  0.7818608E-02  0.1378677E+00
          2   -1    0    0  502    0  0.00000000000E+00  0.00000000000E+00  0.29294270354E+03  0.29294270354E+03  0.00000000000E+00 0. -1.
          1   -1    0    0  501    0 -0.00000000000E+00 -0.00000000000E+00 -0.35022059683E+04  0.35022059683E+04  0.00000000000E+00 0. -1.
         25    2    1    2    0    0 -0.69057773648E+02 -0.10782738118E+03 -0.18709956922E+03  0.25889730016E+03  0.12500337192E+03 0.  0.
          2    1    1    2  501    0  0.38556418924E+02  0.40107950092E+02 -0.32736011428E+04  0.32740738671E+04  0.00000000000E+00 0. -1.
          1    1    1    2  502    0  0.30501354724E+02  0.67719431088E+02  0.25143744729E+03  0.26217750454E+03  0.00000000000E+00 0. -1.
         22    1    3    3    0    0  0.18744004342E+02 -0.54199705124E+02 -0.16500297880E+02  0.59675837358E+02  0.00000000000E+00 0. -1.
         22    1    3    3    0    0 -0.87801777990E+02 -0.53627676055E+02 -0.17059927134E+03  0.19922146280E+03  0.00000000000E+00 0. -1.
</event>
<event>
 7    1  0.5950675E-006  0.7947825E+02  0.7818608E-02  0.1351450E+00
          2   -1    0    0  502    0  0.00000000000E+00  0.00000000000E+00  0.70162488695E+03  0.70162488695E+03  0.00000000000E+00 0. -1.
          1   -1    0    0  501    0 -0.00000000000E+00 -0.00000000000E+00 -0.10156534487E+03  0.10156534487E+03  0.00000000000E+00 0. -1.
         25    2    1    2    0    0 -0.82292569370E+01 -0.23944134892E+02  0.34016645668E+02  0.13201226514E+03  0.12501625374E+03 0.  0.
          2    1    1    2  501    0 -0.51902925954E+02  0.75914445345E+02 -0.73950898273E+01  0.92258355113E+02  0.00000000000E+00 0. -1.
          1    1    1    2  502    0  0.60132182891E+02 -0.51970310453E+02  0.57343798625E+03  0.57891961157E+03  0.00000000000E+00 0. -1.
         22    1    3    3    0    0  0.19786500256E+02  0.24150851328E+02  0.62220679672E+02  0.69614525719E+02  0.00000000000E+00 0.  1.
         22    1    3    3    0    0 -0.28015757193E+02 -0.48094986220E+02 -0.28204034004E+02  0.62397739420E+02  0.00000000000E+00 0.  1.
</event>
<event>
 7    1  0.5950675E-006  0.4837558E+02  0.7818608E-02  0.1492281E+00
          2   -1    0    0  502    0  0.00000000000E+00  0.00000000000E+00  0.13695120871E+04  0.13695120871E+04  0.00000000000E+00 0. -1.
          1   -1    0    0  501    0 -0.00000000000E+00 -0.00000000000E+00 -0.34294555616E+03  0.34294555616E+03  0.00000000000E+00 0. -1.
         25    2    1    2    0    0  0.17068285178E+02  0.13296111837E+02  0.30976921239E+03  0.33473822011E+03  0.12499839241E+03 0.  0.
          2    1    1    2  501    0 -0.48099897798E+02  0.66688754527E+01 -0.32834978040E+03  0.33192115382E+03  0.00000000000E+00 0. -1.
          1    1    1    2  502    0  0.31031612619E+02 -0.19964987290E+02  0.10451470990E+04  0.10457982694E+04  0.00000000000E+00 0. -1.
         22    1    3    3    0    0 -0.41921335459E+02  0.26963243539E+02  0.22566340716E+03  0.23110254910E+03  0.00000000000E+00 0.  1.
         22    1    3    3    0    0  0.58989620637E+02 -0.13667131701E+02  0.84105805231E+02  0.10363567101E+03  0.00000000000E+00 0.  1.
</event>
<event>
 7    1  0.5950675E-006  0.1169378E+03  0.7818608E-02  0.1299287E+00
          2   -1    0    0  502    0  0.00000000000E+00  0.00000000000E+00  0.23526795215E+04  0.23526795215E+04  0.00000000000E+00 0. -1.
          1   -1    0    0  501    0 -0.00000000000E+00 -0.00000000000E+00 -0.21163887293E+02  0.21163887293E+02  0.00000000000E+00 0. -1.
         25    2    1    2    0    0  0.79173940610E+02  0.85487459279E+02  0.15056813149E+04  0.15153475129E+04  0.12500097741E+03 0.  0.
          2    1    1    2  501    0 -0.15959874308E+02 -0.11906368934E+03  0.24082228902E+03  0.26912126374E+03  0.00000000000E+00 0. -1.
          1    1    1    2  502    0 -0.63214066302E+02  0.33576230066E+02  0.58501203030E+03  0.58937463213E+03  0.00000000000E+00 0. -1.
         22    1    3    3    0    0  0.63727058218E+02  0.10789134303E+03  0.14183533692E+04  0.14238777897E+04  0.00000000000E+00 0.  1.
         22    1    3    3    0    0  0.15446882392E+02 -0.22403883751E+02  0.87327945629E+02  0.91469723245E+02  0.00000000000E+00 0.  1.
</event>
<event>
 7    1  0.5950675E-006  0.1134318E+03  0.7818608E-02  0.1264080E+00
          2   -1    0    0  502    0  0.00000000000E+00  0.00000000000E+00  0.54118856665E+02  0.54118856665E+02  0.00000000000E+00 0. -1.
          1   -1    0    0  501    0 -0.00000000000E+00 -0.00000000000E+00 -0.10119707722E+04  0.10119707722E+04  0.00000000000E+00 0. -1.
         25    2    1    2    0    0  0.33675868318E+02  0.23361714049E+02 -0.48174381442E+03  0.49938282556E+03  0.12500507966E+03 0.  0.
          2    1    1    2  501    0  0.42061210284E+01  0.10298237653E+03 -0.40285289076E+03  0.41582870622E+03  0.00000000000E+00 0. -1.
          1    1    1    2  502    0 -0.37881989347E+02 -0.12634409057E+03 -0.73255210394E+02  0.15087809712E+03  0.00000000000E+00 0. -1.
         22    1    3    3    0    0  0.35638713478E+01  0.72217490279E+02 -0.22625738658E+03  0.23752993930E+03  0.00000000000E+00 0. -1.
         22    1    3    3    0    0  0.30111996970E+02 -0.48855776230E+02 -0.25548642784E+03  0.26185288627E+03  0.00000000000E+00 0. -1.
</event>
<event>
 7    1  0.5950675E-006  0.4660005E+02  0.7818608E-02  0.1504028E+00
          2   -1    0    0  502    0  0.00000000000E+00  0.00000000000E+00  0.14703436356E+04  0.14703436356E+04  0.00000000000E+00 0. -1.
          1   -1    0    0  501    0 -0.00000000000E+00 -0.00000000000E+00 -0.68334068995E+03  0.68334068995E+03  0.00000000000E+00 0. -1.
         25    2    1    2    0    0 -0.52428541286E+02 -0.46737758600E+02  0.35112096035E+03  0.37926927259E+03  0.12500432919E+03 0.  0.
          2    1    1    2  501    0  0.17274429503E+02  0.43241123546E+02 -0.66817374429E+03  0.66979426188E+03  0.00000000000E+00 0. -1.
          1    1    1    2  502    0  0.35154111782E+02  0.34966350541E+01  0.11040557296E+04  0.11046207911E+04  0.00000000000E+00 0. -1.
         22    1    3    3    0    0 -0.11564886136E+01 -0.81339277669E+02  0.20886180565E+03  0.22414430490E+03  0.00000000000E+00 0. -1.
         22    1    3    3    0    0 -0.51272052672E+02  0.34601519069E+02  0.14225915470E+03  0.15512496770E+03  0.00000000000E+00 0. -1.
</event>
<event>
 7    1  0.5950675E-006  0.5185568E+02  0.7818608E-02  0.1453534E+00
          2   -1    0    0  502    0  0.00000000000E+00  0.00000000000E+00  0.11576877919E+04  0.11576877919E+04  0.00000000000E+00 0. -1.
          1   -1    0    0  501    0 -0.00000000000E+00 -0.00000000000E+00 -0.96806322236E+02  0.96806322236E+02  0.00000000000E+00 0. -1.
         25    2    1    2    0    0  0.71701690333E+01 -0.85543074451E+02  0.61997110509E+03  0.63824600197E+03  0.12499903587E+03 0.  0.
          2    1    1    2  501    0 -0.22229002359E+02  0.39568509319E+02 -0.80599555548E+02  0.92499101780E+02  0.00000000000E+00 0. -1.
          1    1    1    2  502    0  0.15058833325E+02  0.45974565132E+02  0.52150992017E+03  0.52374901044E+03  0.00000000000E+00 0. -1.
         22    1    3    3    0    0 -0.29361193610E+02 -0.89900971693E+02  0.26494101151E+03  0.28131477739E+03  0.00000000000E+00 0.  1.
         22    1    3    3    0    0  0.36531362643E+02  0.43578972423E+01  0.35503009358E+03  0.35693122457E+03  0.00000000000E+00 0.  1.
</event>
<event>
 7    1  0.5950675E-006  0.1289254E+03  0.7818608E-02  0.1350010E+00
          2   -1    0    0  502    0  0.00000000000E+00  0.00000000000E+00  0.18008745954E+03  0.18008745954E+03  0.00000000000E+00 0. -1.
          1   -1    0    0  501    0 -0.00000000000E+00 -0.00000000000E+00 -0.12752815902E+04  0.12752815902E+04  0.00000000000E+00 0. -1.
         25    2    1    2    0    0  0.11172588617E+03 -0.66951381070E+02 -0.17367496459E+03  0.25050561841E+03  0.12499964185E+03 0.  0.
          2    1    1    2  501    0 -0.12629551213E+03  0.28206815148E+02 -0.10561317702E+04  0.10640303082E+04  0.00000000000E+00 0. -1.
          1    1    1    2  502    0  0.14569625959E+02  0.38744565922E+02  0.13461260410E+03  0.14083312314E+03  0.00000000000E+00 0. -1.
         22    1    3    3    0    0 -0.27578107350E+02 -0.13702727596E+02 -0.22408353957E+02  0.38084787982E+02  0.00000000000E+00 0.  1.
         22    1    3    3    0    0  0.13930399352E+03 -0.53248653474E+02 -0.15126661063E+03  0.21242083043E+03  0.00000000000E+00 0.  1.
</event>
<event>
 7    1  0.5950675E-006  0.7641887E+02  0.7818608E-02  0.1340518E+00
          2   -1    0    0  502    0  0.00000000000E+00  0.00000000000E+00  0.27664154444E+03  0.27664154444E+03  0.00000000000E+00 0. -1.
          1   -1    0    0  501    0 -0.00000000000E+00 -0.00000000000E+00 -0.54371492222E+03  0.54371492222E+03  0.00000000000E+00 0. -1.
         25    2    1    2    0    0 -0.37126945565E+02  0.17390499204E+02 -0.95975934932E+02  0.16284140393E+03  0.12500041279E+03 0.  0.
          2    1    1    2  501    0 -0.17389528391E+02 -0.74414028352E+02 -0.40423318547E+03  0.41139313503E+03  0.00000000000E+00 0. -1.
          1    1    1    2  502    0  0.54516473957E+02  0.57023529148E+02  0.23313574262E+03  0.24612192771E+03  0.00000000000E+00 0. -1.
         22    1    3    3    0    0 -0.15921454373E+02  0.51852608724E+02 -0.10780695147E+03  0.12068357189E+03  0.00000000000E+00 0.  1.
         22    1    3    3    0    0 -0.21205491192E+02 -0.34462109520E+02  0.11831016534E+02  0.42157832030E+02  0.00000000000E+00 0.  1.
</event>
<event>
 7    1  0.5950675E-006  0.1516754E+03  0.7818608E-02  0.1371807E+00
          2   -1    0    0  502    0  0.00000000000E+00  0.00000000000E+00  0.27823792828E+04  0.27823792828E+04  0.00000000000E+00 0. -1.
          1   -1    0    0  501    0 -0.00000000000E+00 -0.00000000000E+00 -0.13407952462E+04  0.13407952462E+04  0.00000000000E+00 0. -1.
         25    2    1    2    0    0  0.79553587730E+02 -0.14266703005E+03  0.10760262868E+04  0.10955087926E+04  0.12499716018E+03 0.  0.
          2    1    1    2  501    0 -0.29128725139E+02  0.31912098449E+01 -0.13276508239E+04  0.13279741627E+04  0.00000000000E+00 0. -1.
          1    1    1    2  502    0 -0.50424862590E+02  0.13947582021E+03  0.16932085738E+04  0.16996915737E+04  0.00000000000E+00 0. -1.
         22    1    3    3    0    0  0.69451386262E+02 -0.54160093703E+02  0.81406475922E+03  0.81881514581E+03  0.00000000000E+00 0. -1.
         22    1    3    3    0    0  0.10102201467E+02 -0.88506936347E+02  0.26196152757E+03  0.27669364680E+03  0.00000000000E+00 0. -1.
</event>
<event>
 7    1  0.5950675E-006  0.6412639E+02  0.7818608E-02  0.1407493E+00
          2   -1    0    0  502    0  0.00000000000E+00  0.00000000000E+00  0.42889616236E+03  0.42889616236E+03  0.00000000000E+00 0. -1.
          1   -1    0    0  501    0 -0.00000000000E+00 -0.00000000000E+00 -0.10849366425E+03  0.10849366425E+03  0.00000000000E+00 0. -1.
         25    2    1    2    0    0 -0.51639753245E+02 -0.17100209629E+00  0.14940349528E+02  0.13607612391E+03  0.12500721618E+03 0.  0.
          2    1    1    2  501    0  0.52506501951E+02 -0.51842056666E+02 -0.16139859283E+02  0.75531626780E+02  0.00000000000E+00 0. -1.
          1    1    1    2  502    0 -0.86674870596E+00  0.52013058762E+02  0.32160200787E+03  0.32578207593E+03  0.00000000000E+00 0. -1.
         22    1    3    3    0    0 -0.38135938242E+02 -0.55166337494E+02  0.35437497048E+02  0.75851768438E+02  0.00000000000E+00 0. -1.
         22    1    3    3    0    0 -0.13503815003E+02  0.54995335398E+02 -0.20497147520E+02  0.60224355468E+02  0.00000000000E+00 0. -1.
</event>
<event>
 7    1  0.5950675E-006  0.8342842E+02  0.7818608E-02  0.1377450E+00
          2   -1    0    0  502    0  0.00000000000E+00  0.00000000000E+00  0.10394158062E+04  0.10394158062E+04  0.00000000000E+00 0. -1.
          1   -1    0    0  501    0 -0.00000000000E+00 -0.00000000000E+00 -0.24191057440E+04  0.24191057440E+04  0.00000000000E+00 0. -1.
         25    2    1    2    0    0 -0.94991786531E+02 -0.94605332512E+02  0.11854542098E+03  0.21829891827E+03  0.12501116923E+03 0.  0.
          2    1    1    2  501    0  0.58710608470E+02  0.58963991962E+02 -0.23677551220E+04  0.23692167494E+04  0.00000000000E+00 0. -1.
          1    1    1    2  502    0  0.36281178061E+02  0.35641340549E+02  0.86951976315E+03  0.87100588262E+03  0.00000000000E+00 0. -1.
         22    1    3    3    0    0 -0.93880082342E+02 -0.69853247437E+01  0.75471464750E+02  0.12065739353E+03  0.00000000000E+00 0. -1.
         22    1    3    3    0    0 -0.11117041899E+01 -0.87620007768E+02  0.43073956230E+02  0.97641524736E+02  0.00000000000E+00 0. -1.
</event>
<event>
 7    1  0.5950675E-006  0.2316098E+03  0.7818608E-02  0.1358206E+00
          2   -1    0    0  502    0  0.00000000000E+00  0.00000000000E+00  0.56947241474E+03  0.56947241474E+03  0.00000000000E+00 0. -1.
          1   -1    0    0  501    0 -0.00000000000E+00 -0.00000000000E+00 -0.15848220014E+04  0.15848220014E+04  0.00000000000E+00 0. -1.
         25    2    1    2    0    0  0.18904102415E+03  0.14350126403E+03 -0.39072020340E+03  0.47393477623E+03  0.12499109244E+03 0.  0.
          2    1    1    2  501    0 -0.19474718893E+03 -0.12277765806E+03 -0.11407716084E+04  0.11637700303E+04  0.00000000000E+00 0. -1.
          1    1    1    2  502    0  0.57061647877E+01 -0.20723605963E+02  0.51614222515E+03  0.51658960959E+03  0.00000000000E+00 0. -1.
         22    1    3    3    0    0  0.15463867660E+03  0.50641910730E+02 -0.19029002455E+03  0.25037575135E+03  0.00000000000E+00 0.  1.
         22    1    3    3    0    0  0.34402347551E+02  0.92859353296E+02 -0.20043017885E+03  0.22355902488E+03  0.00000000000E+00 0.  1.
</event>
<event>
 7    1  0.5950675E-006  0.4591071E+02  0.7818608E-02  0.1535970E+00
          2   -1    0    0  502    0  0.00000000000E+00  0.00000000000E+00  0.14980942408E+03  0.14980942408E+03  0.00000000000E+00 0. -1.
          1   -1    0    0  501    0 -0.00000000000E+00 -0.00000000000E+00 -0.69451881603E+03  0.69451881603E+03  0.00000000000E+00 0. -1.
         25    2    1    2    0    0  0.55935604428E+02 -0.14580348422E+02 -0.45194843196E+02  0.14494520795E+03  0.12500064421E+03 0.  0.
          2    1    1    2  501    0 -0.23243504172E+02 -0.17276965177E+02 -0.59386485496E+03  0.59457061816E+03  0.00000000000E+00 0. -1.
          1    1    1    2  502    0 -0.32692100256E+02  0.31857313599E+02  0.94350306210E+02  0.10481241401E+03  0.00000000000E+00 0. -1.
         22    1    3    3    0    0  0.13321234995E+01 -0.33946576729E+02  0.33175935664E+02  0.47484600997E+02  0.00000000000E+00 0.  1.
         22    1    3    3    0    0  0.54603480928E+02  0.19366228307E+02 -0.78370778860E+02  0.97460606952E+02  0.00000000000E+00 0.  1.
</event>
<event>
 7    1  0.5950675E-006  0.9608800E+02  0.7818608E-02  0.1418920E+00
          2   -1    0    0  502    0  0.00000000000E+00  0.00000000000E+00  0.57598736400E+03  0.57598736400E+03  0.00000000000E+00 0. -1.
          1   -1    0    0  501    0 -0.00000000000E+00 -0.00000000000E+00 -0.21817525350E+04  0.21817525350E+04  0.00000000000E+00 0. -1.
         25    2    1    2    0    0 -0.38079352199E+02 -0.11696817555E+03  0.13184279299E+01  0.17537993227E+03  0.12499916495E+03 0.  0.
          2    1    1    2  501    0  0.42988237976E+02  0.85581335639E+02 -0.20931082653E+04  0.20952981563E+04  0.00000000000E+00 0. -1.
          1    1    1    2  502    0 -0.49088857771E+01  0.31386839907E+02  0.48602466635E+03  0.48706181043E+03  0.00000000000E+00 0. -1.
         22    1    3    3    0    0 -0.15570307755E+02 -0.47356917398E+02  0.62544427545E+02  0.79980732217E+02  0.00000000000E+00 0. -1.
         22    1    3    3    0    0 -0.22509044444E+02 -0.69611258147E+02 -0.61225999615E+02  0.95399200057E+02  0.00000000000E+00 0. -1.
</event>
<event>
 7    1  0.5950675E-006  0.2179279E+03  0.7818608E-02  0.1158076E+00
          2   -1    0    0  502    0  0.00000000000E+00  0.00000000000E+00  0.48350176306E+04  0.48350176306E+04  0.00000000000E+00 0. -1.
          1   -1    0    0  501    0 -0.00000000000E+00 -0.00000000000E+00 -0.86847539264E+02  0.86847539264E+02  0.00000000000E+00 0. -1.
         25    2    1    2    0    0  0.17879931862E+02 -0.32494585061E+03  0.15544023313E+04  0.15930161452E+04  0.12499733380E+03 0.  0.
          2    1    1    2  501    0  0.79805190806E+02  0.14601115689E+03  0.43496746078E+02  0.17198864304E+03  0.00000000000E+00 0. -1.
          1    1    1    2  502    0 -0.97685122667E+02  0.17893469372E+03  0.31502710140E+04  0.31568603817E+04  0.00000000000E+00 0. -1.
         22    1    3    3    0    0  0.99457450201E+00 -0.87084998222E+02  0.20541144567E+03  0.22311129085E+03  0.00000000000E+00 0. -1.
         22    1    3    3    0    0  0.16885357360E+02 -0.23786085238E+03  0.13489908856E+04  0.13699048543E+04  0.00000000000E+00 0. -1.
</event>
<event>
 7    1  0.8398479E-006  0.1540078E+03  0.7818608E-02  0.1322738E+00
          2   -1    0    0  502    0  0.00000000000E+00  0.00000000000E+00  0.17087821854E+04  0.17087821854E+04  0.00000000000E+00 0. -1.
          1   -1    0    0  501    0 -0.00000000000E+00 -0.00000000000E+00 -0.15917376377E+04  0.15917376377E+04  0.00000000000E+00 0. -1.
         25    2    1    2    0    0 -0.70584014701E+02 -0.85977835890E+02 -0.81484709952E+02  0.18611717677E+03  0.12500221654E+03 0.  0.
          2    1    1    2  501    0 -0.26811479897E+02 -0.34818452416E+02 -0.14539701040E+04  0.14546340582E+04  0.00000000000E+00 0. -1.
          1    1    1    2  502    0  0.97395494598E+02  0.12079628831E+03  0.16524993617E+04  0.16597685881E+04  0.00000000000E+00 0. -1.
         22    1    3    3    0    0  0.24499243393E+02  0.10532293068E+02  0.23910576335E+01  0.26774227920E+02  0.00000000000E+00 0.  1.
         22    1    3    3    0    0 -0.95083258094E+02 -0.96510128958E+02 -0.83875767586E+02  0.15934294885E+03  0.00000000000E+00 0.  1.
</event>
<event>
 7    1  0.5950675E-006  0.3379689E+02  0.7818608E-02  0.1587242E+00
          2   -1    0    0  502    0  0.00000000000E+00  0.00000000000E+00  0.12019339057E+04  0.12019339057E+04  0.00000000000E+00 0. -1.
          1   -1    0    0  501    0 -0.00000000000E+00 -0.00000000000E+00 -0.42723476857E+02  0.42723476857E+02  0.00000000000E+00 0. -1.
         25    2    1    2    0    0  0.67774466587E+01 -0.60381479925E+01  0.88368912343E+02  0.15335060303E+03  0.12499979907E+03 0.  0.
          2    1    1    2  501    0  0.27166064347E+02  0.84271523246E+01  0.10347294802E+02  0.30266788038E+02  0.00000000000E+00 0. -1.
          1    1    1    2  502    0 -0.33943511006E+02 -0.23890043322E+01  0.10604942217E+04  0.10610399915E+04  0.00000000000E+00 0. -1.
         22    1    3    3    0    0  0.53226483698E+02 -0.41003109410E+02  0.46943058257E+02  0.81963188485E+02  0.00000000000E+00 0. -1.
         22    1    3    3    0    0 -0.46449037039E+02  0.34964961417E+02  0.41425854086E+02  0.71387414545E+02  0.00000000000E+00 0. -1.
</event>
<event>
 7    1  0.5950675E-006  0.3136884E+03  0.7818608E-02  0.1236273E+00
          2   -1    0    0  502    0  0.00000000000E+00  0.00000000000E+00  0.73332701530E+03  0.73332701530E+03  0.00000000000E+00 0. -1.
          1   -1    0    0  501    0 -0.00000000000E+00 -0.00000000000E+00 -0.72892246835E+03  0.72892246835E+03  0.00000000000E+00 0. -1.
         25    2    1    2    0    0 -0.25490861385E+03 -0.23512466477E+03  0.11217877598E+03  0.38531978645E+03  0.12500100259E+03 0.  0.
          2    1    1    2  501    0  0.19650964398E+02  0.45106505106E+02 -0.54395146098E+03  0.54617208745E+03  0.00000000000E+00 0. -1.
          1    1    1    2  502    0  0.23525764945E+03  0.19001815966E+03  0.43617723196E+03  0.53075760975E+03  0.00000000000E+00 0. -1.
         22    1    3    3    0    0  0.96141202107E+01 -0.15187281092E+02  0.24362238252E+02  0.30275459815E+02  0.00000000000E+00 0. -1.
         22    1    3    3    0    0 -0.26452273406E+03 -0.21993738368E+03  0.87816537726E+02  0.35504432663E+03  0.00000000000E+00 0. -1.
</event>
<event>
 7    1  0.5950675E-006  0.9074884E+02  0.7818608E-02  0.1312645E+00
          2   -1    0    0  502    0  0.00000000000E+00  0.00000000000E+00  0.82609343527E+03  0.82609343527E+03  0.00000000000E+00 0. -1.
          1   -1    0    0  501    0 -0.00000000000E+00 -0.00000000000E+00 -0.25201207463E+03  0.25201207463E+03  0.00000000000E+00 0. -1.
         25    2    1    2    0    0  0.58396725753E+02 -0.16019773108E+03  0.35653977570E+03  0.41451094947E+03  0.12500089982E+03 0.  0.
          2    1    1    2  501    0 -0.29298418066E+02  0.83917193158E+02 -0.21015318075E+03  0.22817723810E+03  0.00000000000E+00 0. -1.
          1    1    1    2  502    0 -0.29098307687E+02  0.76280537920E+02  0.42769476569E+03  0.43541732232E+03  0.00000000000E+00 0. -1.
         22    1    3    3    0    0 -0.12074380571E+00 -0.58024169829E+02  0.24689124524E+03  0.25361803137E+03  0.00000000000E+00 0. -1.
         22    1    3    3    0    0  0.58517469559E+02 -0.10217356125E+03  0.10964853046E+03  0.16089291810E+03  0.00000000000E+00 0. -1.
</event>
<event>
 7    1  0.5950675E-006  0.4241469E+02  0.7818608E-02  0.1533290E+00
          2   -1    0    0  502    0  0.00000000000E+00  0.00000000000E+00  0.21970031829E+03  0.21970031829E+03  0.00000000000E+00 0. -1.
          1   -1    0    0  501    0 -0.00000000000E+00 -0.00000000000E+00 -0.24205580041E+03  0.24205580041E+03  0.00000000000E+00 0. -1.
         25    2    1    2    0    0 -0.19349146299E+02  0.10184191423E+02  0.19072542837E+02  0.12832317612E+03  0.12499987368E+03 0.  0.
          2    1    1    2  501    0  0.41372959841E+02  0.12898904311E+02 -0.18312785125E+03  0.18818584815E+03  0.00000000000E+00 0. -1.
          1    1    1    2  502    0 -0.22023813542E+02 -0.23083095735E+02  0.14169982630E+03  0.14524709444E+03  0.00000000000E+00 0. -1.
         22    1    3    3    0    0  0.18188199828E+02  0.57015671139E+02 -0.11539133474E+02  0.60948740510E+02  0.00000000000E+00 0. -1.
         22    1    3    3    0    0 -0.37537346127E+02 -0.46831479716E+02  0.30611676311E+02  0.67374435606E+02  0.00000000000E+00 0. -1.
</event>
<event>
 7    1  0.5950675E-006  0.1420698E+03  0.7818608E-02  0.1288341E+00
          2   -1    0    0  502    0  0.00000000000E+00  0.00000000000E+00  0.36218187909E+03  0.36218187909E+03  0.00000000000E+00 0. -1.
          1   -1    0    0  501    0 -0.00000000000E+00 -0.00000000000E+00 -0.45475505900E+04  0.45475505900E+04  0.00000000000E+00 0. -1.
         25    2    1    2    0    0 -0.12926726652E+03 -0.12736360353E+03  0.97934223992E+02  0.24113449571E+03  0.12499287617E+03 0.  0.
          2    1    1    2  501    0  0.64036985299E+02  0.12659595956E+03 -0.44692699176E+04  0.44715210912E+04  0.00000000000E+00 0. -1.
          1    1    1    2  502    0  0.65230281225E+02  0.76764396909E+00  0.18596698267E+03  0.19707688223E+03  0.00000000000E+00 0. -1.
         22    1    3    3    0    0 -0.24085768973E+02 -0.69470361676E+02  0.96173159146E+02  0.12106003452E+03  0.00000000000E+00 0. -1.
         22    1    3    3    0    0 -0.10518149755E+03 -0.57893241852E+02  0.17610648456E+01  0.12007446118E+03  0.00000000000E+00 0. -1.
</event>
<event>
 7    1  0.5950675E-006  0.1988458E+03  0.7818608E-02  0.1200955E+00
          2   -1    0    0  502    0  0.00000000000E+00  0.00000000000E+00  0.27037826685E+03  0.27037826685E+03  0.00000000000E+00 0. -1.
          1   -1    0    0  501    0 -0.00000000000E+00 -0.00000000000E+00 -0.65812842190E+03  0.65812842190E+03  0.00000000000E+00 0. -1.
         25    2    1    2    0    0 -0.32371824732E+02 -0.14764981639E+03  0.32994508666E+01  0.19617491203E+03  0.12500122567E+03 0.  0.
          2    1    1    2  501    0 -0.86900894904E+02 -0.71544386042E+02 -0.45989138877E+03  0.47346642350E+03  0.00000000000E+00 0. -1.
          1    1    1    2  502    0  0.11927271964E+03  0.21919420243E+03  0.68841782857E+02  0.25886535322E+03  0.00000000000E+00 0. -1.
         22    1    3    3    0    0 -0.18352398948E+02 -0.14969678995E+03 -0.35440296251E+02  0.15492564044E+03  0.00000000000E+00 0.  1.
         22    1    3    3    0    0 -0.14019425784E+02  0.20469735589E+01  0.38739747117E+02  0.41249271591E+02  0.00000000000E+00 0.  1.
</event>
<event>
 7    1  0.5950675E-006  0.7328835E+02  0.7818608E-02  0.1363795E+00
          2   -1    0    0  502    0  0.00000000000E+00  0.00000000000E+00  0.43152584020E+03  0.43152584020E+03  0.00000000000E+00 0. -1.
          1   -1    0    0  501    0 -0.00000000000E+00 -0.00000000000E+00 -0.51185339689E+03  0.51185339689E+03  0.00000000000E+00 0. -1.
         25    2    1    2    0    0  0.12226331403E+03 -0.59643876279E+02 -0.24056406119E+03  0.30331725601E+03  0.12499832128E+03 0.  0.
          2    1    1    2  501    0 -0.61782893649E+02  0.19600303612E+02 -0.23214927835E+03  0.24102818359E+03  0.00000000000E+00 0. -1.
          1    1    1    2  502    0 -0.60480420379E+02  0.40043572668E+02  0.39238578285E+03  0.39903379749E+03  0.00000000000E+00 0. -1.
         22    1    3    3    0    0 -0.24992300747E+02 -0.19648519495E+02 -0.48968771782E+02  0.58383388260E+02  0.00000000000E+00 0.  1.
         22    1    3    3    0    0  0.14725561477E+03 -0.39995356785E+02 -0.19159528941E+03  0.24493386775E+03  0.00000000000E+00 0.  1.
</event>
<event>
 7    1  0.7407314E-006  0.3926289E+02  0.7818608E-02  0.1538983E+00
          2   -1    0    0  502    0  0.00000000000E+00  0.00000000000E+00  0.12105148319E+04  0.12105148319E+04  0.00000000000E+00 0. -1.
          1   -1    0    0  501    0 -0.00000000000E+00 -0.00000000000E+00 -0.14025168216E+04  0.14025168216E+04  0.00000000000E+00 0. -1.
         25    2    1    2    0    0  0.62370913010E+02  0.61934167632E+01 -0.65237796003E+03  0.66719614238E+03  0.12500080192E+03 0.  0.
          2    1    1    2  501    0 -0.25917518549E+02 -0.20757090264E+02 -0.74203818642E+03  0.74278075141E+03  0.00000000000E+00 0. -1.
          1    1    1    2  502    0 -0.36453394461E+02  0.14563673500E+02  0.12024141567E+04  0.12030547597E+04  0.00000000000E+00 0. -1.
         22    1    3    3    0    0 -0.31297699890E+02 -0.59420133411E+01 -0.66302996621E+02  0.73559098022E+02  0.00000000000E+00 0. -1.
         22    1    3    3    0    0  0.93668612900E+02  0.12135430104E+02 -0.58607496341E+03  0.59363704436E+03  0.00000000000E+00 0. -1.
</event>
<event>
 7    1  0.5950675E-006  0.9252674E+02  0.7818608E-02  0.1334872E+00
          2   -1    0    0  502    0  0.00000000000E+00  0.00000000000E+00  0.51788261922E+03  0.51788261922E+03  0.00000000000E+00 0. -1.
          1   -1    0    0  501    0 -0.00000000000E+00 -0.00000000000E+00 -0.11585598928E+04  0.11585598928E+04  0.00000000000E+00 0. -1.
         25    2    1    2    0    0  0.77594275151E+02 -0.25595043884E+02 -0.16924390556E+03  0.22570557697E+03  0.12499412025E+03 0.  0.
          2    1    1    2  501    0 -0.33462111381E+02 -0.56571173286E+02 -0.95550453744E+03  0.95776246095E+03  0.00000000000E+00 0. -1.
          1    1    1    2  502    0 -0.44132163769E+02  0.82166217170E+02  0.48407116939E+03  0.49297447414E+03  0.00000000000E+00 0. -1.
         22    1    3    3    0    0  0.49087742856E+02 -0.53737808468E+02 -0.17075455899E+03  0.18561917459E+03  0.00000000000E+00 0. -1.
         22    1    3    3    0    0  0.28506532294E+02  0.28142764584E+02  0.15106534328E+01  0.40086402379E+02  0.00000000000E+00 0. -1.
</event>
<event>
 7    1  0.5950675E-006  0.1105779E+03  0.7818608E-02  0.1401092E+00
          2   -1    0    0  502    0  0.00000000000E+00  0.00000000000E+00  0.72033483056E+03  0.72033483056E+03  0.00000000000E+00 0. -1.
          1   -1    0    0  501    0 -0.00000000000E+00 -0.00000000000E+00 -0.53877601956E+03  0.53877601956E+03  0.00000000000E+00 0. -1.
         25    2    1    2    0    0  0.69175709549E+02  0.60497731505E+02  0.35623298337E+03  0.38855279556E+03  0.12500432865E+03 0.  0.
          2    1    1    2  501    0  0.27182390154E+02  0.16360064010E+02 -0.51119327233E+03  0.51217682074E+03  0.00000000000E+00 0. -1.
          1    1    1    2  502    0 -0.96358099703E+02 -0.76857795515E+02  0.33651909997E+03  0.35838123382E+03  0.00000000000E+00 0. -1.
         22    1    3    3    0    0 -0.14817096747E+02 -0.15591598960E+02  0.16395296284E+03  0.16535784934E+03  0.00000000000E+00 0. -1.
         22    1    3    3    0    0  0.83992806296E+02  0.76089330465E+02  0.19228002053E+03  0.22319494622E+03  0.00000000000E+00 0. -1.
</event>
<event>
 7    1  0.5950675E-006  0.4535453E+02  0.7818608E-02  0.1515097E+00
          2   -1    0    0  502    0  0.00000000000E+00  0.00000000000E+00  0.21780797028E+02  0.21780797028E+02  0.00000000000E+00 0. -1.
          1   -1    0    0  501    0 -0.00000000000E+00 -0.00000000000E+00 -0.83867326139E+03  0.83867326139E+03  0.00000000000E+00 0. -1.
         25    2    1    2    0    0 -0.17578045855E+02 -0.37265300353E+02 -0.61886582125E+03  0.63270648691E+03  0.12499961422E+03 0.  0.
          2    1    1    2  501    0  0.46832119449E+02  0.20590575042E+02 -0.18449693560E+03  0.19145845095E+03  0.00000000000E+00 0. -1.
          1    1    1    2  502    0 -0.29254073594E+02  0.16674725312E+02 -0.13529707510E+02  0.36289120565E+02  0.00000000000E+00 0. -1.
         22    1    3    3    0    0 -0.23305534288E+02 -0.79308981364E+00 -0.15029976509E+02  0.27743055235E+02  0.00000000000E+00 0. -1.
         22    1    3    3    0    0  0.57274884325E+01 -0.36472210540E+02 -0.60383584474E+03  0.60496343167E+03  0.00000000000E+00 0. -1.
</event>
<event>
 7    1  0.5950675E-006  0.1353122E+03  0.7818608E-02  0.1261693E+00
          2   -1    0    0  502    0  0.00000000000E+00  0.00000000000E+00  0.52630910277E+03  0.52630910277E+03  0.00000000000E+00 0. -1.
          1   -1    0    0  501    0 -0.00000000000E+00 -0.00000000000E+00 -0.86724895403E+03  0.86724895403E+03  0.00000000000E+00 0. -1.
         25    2    1    2    0    0 -0.15497561934E+03  0.49830324873E+02 -0.48411332164E+02  0.21087882107E+03  0.12500286487E+03 0.  0.
          2    1    1    2  501    0  0.24589729028E+02 -0.84955797737E+02 -0.72461062101E+03  0.72998814677E+03  0.00000000000E+00 0. -1.
          1    1    1    2  502    0  0.13038589032E+03  0.35125472864E+02  0.43208210191E+03  0.45269108897E+03  0.00000000000E+00 0. -1.
         22    1    3    3    0    0 -0.13526940113E+03 -0.14325732937E+02 -0.18056318933E+02  0.13721905173E+03  0.00000000000E+00 0.  1.
         22    1    3    3    0    0 -0.19706218218E+02  0.64156057810E+02 -0.30355013231E+02  0.73659769334E+02  0.00000000000E+00 0.  1.
</event>
<event>
 7    1  0.5950675E-006  0.6904170E+02  0.7818608E-02  0.1378069E+00
          2   -1    0    0  502    0  0.00000000000E+00  0.00000000000E+00  0.13004278572E+04  0.13004278572E+04  0.00000000000E+00 0. -1.
          1   -1    0    0  501    0 -0.00000000000E+00 -0.00000000000E+00 -0.37018370104E+03  0.37018370104E+03  0.00000000000E+00 0. -1.
         25    2    1    2    0    0  0.11472343240E+03  0.57167697732E+01  0.40958504295E+03  0.44337240432E+03  0.12500013643E+03 0.  0.
          2    1    1    2  501    0 -0.53126403889E+02 -0.30272833812E+02 -0.34937310917E+03  0.35468356132E+03  0.00000000000E+00 0. -1.
          1    1    1    2  502    0 -0.61597028511E+02  0.24556064039E+02  0.87003222234E+03  0.87255559256E+03  0.00000000000E+00 0. -1.
         22    1    3    3    0    0  0.29284181017E+01  0.46851508132E+02  0.77970128487E+02  0.91010880575E+02  0.00000000000E+00 0.  1.
         22    1    3    3    0    0  0.11179501430E+03 -0.41134738359E+02  0.33161491446E+03  0.35236152374E+03  0.00000000000E+00 0.  1.
</event>
<event>
 7    1  0.5950675E-006  0.1235301E+03  0.7818608E-02  0.1341139E+00
          2   -1    0    0  502    0  0.00000000000E+00  0.00000000000E+00  0.16859699237E+03  0.16859699237E+03  0.00000000000E+00 0. -1.
          1   -1    0    0  501    0 -0.00000000000E+00 -0.00000000000E+00 -0.44232460915E+03  0.44232460915E+03  0.00000000000E+00 0. -1.
         25    2    1    2    0    0  0.62866385912E+01 -0.90169438218E+02 -0.12705514480E+02  0.15476028154E+03  0.12497705882E+03 0.  0.
          2    1    1    2  501    0 -0.38919708268E+02  0.12346635280E+03 -0.34035511848E+03  0.36414322820E+03  0.00000000000E+00 0. -1.
          1    1    1    2  502    0  0.32633069677E+02 -0.33296914579E+02  0.79333016185E+02  0.92018091776E+02  0.00000000000E+00 0. -1.
         22    1    3    3    0    0 -0.30291833836E+02  0.21182044242E+02 -0.50281124564E+01  0.37303566991E+02  0.00000000000E+00 0. -1.
         22    1    3    3    0    0  0.36578472427E+02 -0.11135148246E+03 -0.76774020239E+01  0.11745671455E+03  0.00000000000E+00 0. -1.
</event>
<event>
 7    1  0.5950675E-006  0.1101072E+03  0.7818608E-02  0.1342873E+00
          2   -1    0    0  502    0  0.00000000000E+00  0.00000000000E+00  0.16010843614E+04  0.16010843614E+04  0.00000000000E+00 0. -1.
          1   -1    0    0  501    0 -0.00000000000E+00 -0.00000000000E+00 -0.25006329749E+04  0.25006329749E+04  0.00000000000E+00 0. -1.
         25    2    1    2    0    0 -0.45213113795E+02  0.11622823422E+03 -0.17470115051E+03  0.24839101559E+03  0.12499750617E+03 0.  0.
          2    1    1    2  501    0 -0.59131626467E+01 -0.10980693956E+03 -0.22873412681E+04  0.22899831018E+04  0.00000000000E+00 0. -1.
          1    1    1    2  502    0  0.51126276442E+02 -0.64212946516E+01  0.15624938051E+04  0.15633432189E+04  0.00000000000E+00 0. -1.
         22    1    3    3    0    0 -0.88393754576E+02  0.75056550856E+02 -0.10287126905E+03  0.15501432086E+03  0.00000000000E+00 0. -1.
         22    1    3    3    0    0  0.43180640781E+02  0.41171683360E+02 -0.71829881451E+02  0.93376694728E+02  0.00000000000E+00 0. -1.
</event>
<event>
 7    1  0.5950675E-006  0.6462704E+02  0.7818608E-02  0.1414754E+00
          2   -1    0    0  502    0  0.00000000000E+00  0.00000000000E+00  0.63579547718E+03  0.63579547718E+03  0.00000000000E+00 0. -1.
          1   -1    0    0  501    0 -0.00000000000E+00 -0.00000000000E+00 -0.25574628618E+03  0.25574628618E+03  0.00000000000E+00 0. -1.
         25    2    1    2    0    0 -0.32664864387E+02  0.54638131555E+02  0.52437573557E+02  0.14975533134E+03  0.12499856543E+03 0.  0.
          2    1    1    2  501    0 -0.15250149489E+02 -0.63775482833E+02 -0.20074476176E+03  0.21118318740E+03  0.00000000000E+00 0. -1.
          1    1    1    2  502    0  0.47915013875E+02  0.91373512783E+01  0.52835637920E+03  0.53060324461E+03  0.00000000000E+00 0. -1.
         22    1    3    3    0    0  0.43589415178E+02  0.21439006873E+02  0.45065492553E+02  0.66261351860E+02  0.00000000000E+00 0.  1.
         22    1    3    3    0    0 -0.76254279565E+02  0.33199124682E+02  0.73720810040E+01  0.83493979483E+02  0.00000000000E+00 0.  1.
</event>
<event>
 7    1  0.5950675E-006  0.8962912E+02  0.7818608E-02  0.1418484E+00
          2   -1    0    0  502    0  0.00000000000E+00  0.00000000000E+00  0.18023067318E+04  0.18023067318E+04  0.00000000000E+00 0. -1.
          1   -1    0    0  501    0 -0.00000000000E+00 -0.00000000000E+00 -0.17452045506E+02  0.17452045506E+02  0.00000000000E+00 0. -1.
         25    2    1    2    0    0 -0.65019015700E+02  0.56294227634E+02  0.62984374072E+03  0.64786154432E+03  0.12499972166E+03 0.  0.
          2    1    1    2  501    0  0.42995122941E+02 -0.82422930509E+02  0.25802970488E+03  0.27426528885E+03  0.00000000000E+00 0. -1.
          1    1    1    2  502    0  0.22023892759E+02  0.26128702875E+02  0.89698124065E+03  0.89763194409E+03  0.00000000000E+00 0. -1.
         22    1    3    3    0    0  0.55617372603E+01  0.77551124616E+02  0.34244053253E+03  0.35115613076E+03  0.00000000000E+00 0.  1.
         22    1    3    3    0    0 -0.70580752960E+02 -0.21256896982E+02  0.28740320819E+03  0.29670541356E+03  0.00000000000E+00 0.  1.
</event>
<event>
 7    1  0.5950675E-006  0.1900815E+03  0.7818608E-02  0.1253606E+00
          2   -1    0    0  502    0  0.00000000000E+00  0.00000000000E+00  0.42661316387E+03  0.42661316387E+03  0.00000000000E+00 0. -1.
          1   -1    0    0  501    0 -0.00000000000E+00 -0.00000000000E+00 -0.87283827652E+03  0.87283827652E+03  0.00000000000E+00 0. -1.
         25    2    1    2    0    0  0.73999986843E+01 -0.20618809045E+03 -0.23646914419E+03  0.33780311011E+03  0.12499998570E+03 0.  0.
          2    1    1    2  501    0 -0.68065591182E+02  0.17505470828E+03 -0.56733958253E+03  0.59762134960E+03  0.00000000000E+00 0. -1.
          1    1    1    2  502    0  0.60665592498E+02  0.31133382169E+02  0.35758361408E+03  0.36402698067E+03  0.00000000000E+00 0. -1.
         22    1    3    3    0    0  0.47583752174E+01  0.33808512661E+01  0.11638854795E+02  0.13020569532E+02  0.00000000000E+00 0.  1.
         22    1    3    3    0    0  0.26416234669E+01 -0.20956894171E+03 -0.24810799898E+03  0.32478254058E+03  0.00000000000E+00 0.  1.
</event>
<event>
 7    1  0.5950675E-006  0.1252694E+03  0.7818608E-02  0.1357026E+00
          2   -1    0    0  502    0  0.00000000000E+00  0.00000000000E+00  0.60526729568E+03  0.60526729568E+03  0.00000000000E+00 0. -1.
          1   -1    0    0  501    0 -0.00000000000E+00 -0.00000000000E+00 -0.21388592399E+03  0.21388592399E+03  0.00000000000E+00 0. -1.
         25    2    1    2    0    0 -0.11149197680E+03 -0.84619633547E+02  0.14567511201E+03  0.23757020685E+03  0.12500968621E+03 0.  0.
          2    1    1    2  501    0  0.37624922865E+02 -0.13982708133E+02 -0.15617003097E+03  0.16124586668E+03  0.00000000000E+00 0. -1.
          1    1    1    2  502    0  0.73867053938E+02  0.98602341680E+02  0.40187629065E+03  0.42033714614E+03  0.00000000000E+00 0. -1.
         22    1    3    3    0    0 -0.46765001908E+02 -0.10880126190E+03  0.87492774144E+02  0.14724016274E+03  0.00000000000E+00 0. -1.
         22    1    3    3    0    0 -0.64726974896E+02  0.24181628355E+02  0.58182337871E+02  0.90330044111E+02  0.00000000000E+00 0. -1.
</event>
<event>
 7    1  0.5950675E-006  0.1895722E+03  0.7818608E-02  0.1281944E+00
          2   -1    0    0  502    0  0.00000000000E+00  0.00000000000E+00  0.62949141127E+03  0.62949141127E+03  0.00000000000E+00 0. -1.
          1   -1    0    0  501    0 -0.00000000000E+00 -0.00000000000E+00 -0.83860430527E+03  0.83860430527E+03  0.00000000000E+00 0. -1.
         25    2    1    2    0    0 -0.13409645009E+03  0.14049350622E+03 -0.11116022798E+03  0.25632308847E+03  0.12499858472E+03 0.  0.
          2    1    1    2  501    0  0.89630540666E+02 -0.16731962396E+03 -0.63984057454E+03  0.66740201618E+03  0.00000000000E+00 0. -1.
          1    1    1    2  502    0  0.44465909426E+02  0.26826117735E+02  0.54188790852E+03  0.54437061189E+03  0.00000000000E+00 0. -1.
         22    1    3    3    0    0 -0.11109591369E+03  0.16389707240E+03 -0.92078564019E+02  0.21836440720E+03  0.00000000000E+00 0.  1.
         22    1    3    3    0    0 -0.23000536400E+02 -0.23403566178E+02 -0.19081663957E+02  0.37958681272E+02  0.00000000000E+00 0.  1.
</event>
<event>
 7    1  0.5950675E-006  0.2032537E+03  0.7818608E-02  0.1319919E+00
          2   -1    0    0  502    0  0.00000000000E+00  0.00000000000E+00  0.11198162412E+04  0.11198162412E+04  0.00000000000E+00 0. -1.
          1   -1    0    0  501    0 -0.00000000000E+00 -0.00000000000E+00 -0.77064978284E+03  0.77064978284E+03  0.00000000000E+00 0. -1.
         25    2    1    2    0    0  0.78516000631E+02 -0.22241097987E+03 -0.42007153540E+03  0.49771245894E+03  0.12500476237E+03 0.  0.
          2    1    1    2  501    0 -0.44520846406E+01  0.33853780751E+02 -0.30129390473E+03  0.30322255284E+03  0.00000000000E+00 0. -1.
          1    1    1    2  502    0 -0.74063915990E+02  0.18855719912E+03  0.10705318985E+04  0.10895310123E+04  0.00000000000E+00 0. -1.
         22    1    3    3    0    0  0.10666475315E+03 -0.16128031765E+03 -0.35418981905E+03  0.40353331752E+03  0.00000000000E+00 0.  1.
         22    1    3    3    0    0 -0.28148752515E+02 -0.61130662222E+02 -0.65881716341E+02  0.94179141427E+02  0.00000000000E+00 0.  1.
</event>
<event>
 7    1  0.8427745E-006  0.7755202E+02  0.7818608E-02  0.1342669E+00
          2   -1    0    0  502    0  0.00000000000E+00  0.00000000000E+00  0.75507599547E+03  0.75507599547E+03  0.00000000000E+00 0. -1.
          1   -1    0    0  501    0 -0.00000000000E+00 -0.00000000000E+00 -0.14031864509E+04  0.14031864509E+04  0.00000000000E+00 0. -1.
         25    2    1    2    0    0 -0.48215676734E+02 -0.68476831343E+02 -0.73770181818E+03  0.75288963479E+03  0.12500000684E+03 0.  0.
          2    1    1    2  501    0 -0.29400823884E+02  0.67131691333E+02 -0.65382240321E+03  0.65791702164E+03  0.00000000000E+00 0. -1.
          1    1    1    2  502    0  0.77616500618E+02  0.13451400103E+01  0.74341376593E+03  0.74745578996E+03  0.00000000000E+00 0. -1.
         22    1    3    3    0    0  0.28955669301E+02 -0.12346632853E+01 -0.37218245566E+03  0.37330916876E+03  0.00000000000E+00 0. -1.
         22    1    3    3    0    0 -0.77171346035E+02 -0.67242168058E+02 -0.36551936252E+03  0.37958046603E+03  0.00000000000E+00 0. -1.
</event>
<event>
 7    1  0.5950675E-006  0.5798719E+02  0.7818608E-02  0.1469692E+00
          2   -1    0    0  502    0  0.00000000000E+00  0.00000000000E+00  0.15719951666E+02  0.15719951666E+02  0.00000000000E+00 0. -1.
          1   -1    0    0  501    0 -0.00000000000E+00 -0.00000000000E+00 -0.19271670183E+04  0.19271670183E+04  0.00000000000E+00 0. -1.
         25    2    1    2    0    0  0.15190851716E+02 -0.27306551903E+02 -0.10342029764E+04  0.10421985410E+04  0.12500237054E+03 0.  0.
          2    1    1    2  501    0 -0.40362802544E+02  0.53183929470E+02 -0.85640717855E+03  0.85900578674E+03  0.00000000000E+00 0. -1.
          1    1    1    2  502    0  0.25171950829E+02 -0.25877377567E+02 -0.20836911707E+02  0.41682642284E+02  0.00000000000E+00 0. -1.
         22    1    3    3    0    0 -0.19214814856E+02  0.44909301991E+02 -0.38630475272E+03  0.38938081166E+03  0.00000000000E+00 0. -1.
         22    1    3    3    0    0  0.34405666572E+02 -0.72215853894E+02 -0.64789822369E+03  0.65281772931E+03  0.00000000000E+00 0. -1.
</event>
<event>
 7    1  0.5950675E-006  0.1229377E+03  0.7818608E-02  0.1340470E+00
          2   -1    0    0  502    0  0.00000000000E+00  0.00000000000E+00  0.17051419791E+04  0.17051419791E+04  0.00000000000E+00 0. -1.
          1   -1    0    0  501    0 -0.00000000000E+00 -0.00000000000E+00 -0.15380894277E+03  0.15380894277E+03  0.00000000000E+00 0. -1.
         25    2    1    2    0    0  0.69323657728E+02 -0.64263239369E+02  0.20111912682E+03  0.25496961897E+03  0.12500027987E+03 0.  0.
          2    1    1    2  501    0 -0.11537392725E+03  0.54288265829E+02 -0.94368332600E+02  0.15863083273E+03  0.00000000000E+00 0. -1.
          1    1    1    2  502    0  0.46050269520E+02  0.99749735400E+01  0.14445822421E+04  0.14453504701E+04  0.00000000000E+00 0. -1.
         22    1    3    3    0    0  0.57389563229E+02 -0.10053182083E+03  0.12869414388E+03  0.17309648071E+03  0.00000000000E+00 0.  1.
         22    1    3    3    0    0  0.11934094499E+02  0.36268581461E+02  0.72424982947E+02  0.81873138254E+02  0.00000000000E+00 0.  1.
</event>
<event>
 7    1  0.5950675E-006  0.1361462E+03  0.7818608E-02  0.1227331E+00
          2   -1    0    0  502    0  0.00000000000E+00  0.00000000000E+00  0.20217753536E+04  0.20217753536E+04  0.00000000000E+00 0. -1.
          1   -1    0    0  501    0 -0.00000000000E+00 -0.00000000000E+00 -0.52328670608E+03  0.52328670608E+03  0.00000000000E+00 0. -1.
         25    2    1    2    0    0  0.11526659479E+03 -0.14838650288E+03  0.95755988084E+02  0.24515104053E+03  0.12499952522E+03 0.  0.
          2    1    1    2  501    0  0.83453250312E+01  0.13539967005E+03 -0.43618727905E+03  0.45679542194E+03  0.00000000000E+00 0. -1.
          1    1    1    2  502    0 -0.12361191982E+03  0.12986832830E+02  0.18389199385E+04  0.18431155972E+04  0.00000000000E+00 0. -1.
         22    1    3    3    0    0  0.78890059849E+02 -0.16445494821E+03  0.60976565181E+02  0.19232059961E+03  0.00000000000E+00 0.  1.
         22    1    3    3    0    0  0.36376534941E+02  0.16068445330E+02  0.34779422903E+02  0.52830440913E+02  0.00000000000E+00 0.  1.
</event>
<event>
 7    1  0.5950675E-006  0.8652037E+02  0.7818608E-02  0.1358061E+00
          2   -1    0    0  502    0  0.00000000000E+00  0.00000000000E+00  0.10919884435E+04  0.10919884435E+04  0.00000000000E+00 0. -1.
          1   -1    0    0  501    0 -0.00000000000E+00 -0.00000000000E+00 -0.11412648363E+04  0.11412648363E+04  0.00000000000E+00 0. -1.
         25    2    1    2    0    0 -0.53274040075E+02 -0.28256472855E+02  0.67048441648E+02  0.15412845310E+03  0.12499413956E+03 0.  0.
          2    1    1    2  501    0  0.84853354832E+02 -0.19927843835E+02 -0.10951463116E+04  0.10986094185E+04  0.00000000000E+00 0. -1.
          1    1    1    2  502    0 -0.31579314757E+02  0.48184316691E+02  0.97882147708E+03  0.98051540809E+03  0.00000000000E+00 0. -1.
         22    1    3    3    0    0 -0.53376627291E+02 -0.74026148657E+02  0.32856463621E+02  0.96997331034E+02  0.00000000000E+00 0.  1.
         22    1    3    3    0    0  0.10258721524E+00  0.45769675802E+02  0.34191978027E+02  0.57131122066E+02  0.00000000000E+00 0.  1.
</event>
<event>
 7    1  0.5950675E-006  0.6982812E+02  0.7818608E-02  0.1477531E+00
          2   -1    0    0  502    0  0.00000000000E+00  0.00000000000E+00  0.41517258329E+03  0.41517258329E+03  0.00000000000E+00 0. -1.
          1   -1    0    0  501    0 -0.00000000000E+00 -0.00000000000E+00 -0.44221430149E+03  0.44221430149E+03  0.00000000000E+00 0. -1.
         25    2    1    2    0    0  0.51065170210E+02  0.22850245810E+02  0.10721606938E+03  0.17393266390E+03  0.12501000239E+03 0.  0.
          2    1    1    2  501    0  0.21118387008E+02 -0.18914269062E+02 -0.40359229982E+03  0.40458680196E+03  0.00000000000E+00 0. -1.
          1    1    1    2  502    0 -0.72183557218E+02 -0.39359767486E+01  0.26933451225E+03  0.27886741892E+03  0.00000000000E+00 0. -1.
         22    1    3    3    0    0  0.49404687452E+01  0.69617852374E+02  0.67934119089E+02  0.97396602287E+02  0.00000000000E+00 0. -1.
         22    1    3    3    0    0  0.46124701465E+02 -0.46767606564E+02  0.39281950286E+02  0.76536061613E+02  0.00000000000E+00 0. -1.
</event>
<event>
 7    1  0.5950675E-006  0.1665599E+03  0.7818608E-02  0.1290961E+00
          2   -1    0    0  502    0  0.00000000000E+00  0.00000000000E+00  0.10044451534E+04  0.10044451534E+04  0.00000000000E+00 0. -1.
          1   -1    0    0  501    0 -0.00000000000E+00 -0.00000000000E+00 -0.43333085550E+03  0.43333085550E+03  0.00000000000E+00 0. -1.
         25    2    1    2    0    0  0.12675695499E+03 -0.16914670383E+03 -0.26944427696E+02  0.24703906798E+03  0.12499746346E+03 0.  0.
          2    1    1    2  501    0 -0.87695871241E+02  0.13143697318E+03 -0.27437284270E+03  0.31661759357E+03  0.00000000000E+00 0. -1.
          1    1    1    2  502    0 -0.39061083751E+02  0.37709730642E+02  0.87243156825E+03  0.87411934731E+03  0.00000000000E+00 0. -1.
         22    1    3    3    0    0 -0.93530398283E+01 -0.80344893370E+02 -0.24454403431E+02  0.84503249001E+02  0.00000000000E+00 0.  1.
         22    1    3    3    0    0  0.13610999482E+03 -0.88801810457E+02 -0.24900242654E+01  0.16253581898E+03  0.00000000000E+00 0.  1.
</event>
<event>
 7    1  0.5950675E-006  0.5822036E+02  0.7818608E-02  0.1414747E+00
          2   -1    0    0  502    0  0.00000000000E+00  0.00000000000E+00  0.53840206161E+03  0.53840206161E+03  0.00000000000E+00 0. -1.
          1   -1    0    0  501    0 -0.00000000000E+00 -0.00000000000E+00 -0.27246944850E+03  0.27246944850E+03  0.00000000000E+00 0. -1.
         25    2    1    2    0    0  0.20189967483E+01  0.14877948192E+02  0.23616560700E+03  0.26762835266E+03  0.12500124609E+03 0.  0.
          2    1    1    2  501    0  0.49220430204E+02 -0.32389461804E+02 -0.25073362066E+03  0.25756373292E+03  0.00000000000E+00 0. -1.
          1    1    1    2  502    0 -0.51239426953E+02  0.17511513612E+02  0.28050062677E+03  0.28567942454E+03  0.00000000000E+00 0. -1.
         22    1    3    3    0    0  0.53891420433E+02  0.13615450701E+02  0.19071245628E+03  0.19864769486E+03  0.00000000000E+00 0.  1.
         22    1    3    3    0    0 -0.51872423685E+02  0.12624974911E+01  0.45453150728E+02  0.68980657796E+02  0.00000000000E+00 0.  1.
</event>
<event>
 7    1  0.5950675E-006  0.1371154E+03  0.7818608E-02  0.1325452E+00
          2   -1    0    0  502    0  0.00000000000E+00  0.00000000000E+00  0.12262971182E+04  0.12262971182E+04  0.00000000000E+00 0. -1.
          1   -1    0    0  501    0 -0.00000000000E+00 -0.00000000000E+00 -0.55656594011E+02  0.55656594011E+02  0.00000000000E+00 0. -1.
         25    2    1    2    0    0 -0.82005857394E+02  0.59966637034E+02  0.38965485147E+03  0.42162730582E+03  0.12497089075E+03 0.  0.
          2    1    1    2  501    0  0.12029621900E+03 -0.89216417949E+02  0.10567148820E+03  0.18329542535E+03  0.00000000000E+00 0. -1.
          1    1    1    2  502    0 -0.38290361603E+02  0.29249780915E+02  0.67531418456E+03  0.67703098108E+03  0.00000000000E+00 0. -1.
         22    1    3    3    0    0  0.21160630851E+02  0.36855011180E+02  0.20028311216E+03  0.20474225056E+03  0.00000000000E+00 0. -1.
         22    1    3    3    0    0 -0.10316648824E+03  0.23111625854E+02  0.18937173931E+03  0.21688505526E+03  0.00000000000E+00 0. -1.
</event>
<event>
 7    1  0.5950675E-006  0.2127799E+03  0.7818608E-02  0.1162295E+00
          2   -1    0    0  502    0  0.00000000000E+00  0.00000000000E+00  0.31427716500E+04  0.31427716500E+04  0.00000000000E+00 0. -1.
          1   -1    0    0  501    0 -0.00000000000E+00 -0.00000000000E+00 -0.21604457791E+03  0.21604457791E+03  0.00000000000E+00 0. -1.
         25    2    1    2    0    0 -0.41677514285E+02 -0.17180339118E+02  0.54076378201E+03  0.55685033499E+03  0.12499859360E+03 0.  0.
          2    1    1    2  501    0 -0.18713038653E+03 -0.10127939462E+03 -0.14527801181E+03  0.25764510097E+03  0.00000000000E+00 0. -1.
          1    1    1    2  502    0  0.22880790082E+03  0.11845973374E+03  0.25312413019E+04  0.25443207920E+04  0.00000000000E+00 0. -1.
         22    1    3    3    0    0 -0.15570595663E+02 -0.65657290476E+02  0.40089816418E+03  0.40653740453E+03  0.00000000000E+00 0. -1.
         22    1    3    3    0    0 -0.26106918622E+02  0.48476951357E+02  0.13986561783E+03  0.15031293046E+03  0.00000000000E+00 0. -1.
</event>
<event>
 7    1  0.5950675E-006  0.8575008E+02  0.7818608E-02  0.1333070E+00
          2   -1    0    0  502    0  0.00000000000E+00  0.00000000000E+00  0.52766136302E+03  0.52766136302E+03  0.00000000000E+00 0. -1.
          1   -1    0    0  501    0 -0.00000000000E+00 -0.00000000000E+00 -0.70971345575E+03  0.70971345575E+03  0.00000000000E+00 0. -1.
         25    2    1    2    0    0 -0.36777089893E+02 -0.15132138092E+03 -0.22938929000E+03  0.30413293998E+03  0.12500673641E+03 0.  0.
          2    1    1    2  501    0  0.25918347020E+02  0.67224333569E+02 -0.43630949687E+03  0.44221810094E+03  0.00000000000E+00 0. -1.
          1    1    1    2  502    0  0.10858742873E+02  0.84097047354E+02  0.48364669414E+03  0.49102377785E+03  0.00000000000E+00 0. -1.
         22    1    3    3    0    0 -0.36233971253E+02 -0.97126909474E+02 -0.46928212223E+02  0.11379276919E+03  0.00000000000E+00 0.  1.
         22    1    3    3    0    0 -0.54311863947E+00 -0.54194471449E+02 -0.18246107777E+03  0.19034017079E+03  0.00000000000E+00 0.  1.
</event>
<event>
 7    1  0.5950675E-006  0.1331481E+03  0.7818608E-02  0.1263293E+00
          2   -1    0    0  502    0  0.00000000000E+00  0.00000000000E+00  0.53277531264E+03  0.53277531264E+03  0.00000000000E+00 0. -1.
          1   -1    0    0  501    0 -0.00000000000E+00 -0.00000000000E+00 -0.14879383371E+04  0.14879383371E+04  0.00000000000E+00 0. -1.
         25    2    1    2    0    0 -0.31813426167E+02 -0.66559611554E+02  0.94050972133E+02  0.17295346981E+03  0.12500016554E+03 0.  0.
          2    1    1    2  501    0 -0.71187516041E+02 -0.52552375883E+02 -0.14315415331E+04  0.14342735359E+04  0.00000000000E+00 0. -1.
          1    1    1    2  502    0  0.10300094221E+03  0.11911198744E+03  0.38232753651E+03  0.41348664407E+03  0.00000000000E+00 0. -1.
         22    1    3    3    0    0 -0.72589998564E+00 -0.57287039495E+02  0.11897027374E+03  0.13204642312E+03  0.00000000000E+00 0. -1.
         22    1    3    3    0    0 -0.31087526182E+02 -0.92725720589E+01 -0.24919301604E+02  0.40907046693E+02  0.00000000000E+00 0. -1.
</event>
<event>
 7    1  0.5950675E-006  0.4949554E+02  0.7818608E-02  0.1471593E+00
          2   -1    0    0  502    0  0.00000000000E+00  0.00000000000E+00  0.78843257025E+03  0.78843257025E+03  0.00000000000E+00 0. -1.
          1   -1    0    0  501    0 -0.00000000000E+00 -0.00000000000E+00 -0.18656602789E+03  0.18656602789E+03  0.00000000000E+00 0. -1.
         25    2    1    2    0    0  0.44571089322E+02 -0.45993891174E+02 -0.37473421903E+02  0.14536829997E+03  0.12500266100E+03 0.  0.
          2    1    1    2  501    0 -0.49170216314E+02  0.45252354799E+01 -0.88100396412E+02  0.10099439478E+03  0.00000000000E+00 0. -1.
          1    1    1    2  502    0  0.45991269920E+01  0.41468655695E+02  0.72744036068E+03  0.72863590339E+03  0.00000000000E+00 0. -1.
         22    1    3    3    0    0  0.13168802521E+02 -0.75797407389E+02  0.13907031752E+02  0.78179727928E+02  0.00000000000E+00 0. -1.
         22    1    3    3    0    0  0.31402286801E+02  0.29803516215E+02 -0.51380453655E+02  0.67188572041E+02  0.00000000000E+00 0. -1.
</event>
<event>
 7    1  0.5950675E-006  0.5600622E+02  0.7818608E-02  0.1467116E+00
          2   -1    0    0  502    0  0.00000000000E+00  0.00000000000E+00  0.32539999529E+03  0.32539999529E+03  0.00000000000E+00 0. -1.
          1   -1    0    0  501    0 -0.00000000000E+00 -0.00000000000E+00 -0.13863916458E+04  0.13863916458E+04  0.00000000000E+00 0. -1.
         25    2    1    2    0    0  0.33070430809E+01  0.22839388464E+02 -0.37696922418E+03  0.39782381967E+03  0.12500168527E+03 0.  0.
          2    1    1    2  501    0  0.12320257401E+02 -0.57559764517E+02 -0.99697317216E+03  0.99870937776E+03  0.00000000000E+00 0. -1.
          1    1    1    2  502    0 -0.15627300482E+02  0.34720376054E+02  0.31295074579E+03  0.31525844370E+03  0.00000000000E+00 0. -1.
         22    1    3    3    0    0  0.49549771643E+02 -0.26202426056E+02 -0.21931546579E+03  0.22636479527E+03  0.00000000000E+00 0.  1.
         22    1    3    3    0    0 -0.46242728563E+02  0.49041814519E+02 -0.15765375839E+03  0.17145902441E+03  0.00000000000E+00 0.  1.
</event>
<event>
 7    1  0.5950675E-006  0.7163945E+02  0.7818608E-02  0.1391962E+00
          2   -1    0    0  502    0  0.00000000000E+00  0.00000000000E+00  0.25376907679E+04  0.25376907679E+04  0.00000000000E+00 0. -1.
          1   -1    0    0  501    0 -0.00000000000E+00 -0.00000000000E+00 -0.13242680268E+04  0.13242680268E+04  0.00000000000E+00 0. -1.
         25    2    1    2    0    0  0.17005405514E+02 -0.56407020410E+02  0.32493144854E+03  0.35309613141E+03  0.12500198397E+03 0.  0.
          2    1    1    2  501    0  0.35309163596E+02  0.62436324175E+02 -0.13088882487E+04  0.13108521958E+04  0.00000000000E+00 0. -1.
          1    1    1    2  502    0 -0.52314569110E+02 -0.60293037644E+01  0.21973795413E+04  0.21980104675E+04  0.00000000000E+00 0. -1.
         22    1    3    3    0    0 -0.34279741396E+02 -0.75933845881E+02  0.19571436744E+03  0.21270910475E+03  0.00000000000E+00 0.  1.
         22    1    3    3    0    0  0.51285146910E+02  0.19526825471E+02  0.12921708110E+03  0.14038702666E+03  0.00000000000E+00 0.  1.
</event>
<event>
 7    1  0.5950675E-006  0.8600417E+02  0.7818608E-02  0.1363052E+00
          2   -1    0    0  502    0  0.00000000000E+00  0.00000000000E+00  0.30705374336E+04  0.30705374336E+04  0.00000000000E+00 0. -1.
          1   -1    0    0  501    0 -0.00000000000E+00 -0.00000000000E+00 -0.28526036336E+02  0.28526036336E+02  0.00000000000E+00 0. -1.
         25    2    1    2    0    0 -0.34332347389E+02 -0.32857306952E+01  0.21068442483E+03  0.24739233127E+03  0.12500213039E+03 0.  0.
          2    1    1    2  501    0 -0.52320685020E+02  0.18747949878E+02  0.72072747206E+02  0.91013299003E+02  0.00000000000E+00 0. -1.
          1    1    1    2  502    0  0.86653032409E+02 -0.15462219183E+02  0.27592542253E+04  0.27606578397E+04  0.00000000000E+00 0. -1.
         22    1    3    3    0    0  0.32044115383E+02 -0.50746762033E+01  0.70434202359E+01  0.33199208392E+02  0.00000000000E+00 0.  1.
         22    1    3    3    0    0 -0.66376462772E+02  0.17889455080E+01  0.20364100459E+03  0.21419312288E+03  0.00000000000E+00 0.  1.
</event>
<event>
 7    1  0.5950675E-006  0.9392039E+02  0.7818608E-02  0.1430211E+00
          2   -1    0    0  502    0  0.00000000000E+00  0.00000000000E+00  0.34303906028E+03  0.34303906028E+03  0.00000000000E+00 0. -1.
          1   -1    0    0  501    0 -0.00000000000E+00 -0.00000000000E+00 -0.98540020708E+03  0.98540020708E+03  0.00000000000E+00 0. -1.
         25    2    1    2    0    0 -0.35269997529E+02 -0.10978843090E+03 -0.64264094569E+02  0.18180192338E+03  0.12499837283E+03 0.  0.
          2    1    1    2  501    0  0.11024278224E+02  0.92436166524E+02 -0.85906386800E+03  0.86409299782E+03  0.00000000000E+00 0. -1.
          1    1    1    2  502    0  0.24245719305E+02  0.17352264371E+02  0.28096681576E+03  0.28254434615E+03  0.00000000000E+00 0. -1.
         22    1    3    3    0    0 -0.58520362312E+02 -0.11691631857E+03 -0.21349362518E+02  0.13247586057E+03  0.00000000000E+00 0. -1.
         22    1    3    3    0    0  0.23250364783E+02  0.71278876783E+01 -0.42914732051E+02  0.49326062810E+02  0.00000000000E+00 0. -1.
</event>
<event>
 7    1  0.5950675E-006  0.1005020E+03  0.7818608E-02  0.1424042E+00
          2   -1    0    0  502    0  0.00000000000E+00  0.00000000000E+00  0.26102740673E+03  0.26102740673E+03  0.00000000000E+00 0. -1.
          1   -1    0    0  501    0 -0.00000000000E+00 -0.00000000000E+00 -0.62234928972E+03  0.62234928972E+03  0.00000000000E+00 0. -1.
         25    2    1    2    0    0 -0.80610023182E+02  0.26156460262E+01  0.55175734054E+02  0.15866456228E+03  0.12500105701E+03 0.  0.
          2    1    1    2  501    0  0.99503884767E+02  0.19650999555E+02 -0.56466124040E+03  0.57369809244E+03  0.00000000000E+00 0. -1.
          1    1    1    2  502    0 -0.18893861585E+02 -0.22266645581E+02  0.14816362336E+03  0.15101404172E+03  0.00000000000E+00 0. -1.
         22    1    3    3    0    0  0.16789205971E+02  0.36019005251E+02  0.36617022468E+02  0.54037510220E+02  0.00000000000E+00 0. -1.
         22    1    3    3    0    0 -0.97399229153E+02 -0.33403359225E+02  0.18558711587E+02  0.10462705206E+03  0.00000000000E+00 0. -1.
</event>
<event>
 7    1  0.5950675E-006  0.9541243E+02  0.7818608E-02  0.1391032E+00
          2   -1    0    0  502    0  0.00000000000E+00  0.00000000000E+00  0.28234065032E+04  0.28234065032E+04  0.00000000000E+00 0. -1.
          1   -1    0    0  501    0 -0.00000000000E+00 -0.00000000000E+00 -0.39574998874E+02  0.39574998874E+02  0.00000000000E+00 0. -1.
         25    2    1    2    0    0  0.71520780849E+02  0.19823087278E+02  0.10711144665E+04  0.10809380231E+04  0.12503052588E+03 0.  0.
          2    1    1    2  501    0 -0.96438972231E+02  0.11256900842E+02  0.34031068409E+02  0.10288492017E+03  0.00000000000E+00 0. -1.
          1    1    1    2  502    0  0.24918191382E+02 -0.31079988120E+02  0.16786859694E+04  0.16791585588E+04  0.00000000000E+00 0. -1.
         22    1    3    3    0    0 -0.16848307385E+02 -0.25398807769E+02  0.52436658873E+03  0.52525163901E+03  0.00000000000E+00 0. -1.
         22    1    3    3    0    0  0.88369088234E+02  0.45221895047E+02  0.54674787780E+03  0.55568638406E+03  0.00000000000E+00 0. -1.
</event>
<event>
 7    1  0.5950675E-006  0.1773186E+03  0.7818608E-02  0.1273040E+00
          2   -1    0    0  502    0  0.00000000000E+00  0.00000000000E+00  0.53740672835E+03  0.53740672835E+03  0.00000000000E+00 0. -1.
          1   -1    0    0  501    0 -0.00000000000E+00 -0.00000000000E+00 -0.11237440199E+04  0.11237440199E+04  0.00000000000E+00 0. -1.
         25    2    1    2    0    0 -0.79512871708E+02  0.12847806434E+03  0.35211464327E+02  0.19923353637E+03  0.12500098004E+03 0.  0.
          2    1    1    2  501    0  0.40751729689E+02 -0.17486432157E+03 -0.10317648321E+04  0.10472711698E+04  0.00000000000E+00 0. -1.
          1    1    1    2  502    0  0.38761142019E+02  0.46386257223E+02  0.41021607622E+03  0.41464604204E+03  0.00000000000E+00 0. -1.
         22    1    3    3    0    0 -0.49665036888E+02  0.47395078057E+02  0.77081780430E+02  0.10322068682E+03  0.00000000000E+00 0.  1.
         22    1    3    3    0    0 -0.29847834820E+02  0.81082986288E+02 -0.41870316103E+02  0.96012849553E+02  0.00000000000E+00 0.  1.
</event>
<event>
 7    1  0.5950675E-006  0.1290803E+03  0.7818608E-02  0.1240838E+00
          2   -1    0    0  502    0  0.00000000000E+00  0.00000000000E+00  0.23358905637E+03  0.23358905637E+03  0.00000000000E+00 0. -1.
          1   -1    0    0  501    0 -0.00000000000E+00 -0.00000000000E+00 -0.58368317796E+03  0.58368317796E+03  0.00000000000E+00 0. -1.
         25    2    1    2    0    0 -0.10665390236E+03  0.15350658821E+03 -0.12722226501E+03  0.25836188910E+03  0.12500413399E+03 0.  0.
          2    1    1    2  501    0  0.11067788759E+03 -0.27893823247E+02 -0.35717884311E+03  0.37497251385E+03  0.00000000000E+00 0. -1.
          1    1    1    2  502    0 -0.40239852354E+01 -0.12561276496E+03  0.13430698653E+03  0.18393783137E+03  0.00000000000E+00 0. -1.
         22    1    3    3    0    0  0.15666181968E+02  0.64762417313E+02 -0.70343663804E+02  0.96890819952E+02  0.00000000000E+00 0. -1.
         22    1    3    3    0    0 -0.12232008433E+03  0.88744170895E+02 -0.56878601204E+02  0.16147106915E+03  0.00000000000E+00 0. -1.
</event>
<event>
 7    1  0.5950675E-006  0.1549956E+03  0.7818608E-02  0.1290664E+00
          2   -1    0    0  502    0  0.00000000000E+00  0.00000000000E+00  0.67252390572E+03  0.67252390572E+03  0.00000000000E+00 0. -1.
          1   -1    0    0  501    0 -0.00000000000E+00 -0.00000000000E+00 -0.56754065476E+03  0.56754065476E+03  0.00000000000E+00 0. -1.
         25    2    1    2    0    0 -0.93379208787E+02 -0.47129602785E+02  0.99789513565E+02  0.19111219919E+03  0.12500019828E+03 0.  0.
          2    1    1    2  501    0  0.15187731045E+03  0.48157269384E+02 -0.50801757734E+03  0.53241684695E+03  0.00000000000E+00 0. -1.
          1    1    1    2  502    0 -0.58498101668E+02 -0.10276665994E+01  0.51321131474E+03  0.51653551434E+03  0.00000000000E+00 0. -1.
         22    1    3    3    0    0 -0.72200967199E+02 -0.69771487263E+02  0.11817411493E+03  0.15506824801E+03  0.00000000000E+00 0. -1.
         22    1    3    3    0    0 -0.21178241588E+02  0.22641884478E+02 -0.18384601370E+02  0.36043951185E+02  0.00000000000E+00 0. -1.
</event>
<event>
 7    1  0.5950675E-006  0.5608665E+02  0.7818608E-02  0.1457026E+00
          2   -1    0    0  502    0  0.00000000000E+00  0.00000000000E+00  0.38196221760E+04  0.38196221760E+04  0.00000000000E+00 0. -1.
          1   -1    0    0  501    0 -0.00000000000E+00 -0.00000000000E+00 -0.84139489257E+02  0.84139489257E+02  0.00000000000E+00 0. -1.
         25    2    1    2    0    0 -0.15267539008E+02 -0.88179538554E+01  0.14308454599E+02  0.12704675407E+03  0.12500116716E+03 0.  0.
          2    1    1    2  501    0 -0.40735873811E+02  0.36953353037E+01 -0.12381213326E+02  0.42735949288E+02  0.00000000000E+00 0. -1.
          1    1    1    2  502    0  0.56003412819E+02  0.51226185517E+01  0.37335554454E+04  0.37339789619E+04  0.00000000000E+00 0. -1.
         22    1    3    3    0    0  0.10507219790E+02  0.12696697145E+02 -0.51009229591E+02  0.53605496823E+02  0.00000000000E+00 0. -1.
         22    1    3    3    0    0 -0.25774758798E+02 -0.21514651000E+02  0.65317684190E+02  0.73441257252E+02  0.00000000000E+00 0. -1.
</event>
<event>
 7    1  0.5950675E-006  0.6031136E+02  0.7818608E-02  0.1466117E+00
          2   -1    0    0  502    0  0.00000000000E+00  0.00000000000E+00  0.19003650784E+04  0.19003650784E+04  0.00000000000E+00 0. -1.
          1   -1    0    0  501    0 -0.00000000000E+00 -0.00000000000E+00 -0.75506415982E+03  0.75506415982E+03  0.00000000000E+00 0. -1.
         25    2    1    2    0    0 -0.43444102603E+02 -0.72747608554E+02  0.77214313008E+02  0.16960669149E+03  0.12499910025E+03 0.  0.
          2    1    1    2  501    0  0.10513665614E+02  0.59188681699E+02 -0.70741457995E+03  0.70996424215E+03  0.00000000000E+00 0. -1.
          1    1    1    2  502    0  0.32930436989E+02  0.13558926854E+02  0.17755011856E+04  0.17758583046E+04  0.00000000000E+00 0. -1.
         22    1    3    3    0    0  0.13222966706E+02  0.22315967249E+02  0.48925814050E+02  0.55376750746E+02  0.00000000000E+00 0. -1.
         22    1    3    3    0    0 -0.56667069309E+02 -0.95063575802E+02  0.28288498958E+02  0.11422994074E+03  0.00000000000E+00 0. -1.
</event>
<event>
 7    1  0.5950675E-006  0.3387101E+02  0.7818608E-02  0.1576554E+00
          2   -1    0    0  502    0  0.00000000000E+00  0.00000000000E+00  0.13002534236E+04  0.13002534236E+04  0.00000000000E+00 0. -1.
          1   -1    0    0  501    0 -0.00000000000E+00 -0.00000000000E+00 -0.13213504391E+04  0.13213504391E+04  0.00000000000E+00 0. -1.
         25    2    1    2    0    0  0.40096345497E+02  0.46132321855E+02  0.73103736140E+03  0.74416188082E+03  0.12500149228E+03 0.  0.
          2    1    1    2  501    0 -0.13902171508E+02 -0.30878491340E+02 -0.13141616544E+04  0.13145978874E+04  0.00000000000E+00 0. -1.
          1    1    1    2  502    0 -0.26194173989E+02 -0.15253830515E+02  0.56202727746E+03  0.56284409450E+03  0.00000000000E+00 0. -1.
         22    1    3    3    0    0 -0.19453678115E+02 -0.31263600539E+02  0.29703771369E+03  0.29931131229E+03  0.00000000000E+00 0.  1.
         22    1    3    3    0    0  0.59550023612E+02  0.77395922394E+02  0.43399964771E+03  0.44485056854E+03  0.00000000000E+00 0.  1.
</event>
<event>
 7    1  0.5950675E-006  0.4826695E+02  0.7818608E-02  0.1515583E+00
          2   -1    0    0  502    0  0.00000000000E+00  0.00000000000E+00  0.10477833668E+04  0.10477833668E+04  0.00000000000E+00 0. -1.
          1   -1    0    0  501    0 -0.00000000000E+00 -0.00000000000E+00 -0.51871384174E+02  0.51871384174E+02  0.00000000000E+00 0. -1.
         25    2    1    2    0    0 -0.50735511348E+00 -0.54034200236E+02  0.16385505849E+03  0.21305766762E+03  0.12500054933E+03 0.  0.
          2    1    1    2  501    0 -0.27714244328E+02  0.39957410355E+02 -0.50562214365E+01  0.48890074209E+02  0.00000000000E+00 0. -1.
          1    1    1    2  502    0  0.28221599441E+02  0.14076789881E+02  0.83711314558E+03  0.83770700915E+03  0.00000000000E+00 0. -1.
         22    1    3    3    0    0  0.44906733231E+01 -0.53559747967E+02  0.48419614616E+01  0.53965334614E+02  0.00000000000E+00 0. -1.
         22    1    3    3    0    0 -0.49980284366E+01 -0.47445226890E+00  0.15901309703E+03  0.15909233300E+03  0.00000000000E+00 0. -1.
</event>
<event>
 7    1  0.5950675E-006  0.1564859E+03  0.7818608E-02  0.1285982E+00
          2   -1    0    0  502    0  0.00000000000E+00  0.00000000000E+00  0.16317877682E+04  0.16317877682E+04  0.00000000000E+00 0. -1.
          1   -1    0    0  501    0 -0.00000000000E+00 -0.00000000000E+00 -0.36795432735E+03  0.36795432735E+03  0.00000000000E+00 0. -1.
         25    2    1    2    0    0 -0.69404884982E+02  0.18507772637E+03  0.61314883194E+02  0.24177678783E+03  0.12500278947E+03 0.  0.
          2    1    1    2  501    0  0.51907418644E+02 -0.31184004411E+02 -0.27031281185E+03  0.27701234358E+03  0.00000000000E+00 0. -1.
          1    1    1    2  502    0  0.17497466338E+02 -0.15389372196E+03  0.14728313695E+04  0.14809529641E+04  0.00000000000E+00 0. -1.
         22    1    3    3    0    0 -0.76578599448E+02  0.18696548214E+03  0.83326364033E+02  0.21854897929E+03  0.00000000000E+00 0.  1.
         22    1    3    3    0    0  0.71737144659E+01 -0.18877557671E+01 -0.22011480839E+02  0.23227808545E+02  0.00000000000E+00 0.  1.
</event>
<event>
 7    1  0.5950675E-006  0.1927277E+03  0.7818608E-02  0.1187078E+00
          2   -1    0    0  502    0  0.00000000000E+00  0.00000000000E+00  0.37865950431E+04  0.37865950431E+04  0.00000000000E+00 0. -1.
          1   -1    0    0  501    0 -0.00000000000E+00 -0.00000000000E+00 -0.46572698384E+03  0.46572698384E+03  0.00000000000E+00 0. -1.
         25    2    1    2    0    0 -0.15130141954E+02  0.64433459761E+02  0.59955716435E+02  0.15362323222E+03  0.12499927045E+03 0.  0.
          2    1    1    2  501    0  0.11495250592E+01  0.13522992008E+03 -0.40517706065E+03  0.42714974326E+03  0.00000000000E+00 0. -1.
          1    1    1    2  502    0  0.13980616895E+02 -0.19966337985E+03  0.36660894035E+04  0.36715490515E+04  0.00000000000E+00 0. -1.
         22    1    3    3    0    0  0.23534319028E+02  0.44323029750E+02 -0.26539174987E+02  0.56769031587E+02  0.00000000000E+00 0. -1.
         22    1    3    3    0    0 -0.38664460982E+02  0.20110430011E+02  0.86494891422E+02  0.96854200634E+02  0.00000000000E+00 0. -1.
</event>
<event>
 7    1  0.5950675E-006  0.7818960E+02  0.7818608E-02  0.1436504E+00
          2   -1    0    0  502    0  0.00000000000E+00  0.00000000000E+00  0.66856878619E+03  0.66856878619E+03  0.00000000000E+00 0. -1.
          1   -1    0    0  501    0 -0.00000000000E+00 -0.00000000000E+00 -0.45712467781E+03  0.45712467781E+03  0.00000000000E+00 0. -1.
         25    2    1    2    0    0 -0.21413823078E+02 -0.10661936093E+03 -0.23819855105E+02  0.16738583195E+03  0.12499756516E+03 0.  0.
          2    1    1    2  501    0  0.57017485156E+01  0.76294697775E+02 -0.35697659289E+03  0.36508311207E+03  0.00000000000E+00 0. -1.
          1    1    1    2  502    0  0.15712074563E+02  0.30324663158E+02  0.59224055638E+03  0.59322451998E+03  0.00000000000E+00 0. -1.
         22    1    3    3    0    0 -0.18449312697E+02 -0.13544222308E+03 -0.20491355920E+02  0.13822036246E+03  0.00000000000E+00 0. -1.
         22    1    3    3    0    0 -0.29645103809E+01  0.28822862143E+02 -0.33284991848E+01  0.29165469493E+02  0.00000000000E+00 0. -1.
</event>
<event>
 7    1  0.5950675E-006  0.1062917E+03  0.7818608E-02  0.1357776E+00
          2   -1    0    0  502    0  0.00000000000E+00  0.00000000000E+00  0.18727498495E+04  0.18727498495E+04  0.00000000000E+00 0. -1.
          1   -1    0    0  501    0 -0.00000000000E+00 -0.00000000000E+00 -0.44804673872E+02  0.44804673872E+02  0.00000000000E+00 0. -1.
         25    2    1    2    0    0  0.52723568251E+01 -0.13235282481E+03  0.14489132100E+04  0.14603147637E+04  0.12499860320E+03 0.  0.
          2    1    1    2  501    0 -0.12976142666E+01  0.46989579515E+02 -0.18581530187E+02  0.50546786741E+02  0.00000000000E+00 0. -1.
          1    1    1    2  502    0 -0.39747425585E+01  0.85363245299E+02  0.39761349575E+03  0.40669297292E+03  0.00000000000E+00 0. -1.
         22    1    3    3    0    0  0.53594242657E+02 -0.25108062968E+02  0.66457645109E+03  0.66720657746E+03  0.00000000000E+00 0. -1.
         22    1    3    3    0    0 -0.48321885832E+02 -0.10724476185E+03  0.78433675896E+03  0.79310818622E+03  0.00000000000E+00 0. -1.
</event>
<event>
 7    1  0.5958463E-006  0.9355987E+02  0.7818608E-02  0.1334182E+00
          2   -1    0    0  502    0  0.00000000000E+00  0.00000000000E+00  0.81147332508E+03  0.81147332508E+03  0.00000000000E+00 0. -1.
          1   -1    0    0  501    0 -0.00000000000E+00 -0.00000000000E+00 -0.67058310671E+03  0.67058310671E+03  0.00000000000E+00 0. -1.
         25    2    1    2    0    0 -0.15342491595E+03  0.68375213824E+00 -0.17335659107E+03  0.26309254361E+03  0.12500202593E+03 0.  0.
          2    1    1    2  501    0  0.62482208496E+02 -0.19295837893E+02 -0.44716149732E+03  0.45191786911E+03  0.00000000000E+00 0. -1.
          1    1    1    2  502    0  0.90942707452E+02  0.18612085755E+02  0.76140830675E+03  0.76704601907E+03  0.00000000000E+00 0. -1.
         22    1    3    3    0    0 -0.16310778897E+03  0.12829503542E+02 -0.10830204085E+03  0.19620927358E+03  0.00000000000E+00 0. -1.
         22    1    3    3    0    0  0.96828730236E+01 -0.12145751404E+02 -0.65054550213E+02  0.66883270035E+02  0.00000000000E+00 0. -1.
</event>
<event>
 7    1  0.6348982E-006  0.9025185E+02  0.7818608E-02  0.1314833E+00
          2   -1    0    0  502    0  0.00000000000E+00  0.00000000000E+00  0.76667080901E+03  0.76667080901E+03  0.00000000000E+00 0. -1.
          1   -1    0    0  501    0 -0.00000000000E+00 -0.00000000000E+00 -0.10746246231E+04  0.10746246231E+04  0.00000000000E+00 0. -1.
         25    2    1    2    0    0  0.27361558620E+02 -0.46026688039E+02 -0.33976273853E+03  0.36596474908E+03  0.12499747269E+03 0.  0.
          2    1    1    2  501    0 -0.73901715882E+02 -0.31885655718E+02 -0.71676782775E+03  0.72127267905E+03  0.00000000000E+00 0. -1.
          1    1    1    2  502    0  0.46540157261E+02  0.77912343758E+02  0.74857675215E+03  0.75405800401E+03  0.00000000000E+00 0. -1.
         22    1    3    3    0    0  0.19951177047E+02 -0.48939872588E+02 -0.34945065891E+03  0.35342456565E+03  0.00000000000E+00 0.  1.
         22    1    3    3    0    0  0.74103815736E+01  0.29131845484E+01  0.96879203789E+01  0.12540183434E+02  0.00000000000E+00 0.  1.
</event>
<event>
 7    1  0.5950675E-006  0.3979935E+02  0.7818608E-02  0.1532657E+00
          2   -1    0    0  502    0  0.00000000000E+00  0.00000000000E+00  0.13382352743E+04  0.13382352743E+04  0.00000000000E+00 0. -1.
          1   -1    0    0  501    0 -0.00000000000E+00 -0.00000000000E+00 -0.57688151212E+03  0.57688151212E+03  0.00000000000E+00 0. -1.
         25    2    1    2    0    0 -0.18228447054E+02 -0.52726557218E+02 -0.49662610922E+03  0.51514555778E+03  0.12500034888E+03 0.  0.
          2    1    1    2  501    0  0.30702427051E+02  0.14935380045E+02 -0.66574624392E+02  0.74819016412E+02  0.00000000000E+00 0. -1.
          1    1    1    2  502    0 -0.12473979997E+02  0.37791177173E+02  0.13245544958E+04  0.13251522122E+04  0.00000000000E+00 0. -1.
         22    1    3    3    0    0 -0.27960475568E+01 -0.20321198102E+02 -0.36139225564E+01  0.20828571974E+02  0.00000000000E+00 0.  1.
         22    1    3    3    0    0 -0.15432399497E+02 -0.32405359117E+02 -0.49301218667E+03  0.49431698581E+03  0.00000000000E+00 0.  1.
</event>
<event>
 7    1  0.5950675E-006  0.8532753E+02  0.7818608E-02  0.1339726E+00
          2   -1    0    0  502    0  0.00000000000E+00  0.00000000000E+00  0.11559130938E+04  0.11559130938E+04  0.00000000000E+00 0. -1.
          1   -1    0    0  501    0 -0.00000000000E+00 -0.00000000000E+00 -0.60106435214E+03  0.60106435214E+03  0.00000000000E+00 0. -1.
         25    2    1    2    0    0 -0.22383178963E+02 -0.54865432520E+02  0.10413953767E+03  0.17311539765E+03  0.12495069112E+03 0.  0.
          2    1    1    2  501    0  0.83178230738E+02  0.23682593186E+02 -0.56211839385E+03  0.56873242566E+03  0.00000000000E+00 0. -1.
          1    1    1    2  502    0 -0.60795051776E+02  0.31182839334E+02  0.10128275978E+04  0.10151296226E+04  0.00000000000E+00 0. -1.
         22    1    3    3    0    0 -0.65843057663E+02 -0.27957505025E+02  0.19339309614E+02  0.74100871966E+02  0.00000000000E+00 0.  1.
         22    1    3    3    0    0  0.43459878701E+02 -0.26907927494E+02  0.84800228056E+02  0.99014525688E+02  0.00000000000E+00 0.  1.
</event>
<event>
 7    1  0.5950675E-006  0.6882613E+02  0.7818608E-02  0.1509686E+00
          2   -1    0    0  502    0  0.00000000000E+00  0.00000000000E+00  0.40695787767E+03  0.40695787767E+03  0.00000000000E+00 0. -1.
          1   -1    0    0  501    0 -0.00000000000E+00 -0.00000000000E+00 -0.13067331691E+03  0.13067331691E+03  0.00000000000E+00 0. -1.
         25    2    1    2    0    0  0.59472509597E+02 -0.55831703011E+01  0.86690335548E+02  0.16342605764E+03  0.12499884339E+03 0.  0.
          2    1    1    2  501    0  0.89465226384E+01  0.21205465228E+02 -0.86407772992E+02  0.89420440931E+02  0.00000000000E+00 0. -1.
          1    1    1    2  502    0 -0.68419032235E+02 -0.15622294927E+02  0.27600199820E+03  0.28478469601E+03  0.00000000000E+00 0. -1.
         22    1    3    3    0    0  0.92726111948E+02  0.17907069207E+02  0.76292601568E+02  0.12140574953E+03  0.00000000000E+00 0. -1.
         22    1    3    3    0    0 -0.33253602352E+02 -0.23490239508E+02  0.10397733980E+02  0.42020308107E+02  0.00000000000E+00 0. -1.
</event>
<event>
 7    1  0.5950675E-006  0.1736189E+03  0.7818608E-02  0.1336670E+00
          2   -1    0    0  502    0  0.00000000000E+00  0.00000000000E+00  0.18589391453E+04  0.18589391453E+04  0.00000000000E+00 0. -1.
          1   -1    0    0  501    0 -0.00000000000E+00 -0.00000000000E+00 -0.26026341848E+03  0.26026341848E+03  0.00000000000E+00 0. -1.
         25    2    1    2    0    0 -0.79619530532E+02 -0.15280385381E+03  0.16088665433E+03  0.26682922496E+03  0.12500012950E+03 0.  0.
          2    1    1    2  501    0  0.10952939385E+03  0.13564323312E+03 -0.17041645493E+03  0.24379816020E+03  0.00000000000E+00 0. -1.
          1    1    1    2  502    0 -0.29909863320E+02  0.17160620690E+02  0.16082055274E+04  0.16085751786E+04  0.00000000000E+00 0. -1.
         22    1    3    3    0    0 -0.15622065088E+02 -0.95887596526E+01  0.94895631242E+02  0.96649749395E+02  0.00000000000E+00 0. -1.
         22    1    3    3    0    0 -0.63997465444E+02 -0.14321509416E+03  0.65991023083E+02  0.17017947557E+03  0.00000000000E+00 0. -1.
</event>
<event>
 7    1  0.5950675E-006  0.3613435E+02  0.7818608E-02  0.1580545E+00
          2   -1    0    0  502    0  0.00000000000E+00  0.00000000000E+00  0.41071693976E+03  0.41071693976E+03  0.00000000000E+00 0. -1.
          1   -1    0    0  501    0 -0.00000000000E+00 -0.00000000000E+00 -0.14422274636E+04  0.14422274636E+04  0.00000000000E+00 0. -1.
         25    2    1    2    0    0  0.82557434148E+01 -0.13361885700E+02 -0.72350968126E+03  0.73439637387E+03  0.12500031119E+03 0.  0.
          2    1    1    2  501    0  0.27107024531E+02  0.57995859930E+01 -0.71219757771E+03  0.71273684882E+03  0.00000000000E+00 0. -1.
          1    1    1    2  502    0 -0.35362767945E+02  0.75622997067E+01  0.40419673508E+03  0.40581118070E+03  0.00000000000E+00 0. -1.
         22    1    3    3    0    0 -0.52078123196E+02 -0.13604505501E+02 -0.18972080943E+03  0.19720851659E+03  0.00000000000E+00 0. -1.
         22    1    3    3    0    0  0.60333866611E+02  0.24261980167E+00 -0.53378887183E+03  0.53718785728E+03  0.00000000000E+00 0. -1.
</event>
<event>
 7    1  0.5950675E-006  0.1107290E+03  0.7818608E-02  0.1349525E+00
          2   -1    0    0  502    0  0.00000000000E+00  0.00000000000E+00  0.18597453779E+04  0.18597453779E+04  0.00000000000E+00 0. -1.
          1   -1    0    0  501    0 -0.00000000000E+00 -0.00000000000E+00 -0.73545076105E+02  0.73545076105E+02  0.00000000000E+00 0. -1.
         25    2    1    2    0    0 -0.58195845148E+02  0.14097162038E+03  0.11386645011E+04  0.11556129048E+04  0.12499834204E+03 0.  0.
          2    1    1    2  501    0  0.57763774947E+02 -0.92577722007E+02 -0.17818265789E+02  0.11056572210E+03  0.00000000000E+00 0. -1.
          1    1    1    2  502    0  0.43207020116E+00 -0.48393898369E+02  0.66535406644E+03  0.66711182706E+03  0.00000000000E+00 0. -1.
         22    1    3    3    0    0 -0.95880917561E+02  0.95010940253E+02  0.87358569600E+03  0.88395259905E+03  0.00000000000E+00 0. -1.
         22    1    3    3    0    0  0.37685072413E+02  0.45960680123E+02  0.26507880511E+03  0.27166030574E+03  0.00000000000E+00 0. -1.
</event>
<event>
 7    1  0.5950675E-006  0.7174590E+02  0.7818608E-02  0.1449311E+00
          2   -1    0    0  502    0  0.00000000000E+00  0.00000000000E+00  0.12433323733E+03  0.12433323733E+03  0.00000000000E+00 0. -1.
          1   -1    0    0  501    0 -0.00000000000E+00 -0.00000000000E+00 -0.11108904732E+04  0.11108904732E+04  0.00000000000E+00 0. -1.
         25    2    1    2    0    0 -0.29450153057E+02  0.48331758592E+02 -0.83567135747E+02  0.16066027348E+03  0.12499994757E+03 0.  0.
          2    1    1    2  501    0  0.55311454223E+01 -0.72265917084E+02 -0.98405474422E+03  0.98672017105E+03  0.00000000000E+00 0. -1.
          1    1    1    2  502    0  0.23919007635E+02  0.23934158492E+02  0.81064644064E+02  0.87843266026E+02  0.00000000000E+00 0. -1.
         22    1    3    3    0    0  0.19239688088E+02 -0.35423586818E+02 -0.25965052861E+02  0.47949766119E+02  0.00000000000E+00 0.  1.
         22    1    3    3    0    0 -0.48689841145E+02  0.83755345411E+02 -0.57602082886E+02  0.11271050736E+03  0.00000000000E+00 0.  1.
</event>
<event>
 7    1  0.5950675E-006  0.2282725E+03  0.7818608E-02  0.1266976E+00
          2   -1    0    0  502    0  0.00000000000E+00  0.00000000000E+00  0.16467515287E+04  0.16467515287E+04  0.00000000000E+00 0. -1.
          1   -1    0    0  501    0 -0.00000000000E+00 -0.00000000000E+00 -0.12063606366E+04  0.12063606366E+04  0.00000000000E+00 0. -1.
         25    2    1    2    0    0  0.26047656150E+03  0.89924632317E+02 -0.24939025744E+02  0.30361548924E+03  0.12500372679E+03 0.  0.
          2    1    1    2  501    0 -0.46252737883E+02 -0.18435954676E+02 -0.10330217649E+04  0.10342210435E+04  0.00000000000E+00 0. -1.
          1    1    1    2  502    0 -0.21422382362E+03 -0.71488677640E+02  0.14983516827E+04  0.15152756326E+04  0.00000000000E+00 0. -1.
         22    1    3    3    0    0  0.30998238386E+02 -0.27169087193E+02 -0.20300986336E+02  0.45947580221E+02  0.00000000000E+00 0.  1.
         22    1    3    3    0    0  0.22947832311E+03  0.11709371951E+03 -0.46380394079E+01  0.25766790902E+03  0.00000000000E+00 0.  1.
</event>
<event>
 7    1  0.5950675E-006  0.1125318E+03  0.7818608E-02  0.1358060E+00
          2   -1    0    0  502    0  0.00000000000E+00  0.00000000000E+00  0.85582023276E+03  0.85582023276E+03  0.00000000000E+00 0. -1.
          1   -1    0    0  501    0 -0.00000000000E+00 -0.00000000000E+00 -0.55040708479E+03  0.55040708479E+03  0.00000000000E+00 0. -1.
         25    2    1    2    0    0 -0.23293995402E+02  0.69093172834E+02  0.39201957539E+02  0.14993357739E+03  0.12500722940E+03 0.  0.
          2    1    1    2  501    0 -0.26937709485E+02  0.35161950679E+02 -0.48963763795E+03  0.49163708105E+03  0.00000000000E+00 0. -1.
          1    1    1    2  502    0  0.50231704888E+02 -0.10425512351E+03  0.75584882838E+03  0.76465665911E+03  0.00000000000E+00 0. -1.
         22    1    3    3    0    0 -0.46571266427E+02 -0.17979791523E+02 -0.38083936279E+01  0.50066551927E+02  0.00000000000E+00 0.  1.
         22    1    3    3    0    0  0.23277271025E+02  0.87072964357E+02  0.43010351167E+02  0.99867025467E+02  0.00000000000E+00 0.  1.
</event>
<event>
 7    1  0.5950675E-006  0.3780626E+02  0.7818608E-02  0.1542950E+00
          2   -1    0    0  502    0  0.00000000000E+00  0.00000000000E+00  0.37186925067E+03  0.37186925067E+03  0.00000000000E+00 0. -1.
          1   -1    0    0  501    0 -0.00000000000E+00 -0.00000000000E+00 -0.89597898878E+02  0.89597898878E+02  0.00000000000E+00 0. -1.
         25    2    1    2    0    0  0.25761771615E+02  0.15815360107E+02  0.10027761031E+03  0.16307781595E+03  0.12499992173E+03 0.  0.
          2    1    1    2  501    0  0.94604555882E+01 -0.32247405549E+02 -0.51602950369E+02  0.61581327295E+02  0.00000000000E+00 0. -1.
          1    1    1    2  502    0 -0.35222227204E+02  0.16432045442E+02  0.23359669185E+03  0.23680800631E+03  0.00000000000E+00 0. -1.
         22    1    3    3    0    0 -0.47791528305E+02  0.22901326612E+02  0.55191499727E+02  0.76515374798E+02  0.00000000000E+00 0.  1.
         22    1    3    3    0    0  0.73553299921E+02 -0.70859665049E+01  0.45086110585E+02  0.86562441152E+02  0.00000000000E+00 0.  1.
</event>
<event>
 7    1  0.5950675E-006  0.7782760E+02  0.7818608E-02  0.1485944E+00
          2   -1    0    0  502    0  0.00000000000E+00  0.00000000000E+00  0.22361840152E+03  0.22361840152E+03  0.00000000000E+00 0. -1.
          1   -1    0    0  501    0 -0.00000000000E+00 -0.00000000000E+00 -0.17134713441E+04  0.17134713441E+04  0.00000000000E+00 0. -1.
         25    2    1    2    0    0  0.74858029736E+00 -0.57074761419E+02 -0.88721812078E+03  0.89779682117E+03  0.12500019797E+03 0.  0.
          2    1    1    2  501    0  0.13894342173E+02 -0.19534883812E+02 -0.81381581932E+03  0.81416881063E+03  0.00000000000E+00 0. -1.
          1    1    1    2  502    0 -0.14642922471E+02  0.76609645232E+02  0.21118099751E+03  0.22512411384E+03  0.00000000000E+00 0. -1.
         22    1    3    3    0    0 -0.18535637010E+02 -0.64488258753E+02 -0.86445788291E+03  0.86705809302E+03  0.00000000000E+00 0. -1.
         22    1    3    3    0    0  0.19284217307E+02  0.74134973335E+01 -0.22760237874E+02  0.30738728145E+02  0.00000000000E+00 0. -1.
</event>
<event>
 7    1  0.5950675E-006  0.9987670E+02  0.7818608E-02  0.1371718E+00
          2   -1    0    0  502    0  0.00000000000E+00  0.00000000000E+00  0.41658405432E+02  0.41658405432E+02  0.00000000000E+00 0. -1.
          1   -1    0    0  501    0 -0.00000000000E+00 -0.00000000000E+00 -0.16343446243E+04  0.16343446243E+04  0.00000000000E+00 0. -1.
         25    2    1    2    0    0  0.26055098837E+02  0.76650685526E+02 -0.19687826606E+03  0.24686143116E+03  0.12500127511E+03 0.  0.
          2    1    1    2  501    0 -0.13142215570E+02  0.42549444247E+02 -0.11909072812E+04  0.11917396215E+04  0.00000000000E+00 0. -1.
          1    1    1    2  502    0 -0.12912883268E+02 -0.11920012977E+03 -0.20490067159E+03  0.23740197706E+03  0.00000000000E+00 0. -1.
         22    1    3    3    0    0  0.75166764240E+02  0.62453208713E+02 -0.12541255107E+03  0.15899293597E+03  0.00000000000E+00 0.  1.
         22    1    3    3    0    0 -0.49111665403E+02  0.14197476812E+02 -0.71465714990E+02  0.87868495182E+02  0.00000000000E+00 0.  1.
</event>
<event>
 7    1  0.5950675E-006  0.1003779E+03  0.7818608E-02  0.1334936E+00
          2   -1    0    0  502    0  0.00000000000E+00  0.00000000000E+00  0.89393921125E+03  0.89393921125E+03  0.00000000000E+00 0. -1.
          1   -1    0    0  501    0 -0.00000000000E+00 -0.00000000000E+00 -0.42327184246E+03  0.42327184246E+03  0.00000000000E+00 0. -1.
         25    2    1    2    0    0 -0.12831891915E+03  0.59970654934E+02 -0.14560147322E+03  0.23851287064E+03  0.12500550385E+03 0.  0.
          2    1    1    2  501    0  0.92432568532E+02 -0.11198236676E+02 -0.22070283677E+03  0.23953897885E+03  0.00000000000E+00 0. -1.
          1    1    1    2  502    0  0.35886350619E+02 -0.48772418258E+02  0.83697167878E+03  0.83915920422E+03  0.00000000000E+00 0. -1.
         22    1    3    3    0    0 -0.76244199904E+02 -0.30228747888E+02 -0.44282389198E+02  0.93208825821E+02  0.00000000000E+00 0. -1.
         22    1    3    3    0    0 -0.52074719247E+02  0.90199402822E+02 -0.10131908402E+03  0.14530404482E+03  0.00000000000E+00 0. -1.
</event>
<event>
 7    1  0.5950675E-006  0.7251008E+02  0.7818608E-02  0.1378815E+00
          2   -1    0    0  502    0  0.00000000000E+00  0.00000000000E+00  0.75797465806E+03  0.75797465806E+03  0.00000000000E+00 0. -1.
          1   -1    0    0  501    0 -0.00000000000E+00 -0.00000000000E+00 -0.15159373796E+04  0.15159373796E+04  0.00000000000E+00 0. -1.
         25    2    1    2    0    0 -0.32028071576E+02 -0.96451738070E+01  0.21972010687E+03  0.25499136288E+03  0.12499937214E+03 0.  0.
          2    1    1    2  501    0  0.60046518785E+02 -0.40986961466E+02 -0.14958081410E+04  0.14975738746E+04  0.00000000000E+00 0. -1.
          1    1    1    2  502    0 -0.28018447209E+02  0.50632135273E+02  0.51812531256E+03  0.52134680014E+03  0.00000000000E+00 0. -1.
         22    1    3    3    0    0  0.14620515894E+02 -0.83209786568E+01 -0.10670870281E+02  0.19921486977E+02  0.00000000000E+00 0. -1.
         22    1    3    3    0    0 -0.46648587470E+02 -0.13241951502E+01  0.23039097715E+03  0.23506987591E+03  0.00000000000E+00 0. -1.
</event>
<event>
 7    1  0.5950675E-006  0.1312407E+03  0.7818608E-02  0.1284969E+00
          2   -1    0    0  502    0  0.00000000000E+00  0.00000000000E+00  0.14838849542E+04  0.14838849542E+04  0.00000000000E+00 0. -1.
          1   -1    0    0  501    0 -0.00000000000E+00 -0.00000000000E+00 -0.94977877045E+02  0.94977877045E+02  0.00000000000E+00 0. -1.
         25    2    1    2    0    0 -0.69492455678E+02 -0.69815048237E+02  0.82842106679E+03  0.84356944413E+03  0.12499840326E+03 0.  0.
          2    1    1    2  501    0  0.29705736070E+02  0.13089525036E+03 -0.32289222813E+02  0.13805285666E+03  0.00000000000E+00 0. -1.
          1    1    1    2  502    0  0.39786719608E+02 -0.61080202120E+02  0.59277523317E+03  0.59724053045E+03  0.00000000000E+00 0. -1.
         22    1    3    3    0    0 -0.18574149456E+02  0.49176552568E+01  0.55990884965E+03  0.56023843342E+03  0.00000000000E+00 0.  1.
         22    1    3    3    0    0 -0.50918306222E+02 -0.74732703493E+02  0.26851221714E+03  0.28333101071E+03  0.00000000000E+00 0.  1.
</event>
<event>
 7    1  0.5950675E-006  0.5908188E+02  0.7818608E-02  0.1424123E+00
          2   -1    0    0  502    0  0.00000000000E+00  0.00000000000E+00  0.17719198446E+04  0.17719198446E+04  0.00000000000E+00 0. -1.
          1   -1    0    0  501    0 -0.00000000000E+00 -0.00000000000E+00 -0.12973050579E+03  0.12973050579E+03  0.00000000000E+00 0. -1.
         25    2    1    2    0    0 -0.94293634704E+02  0.85489150014E+00  0.95775411254E+03  0.97046973108E+03  0.12500615371E+03 0.  0.
          2    1    1    2  501    0  0.52229852277E+02 -0.27221906092E+02 -0.11552961085E+03  0.12967683149E+03  0.00000000000E+00 0. -1.
          1    1    1    2  502    0  0.42063782427E+02  0.26367014592E+02  0.79996483710E+03  0.80150378779E+03  0.00000000000E+00 0. -1.
         22    1    3    3    0    0 -0.17854229597E+02  0.49809946851E+01  0.13049695881E+02  0.22668885838E+02  0.00000000000E+00 0. -1.
         22    1    3    3    0    0 -0.76439405107E+02 -0.41261031850E+01  0.94470441666E+03  0.94780084524E+03  0.00000000000E+00 0. -1.
</event>
<event>
 7    1  0.5950675E-006  0.9659859E+02  0.7818608E-02  0.1321200E+00
          2   -1    0    0  502    0  0.00000000000E+00  0.00000000000E+00  0.32876986954E+04  0.32876986954E+04  0.00000000000E+00 0. -1.
          1   -1    0    0  501    0 -0.00000000000E+00 -0.00000000000E+00 -0.30613068571E+03  0.30613068571E+03  0.00000000000E+00 0. -1.
         25    2    1    2    0    0  0.20777786140E+02 -0.13617724879E+03  0.13067711419E+04  0.13199438709E+04  0.12500018150E+03 0.  0.
          2    1    1    2  501    0 -0.58998464938E+02  0.76308842992E+02 -0.29112129570E+03  0.30668463801E+03  0.00000000000E+00 0. -1.
          1    1    1    2  502    0  0.38220678797E+02  0.59868405797E+02  0.19659181635E+04  0.19672008723E+04  0.00000000000E+00 0. -1.
         22    1    3    3    0    0  0.28683783321E+02  0.99183143785E+01  0.10497100374E+03  0.10927050843E+03  0.00000000000E+00 0.  1.
         22    1    3    3    0    0 -0.79059971809E+01 -0.14609556317E+03  0.12018001382E+04  0.12106733624E+04  0.00000000000E+00 0.  1.
</event>
<event>
 7    1  0.5950675E-006  0.5560454E+02  0.7818608E-02  0.1438791E+00
          2   -1    0    0  502    0  0.00000000000E+00  0.00000000000E+00  0.32379692400E+03  0.32379692400E+03  0.00000000000E+00 0. -1.
          1   -1    0    0  501    0 -0.00000000000E+00 -0.00000000000E+00 -0.20391119995E+03  0.20391119995E+03  0.00000000000E+00 0. -1.
         25    2    1    2    0    0 -0.51691132945E+02 -0.71668366504E+02  0.73099225809E+02  0.16963567360E+03  0.12499774783E+03 0.  0.
          2    1    1    2  501    0  0.38737369297E+01  0.47049838612E+02 -0.14833927377E+03  0.15567027106E+03  0.00000000000E+00 0. -1.
          1    1    1    2  502    0  0.47817396016E+02  0.24618527892E+02  0.19512577200E+03  0.20240217928E+03  0.00000000000E+00 0. -1.
         22    1    3    3    0    0 -0.44611619373E+00 -0.61794511041E+02 -0.18246001308E+02  0.64433509745E+02  0.00000000000E+00 0.  1.
         22    1    3    3    0    0 -0.51245016752E+02 -0.98738554630E+01  0.91345227116E+02  0.10520216386E+03  0.00000000000E+00 0.  1.
</event>
<event>
 7    1  0.5950675E-006  0.1032780E+03  0.7818608E-02  0.1292920E+00
          2   -1    0    0  502    0  0.00000000000E+00  0.00000000000E+00  0.25509472146E+04  0.25509472146E+04  0.00000000000E+00 0. -1.
          1   -1    0    0  501    0 -0.00000000000E+00 -0.00000000000E+00 -0.66535499216E+03  0.66535499216E+03  0.00000000000E+00 0. -1.
         25    2    1    2    0    0  0.18702847921E+02  0.71626125669E+01  0.43381674604E+01  0.12666745042E+03  0.12499889504E+03 0.  0.
          2    1    1    2  501    0  0.85957216796E+02 -0.17260176038E+01 -0.60002013426E+03  0.60614831830E+03  0.00000000000E+00 0. -1.
          1    1    1    2  502    0 -0.10466006472E+03 -0.54365949631E+01  0.24812741892E+04  0.24834864380E+04  0.00000000000E+00 0. -1.
         22    1    3    3    0    0  0.41600803480E+02 -0.49369150564E+02 -0.58704609210E+01  0.64825937626E+02  0.00000000000E+00 0.  1.
         22    1    3    3    0    0 -0.22897955559E+02  0.56531763131E+02  0.10208628381E+02  0.61841512796E+02  0.00000000000E+00 0.  1.
</event>
<event>
 7    1  0.5950675E-006  0.4033394E+02  0.7818608E-02  0.1579459E+00
          2   -1    0    0  502    0  0.00000000000E+00  0.00000000000E+00  0.97271337065E+03  0.97271337065E+03  0.00000000000E+00 0. -1.
          1   -1    0    0  501    0 -0.00000000000E+00 -0.00000000000E+00 -0.38112113951E+02  0.38112113951E+02  0.00000000000E+00 0. -1.
         25    2    1    2    0    0  0.24185551948E+02  0.59341538048E+02  0.25740996019E+03  0.29324289086E+03  0.12500058549E+03 0.  0.
          2    1    1    2  501    0 -0.12971993799E+02 -0.21372556417E+02 -0.11665674357E+02  0.27588888146E+02  0.00000000000E+00 0. -1.
          1    1    1    2  502    0 -0.11213558150E+02 -0.37968981631E+02  0.68885697086E+03  0.68999370559E+03  0.00000000000E+00 0. -1.
         22    1    3    3    0    0 -0.36650062008E+02 -0.10023245395E+02  0.31979602763E+02  0.49662737403E+02  0.00000000000E+00 0. -1.
         22    1    3    3    0    0  0.60835613956E+02  0.69364783444E+02  0.22543035743E+03  0.24358015345E+03  0.00000000000E+00 0. -1.
</event>
<event>
 7    1  0.5950675E-006  0.7794390E+02  0.7818608E-02  0.1423156E+00
          2   -1    0    0  502    0  0.00000000000E+00  0.00000000000E+00  0.18419035490E+04  0.18419035490E+04  0.00000000000E+00 0. -1.
          1   -1    0    0  501    0 -0.00000000000E+00 -0.00000000000E+00 -0.15723280291E+03  0.15723280291E+03  0.00000000000E+00 0. -1.
         25    2    1    2    0    0  0.86977003026E+01 -0.11379388742E+03  0.10388767278E+02  0.16957834490E+03  0.12499675903E+03 0.  0.
          2    1    1    2  501    0  0.53917132995E+01  0.37524848671E+02 -0.72097583693E+02  0.81457021885E+02  0.00000000000E+00 0. -1.
          1    1    1    2  502    0 -0.14089413602E+02  0.76269038746E+02  0.17463795625E+04  0.17481009851E+04  0.00000000000E+00 0. -1.
         22    1    3    3    0    0 -0.40375071107E+02 -0.61516997085E+02 -0.38255775728E+02  0.82933658269E+02  0.00000000000E+00 0.  1.
         22    1    3    3    0    0  0.49072771410E+02 -0.52276890332E+02  0.48644543006E+02  0.86644686628E+02  0.00000000000E+00 0.  1.
</event>
<event>
 7    1  0.5950675E-006  0.4050739E+02  0.7818608E-02  0.1583698E+00
          2   -1    0    0  502    0  0.00000000000E+00  0.00000000000E+00  0.19421728815E+03  0.19421728815E+03  0.00000000000E+00 0. -1.
          1   -1    0    0  501    0 -0.00000000000E+00 -0.00000000000E+00 -0.18793934275E+03  0.18793934275E+03  0.00000000000E+00 0. -1.
         25    2    1    2    0    0  0.14922826365E+02  0.12583525892E+02 -0.11258435326E+03  0.16935918974E+03  0.12500505061E+03 0.  0.
          2    1    1    2  501    0  0.33771480721E+01  0.24016098726E+02 -0.41079390124E+02  0.47704239015E+02  0.00000000000E+00 0. -1.
          1    1    1    2  502    0 -0.18299974437E+02 -0.36599624618E+02  0.15994168878E+03  0.16509320215E+03  0.00000000000E+00 0. -1.
         22    1    3    3    0    0  0.65861919134E+02  0.26539162152E+02 -0.47006834384E+02  0.85157278013E+02  0.00000000000E+00 0. -1.
         22    1    3    3    0    0 -0.50939092769E+02 -0.13955636261E+02 -0.65577518877E+02  0.84201911722E+02  0.00000000000E+00 0. -1.
</event>
<event>
 7    1  0.5950675E-006  0.1248273E+03  0.7818608E-02  0.1338369E+00
          2   -1    0    0  502    0  0.00000000000E+00  0.00000000000E+00  0.24348231968E+04  0.24348231968E+04  0.00000000000E+00 0. -1.
          1   -1    0    0  501    0 -0.00000000000E+00 -0.00000000000E+00 -0.26038818054E+03  0.26038818054E+03  0.00000000000E+00 0. -1.
         25    2    1    2    0    0 -0.53541459112E+02 -0.75348993036E+02  0.12179119613E+04  0.12277932144E+04  0.12498989191E+03 0.  0.
          2    1    1    2  501    0  0.10079072283E+03  0.74427283349E+02 -0.23958941129E+03  0.27037247700E+03  0.00000000000E+00 0. -1.
          1    1    1    2  502    0 -0.47249263719E+02  0.92170968722E+00  0.11961124662E+04  0.11970456860E+04  0.00000000000E+00 0. -1.
         22    1    3    3    0    0  0.79258011989E+01 -0.91342400802E+02  0.75380974861E+03  0.75936512273E+03  0.00000000000E+00 0. -1.
         22    1    3    3    0    0 -0.61467260311E+02  0.15993407766E+02  0.46410221274E+03  0.46842809165E+03  0.00000000000E+00 0. -1.
</event>
<event>
 7    1  0.5950675E-006  0.9559838E+02  0.7818608E-02  0.1344482E+00
          2   -1    0    0  502    0  0.00000000000E+00  0.00000000000E+00  0.10233142405E+04  0.10233142405E+04  0.00000000000E+00 0. -1.
          1   -1    0    0  501    0 -0.00000000000E+00 -0.00000000000E+00 -0.11714797773E+04  0.11714797773E+04  0.00000000000E+00 0. -1.
         25    2    1    2    0    0  0.10819635598E+02  0.53201399070E+02  0.28271981685E+02  0.13917869230E+03  0.12499580018E+03 0.  0.
          2    1    1    2  501    0  0.55425882735E+02  0.18811359262E+02 -0.11127076740E+04  0.11142460516E+04  0.00000000000E+00 0. -1.
          1    1    1    2  502    0 -0.66245518333E+02 -0.72012758332E+02  0.93627015545E+03  0.94136927401E+03  0.00000000000E+00 0. -1.
         22    1    3    3    0    0  0.43466679287E+02  0.50864548171E+02 -0.29230512080E+02  0.73013541931E+02  0.00000000000E+00 0.  1.
         22    1    3    3    0    0 -0.32647043689E+02  0.23368508990E+01  0.57502493765E+02  0.66165150366E+02  0.00000000000E+00 0.  1.
</event>
<event>
 7    1  0.5950675E-006  0.9173282E+02  0.7818608E-02  0.1315759E+00
          2   -1    0    0  502    0  0.00000000000E+00  0.00000000000E+00  0.79267425000E+03  0.79267425000E+03  0.00000000000E+00 0. -1.
          1   -1    0    0  501    0 -0.00000000000E+00 -0.00000000000E+00 -0.40524380390E+03  0.40524380390E+03  0.00000000000E+00 0. -1.
         25    2    1    2    0    0  0.27950052598E+02  0.15726046425E+02 -0.12566085632E+02  0.12965963591E+03  0.12500080280E+03 0.  0.
          2    1    1    2  501    0 -0.98714396612E+02  0.18324009211E+02 -0.32441850573E+03  0.33959927602E+03  0.00000000000E+00 0. -1.
          1    1    1    2  502    0  0.70764344013E+02 -0.34050055636E+02  0.72441503747E+03  0.72865914197E+03  0.00000000000E+00 0. -1.
         22    1    3    3    0    0  0.76529833071E+02 -0.36282947644E+01 -0.10433065778E+02  0.77322886226E+02  0.00000000000E+00 0.  1.
         22    1    3    3    0    0 -0.48579780473E+02  0.19354341189E+02 -0.21330198540E+01  0.52336749683E+02  0.00000000000E+00 0.  1.
</event>
<event>
 7    1  0.5950675E-006  0.8106148E+02  0.7818608E-02  0.1405999E+00
          2   -1    0    0  502    0  0.00000000000E+00  0.00000000000E+00  0.85587855035E+03  0.85587855035E+03  0.00000000000E+00 0. -1.
          1   -1    0    0  501    0 -0.00000000000E+00 -0.00000000000E+00 -0.67531636874E+02  0.67531636874E+02  0.00000000000E+00 0. -1.
         25    2    1    2    0    0 -0.60595533000E+02  0.20560574129E+02  0.19649585206E+03  0.24151623263E+03  0.12499965967E+03 0.  0.
          2    1    1    2  501    0  0.58729940541E+02 -0.62155957009E+02 -0.30206131832E+01  0.85566892030E+02  0.00000000000E+00 0. -1.
          1    1    1    2  502    0  0.18655924586E+01  0.41595382879E+02  0.59487167460E+03  0.59632706257E+03  0.00000000000E+00 0. -1.
         22    1    3    3    0    0  0.12060291196E+02  0.49208488949E+02  0.33394872959E+02  0.60680668654E+02  0.00000000000E+00 0. -1.
         22    1    3    3    0    0 -0.72655824195E+02 -0.28647914820E+02  0.16310097910E+03  0.18083556397E+03  0.00000000000E+00 0. -1.
</event>
<event>
 7    1  0.5950675E-006  0.5913693E+02  0.7818608E-02  0.1545090E+00
          2   -1    0    0  502    0  0.00000000000E+00  0.00000000000E+00  0.45726318504E+03  0.45726318504E+03  0.00000000000E+00 0. -1.
          1   -1    0    0  501    0 -0.00000000000E+00 -0.00000000000E+00 -0.11014156806E+04  0.11014156806E+04  0.00000000000E+00 0. -1.
         25    2    1    2    0    0  0.67854224467E+02 -0.22109969096E+02  0.95056728184E+02  0.17248488359E+03  0.12498882742E+03 0.  0.
          2    1    1    2  501    0 -0.59008146265E+02  0.28559121699E+01 -0.10615324301E+04  0.10631750644E+04  0.00000000000E+00 0. -1.
          1    1    1    2  502    0 -0.88460782024E+01  0.19254056926E+02  0.32232320632E+03  0.32301891762E+03  0.00000000000E+00 0. -1.
         22    1    3    3    0    0  0.26649019460E+02 -0.53162395192E+02 -0.52367938485E+01  0.59697860184E+02  0.00000000000E+00 0. -1.
         22    1    3    3    0    0  0.41205205007E+02  0.31052426096E+02  0.10029352203E+03  0.11278702340E+03  0.00000000000E+00 0. -1.
</event>
<event>
 7    1  0.5950675E-006  0.6631446E+02  0.7818608E-02  0.1504902E+00
          2   -1    0    0  502    0  0.00000000000E+00  0.00000000000E+00  0.40357707585E+03  0.40357707585E+03  0.00000000000E+00 0. -1.
          1   -1    0    0  501    0 -0.00000000000E+00 -0.00000000000E+00 -0.21632505857E+03  0.21632505857E+03  0.00000000000E+00 0. -1.
         25    2    1    2    0    0  0.54671214543E+02  0.69618079779E+02  0.20007656816E+03  0.25197644476E+03  0.12500350737E+03 0.  0.
          2    1    1    2  501    0 -0.33830698378E+02 -0.56402828169E+02 -0.18378200323E+03  0.19519636239E+03  0.00000000000E+00 0. -1.
          1    1    1    2  502    0 -0.20840516165E+02 -0.13215251610E+02  0.17095745234E+03  0.17272932727E+03  0.00000000000E+00 0. -1.
         22    1    3    3    0    0  0.59021691776E+02 -0.15437295592E+02  0.12215499441E+03  0.13654198202E+03  0.00000000000E+00 0.  1.
         22    1    3    3    0    0 -0.43504772325E+01  0.85055375371E+02  0.77921573752E+02  0.11543446274E+03  0.00000000000E+00 0.  1.
</event>
<event>
 7    1  0.5950675E-006  0.2498082E+03  0.7818608E-02  0.1237727E+00
          2   -1    0    0  502    0  0.00000000000E+00  0.00000000000E+00  0.79130755272E+03  0.79130755272E+03  0.00000000000E+00 0. -1.
          1   -1    0    0  501    0 -0.00000000000E+00 -0.00000000000E+00 -0.16499656117E+03  0.16499656117E+03  0.00000000000E+00 0. -1.
         25    2    1    2    0    0 -0.20433289032E+03  0.17404533011E+03  0.13799448663E+03  0.32667027103E+03  0.12500912221E+03 0.  0.
          2    1    1    2  501    0  0.20696364076E+03 -0.11322962731E+03  0.13643131273E+03  0.27252229302E+03  0.00000000000E+00 0. -1.
          1    1    1    2  502    0 -0.26307504420E+01 -0.60815702800E+02  0.35188519218E+03  0.35711154985E+03  0.00000000000E+00 0. -1.
         22    1    3    3    0    0 -0.19703018040E+03  0.14868888368E+03  0.74382135399E+02  0.25780220748E+03  0.00000000000E+00 0.  1.
         22    1    3    3    0    0 -0.73027099265E+01  0.25356446425E+02  0.63612351228E+02  0.68868063545E+02  0.00000000000E+00 0.  1.
</event>
<event>
 7    1  0.5950675E-006  0.7458625E+02  0.7818608E-02  0.1374261E+00
          2   -1    0    0  502    0  0.00000000000E+00  0.00000000000E+00  0.16379778400E+04  0.16379778400E+04  0.00000000000E+00 0. -1.
          1   -1    0    0  501    0 -0.00000000000E+00 -0.00000000000E+00 -0.24682874536E+02  0.24682874536E+02  0.00000000000E+00 0. -1.
         25    2    1    2    0    0  0.35349803024E+02  0.27713386348E+02  0.94558602460E+03  0.95487003470E+03  0.12500485147E+03 0.  0.
          2    1    1    2  501    0  0.32103758841E+02 -0.67323522464E+02  0.61826323692E+02  0.96879318278E+02  0.00000000000E+00 0. -1.
          1    1    1    2  502    0 -0.67453561865E+02  0.39610136116E+02  0.60588261720E+03  0.61091136159E+03  0.00000000000E+00 0. -1.
         22    1    3    3    0    0 -0.19152571225E+02 -0.36388431815E+02  0.17809549585E+03  0.18278113852E+03  0.00000000000E+00 0.  1.
         22    1    3    3    0    0  0.54502374249E+02  0.64101818163E+02  0.76749052875E+03  0.77208889618E+03  0.00000000000E+00 0.  1.
</event>
<event>
 7    1  0.5950675E-006  0.1410430E+03  0.7818608E-02  0.1259629E+00
          2   -1    0    0  502    0  0.00000000000E+00  0.00000000000E+00  0.10412676373E+04  0.10412676373E+04  0.00000000000E+00 0. -1.
          1   -1    0    0  501    0 -0.00000000000E+00 -0.00000000000E+00 -0.22743463834E+03  0.22743463834E+03  0.00000000000E+00 0. -1.
         25    2    1    2    0    0  0.79260843562E+02 -0.28537833496E+02  0.58705546430E+03  0.60609992444E+03  0.12500524378E+03 0.  0.
          2    1    1    2  501    0 -0.86761245822E+02  0.11479827982E+03 -0.18920323597E+03  0.23770574947E+03  0.00000000000E+00 0. -1.
          1    1    1    2  502    0  0.75004022598E+01 -0.86260446326E+02  0.41598077065E+03  0.42489660176E+03  0.00000000000E+00 0. -1.
         22    1    3    3    0    0  0.10273407913E+03 -0.50213526863E+02  0.38809673031E+03  0.40459209257E+03  0.00000000000E+00 0. -1.
         22    1    3    3    0    0 -0.23473235566E+02  0.21675693367E+02  0.19895873399E+03  0.20150783186E+03  0.00000000000E+00 0. -1.
</event>
<event>
 7    1  0.5950675E-006  0.9067597E+02  0.7818608E-02  0.1321987E+00
          2   -1    0    0  502    0  0.00000000000E+00  0.00000000000E+00  0.32737645425E+04  0.32737645425E+04  0.00000000000E+00 0. -1.
          1   -1    0    0  501    0 -0.00000000000E+00 -0.00000000000E+00 -0.28190043654E+03  0.28190043654E+03  0.00000000000E+00 0. -1.
         25    2    1    2    0    0  0.30908212028E+02 -0.10699280799E+02  0.59689963338E+03  0.61072395854E+03  0.12499915607E+03 0.  0.
          2    1    1    2  501    0  0.26216690690E+02 -0.70416359355E+02 -0.26891480817E+03  0.27921488604E+03  0.00000000000E+00 0. -1.
          1    1    1    2  502    0 -0.57124902718E+02  0.81115640153E+02  0.26638792807E+04  0.26657261344E+04  0.00000000000E+00 0. -1.
         22    1    3    3    0    0 -0.21663676450E+02 -0.87569033374E+01  0.49932105106E+03  0.49986749271E+03  0.00000000000E+00 0.  1.
         22    1    3    3    0    0  0.52571888478E+02 -0.19423774613E+01  0.97578582321E+02  0.11085646583E+03  0.00000000000E+00 0.  1.
</event>
<event>
 7    1  0.5950675E-006  0.5978303E+02  0.7818608E-02  0.1459354E+00
          2   -1    0    0  502    0  0.00000000000E+00  0.00000000000E+00  0.98927704087E+03  0.98927704087E+03  0.00000000000E+00 0. -1.
          1   -1    0    0  501    0 -0.00000000000E+00 -0.00000000000E+00 -0.70953481553E+03  0.70953481553E+03  0.00000000000E+00 0. -1.
         25    2    1    2    0    0  0.43815568920E+02 -0.45838351822E+02 -0.17044786520E+03  0.22067764300E+03  0.12500075517E+03 0.  0.
          2    1    1    2  501    0  0.14948744231E+02  0.34641415466E+02 -0.51234983412E+03  0.51373713623E+03  0.00000000000E+00 0. -1.
          1    1    1    2  502    0 -0.58764313151E+02  0.11196936356E+02  0.96253992466E+03  0.96439707716E+03  0.00000000000E+00 0. -1.
         22    1    3    3    0    0  0.31986682686E+02  0.14992609706E+02 -0.15195444900E+03  0.15600666905E+03  0.00000000000E+00 0.  1.
         22    1    3    3    0    0  0.11828886234E+02 -0.60830961528E+02 -0.18493416197E+02  0.64670973957E+02  0.00000000000E+00 0.  1.
</event>
<event>
 7    1  0.5950675E-006  0.9622871E+02  0.7818608E-02  0.1369596E+00
          2   -1    0    0  502    0  0.00000000000E+00  0.00000000000E+00  0.70091007791E+03  0.70091007791E+03  0.00000000000E+00 0. -1.
          1   -1    0    0  501    0 -0.00000000000E+00 -0.00000000000E+00 -0.13419452303E+03  0.13419452303E+03  0.00000000000E+00 0. -1.
         25    2    1    2    0    0  0.76583440823E+02 -0.99355793836E+02  0.31492578600E+03  0.36130399422E+03  0.12500291347E+03 0.  0.
          2    1    1    2  501    0 -0.33630186093E+01  0.46919192000E+02 -0.10008253535E+03  0.11058586869E+03  0.00000000000E+00 0. -1.
          1    1    1    2  502    0 -0.73220422213E+02  0.52436601836E+02  0.35187230422E+03  0.36321473802E+03  0.00000000000E+00 0. -1.
         22    1    3    3    0    0  0.10130534408E+03 -0.83039527419E+02  0.17679900917E+03  0.22003687304E+03  0.00000000000E+00 0. -1.
         22    1    3    3    0    0 -0.24721903253E+02 -0.16316266416E+02  0.13812677683E+03  0.14126712119E+03  0.00000000000E+00 0. -1.
</event>
<event>
 7    1  0.5950675E-006  0.2804935E+02  0.7818608E-02  0.1624749E+00
          2   -1    0    0  502    0  0.00000000000E+00  0.00000000000E+00  0.29526634663E+03  0.29526634663E+03  0.00000000000E+00 0. -1.
          1   -1    0    0  501    0 -0.00000000000E+00 -0.00000000000E+00 -0.61341419542E+03  0.61341419542E+03  0.00000000000E+00 0. -1.
         25    2    1    2    0    0 -0.18846378853E+02 -0.65431987038E+01  0.19712545258E+01  0.12659834509E+03  0.12500102276E+03 0.  0.
          2    1    1    2  501    0  0.16713882607E+02 -0.21705304590E+02 -0.54988978099E+03  0.55057174406E+03  0.00000000000E+00 0. -1.
          1    1    1    2  502    0  0.21324962453E+01  0.28248503293E+02  0.22977067767E+03  0.23151045289E+03  0.00000000000E+00 0. -1.
         22    1    3    3    0    0 -0.43323082014E+01  0.23793158996E+02 -0.55202327892E+02  0.60267572658E+02  0.00000000000E+00 0. -1.
         22    1    3    3    0    0 -0.14514070651E+02 -0.30336357700E+02  0.57173582418E+02  0.66330772435E+02  0.00000000000E+00 0. -1.
</event>
<event>
 7    1  0.5950675E-006  0.7683238E+02  0.7818608E-02  0.1415943E+00
          2   -1    0    0  502    0  0.00000000000E+00  0.00000000000E+00  0.13460675869E+04  0.13460675869E+04  0.00000000000E+00 0. -1.
          1   -1    0    0  501    0 -0.00000000000E+00 -0.00000000000E+00 -0.88534159312E+03  0.88534159312E+03  0.00000000000E+00 0. -1.
         25    2    1    2    0    0  0.68091476403E+02  0.79658133571E+02  0.92729425638E+03  0.94153160391E+03  0.12500102332E+03 0.  0.
          2    1    1    2  501    0 -0.66121039935E+02 -0.39051956724E+02 -0.87553446857E+03  0.87889570081E+03  0.00000000000E+00 0. -1.
          1    1    1    2  502    0 -0.19704364681E+01 -0.40606176847E+02  0.40896620593E+03  0.41098187528E+03  0.00000000000E+00 0. -1.
         22    1    3    3    0    0  0.62975632599E+02  0.78709520825E+01  0.18156445416E+03  0.19233703024E+03  0.00000000000E+00 0.  1.
         22    1    3    3    0    0  0.51158438043E+01  0.71787181488E+02  0.74572980222E+03  0.74919457366E+03  0.00000000000E+00 0.  1.
</event>
<event>
 7    1  0.5950675E-006  0.9565148E+02  0.7818608E-02  0.1340848E+00
          2   -1    0    0  502    0  0.00000000000E+00  0.00000000000E+00  0.22456538707E+04  0.22456538707E+04  0.00000000000E+00 0. -1.
          1   -1    0    0  501    0 -0.00000000000E+00 -0.00000000000E+00 -0.43170005802E+03  0.43170005802E+03  0.00000000000E+00 0. -1.
         25    2    1    2    0    0 -0.10839874641E+03 -0.72002030738E+02 -0.34512769918E+02  0.18371411227E+03  0.12500065243E+03 0.  0.
          2    1    1    2  501    0  0.48558306762E+02  0.79918119480E+02 -0.31537978236E+03  0.32895170177E+03  0.00000000000E+00 0. -1.
          1    1    1    2  502    0  0.59840439647E+02 -0.79160887418E+01  0.21638463649E+04  0.21646881146E+04  0.00000000000E+00 0. -1.
         22    1    3    3    0    0  0.14269265264E+01  0.19954678798E+02  0.21993761635E+02  0.29731311376E+02  0.00000000000E+00 0. -1.
         22    1    3    3    0    0 -0.10982567294E+03 -0.91956709536E+02 -0.56506531553E+02  0.15398280090E+03  0.00000000000E+00 0. -1.
</event>
<event>
 7    1  0.5950675E-006  0.6869968E+02  0.7818608E-02  0.1381965E+00
          2   -1    0    0  502    0  0.00000000000E+00  0.00000000000E+00  0.39940827493E+04  0.39940827493E+04  0.00000000000E+00 0. -1.
          1   -1    0    0  501    0 -0.00000000000E+00 -0.00000000000E+00 -0.36780441923E+03  0.36780441923E+03  0.00000000000E+00 0. -1.
         25    2    1    2    0    0 -0.10984807088E+03  0.24472150496E+02 -0.27663890490E+03  0.32374783873E+03  0.12497237516E+03 0.  0.
          2    1    1    2  501    0  0.43190674325E+02 -0.40966567920E+02 -0.54151946455E+02  0.80474389347E+02  0.00000000000E+00 0. -1.
          1    1    1    2  502    0  0.66657396555E+02  0.16494417424E+02  0.39570691814E+04  0.39576649404E+04  0.00000000000E+00 0. -1.
         22    1    3    3    0    0  0.15085816319E+02 -0.82401870069E+01 -0.11772944510E+03  0.11897774910E+03  0.00000000000E+00 0.  1.
         22    1    3    3    0    0 -0.12493388720E+03  0.32712337503E+02 -0.15890945980E+03  0.20477008963E+03  0.00000000000E+00 0.  1.
</event>
<event>
 7    1  0.5950675E-006  0.9599966E+02  0.7818608E-02  0.1318158E+00
          2   -1    0    0  502    0  0.00000000000E+00  0.00000000000E+00  0.15641686841E+04  0.15641686841E+04  0.00000000000E+00 0. -1.
          1   -1    0    0  501    0 -0.00000000000E+00 -0.00000000000E+00 -0.10611383691E+03  0.10611383691E+03  0.00000000000E+00 0. -1.
         25    2    1    2    0    0  0.89459618025E+02 -0.10428263244E+02  0.88424708904E+03  0.89756648158E+03  0.12498360870E+03 0.  0.
          2    1    1    2  501    0  0.12275003114E+01  0.73431394144E+02 -0.80609129954E+02  0.10904819226E+03  0.00000000000E+00 0. -1.
          1    1    1    2  502    0 -0.90687118336E+02 -0.63003130900E+02  0.65441688807E+03  0.66366784714E+03  0.00000000000E+00 0. -1.
         22    1    3    3    0    0 -0.10109150540E+02  0.22964769386E+02  0.45381062848E+03  0.45450375365E+03  0.00000000000E+00 0.  1.
         22    1    3    3    0    0  0.99568768565E+02 -0.33393032630E+02  0.43043646056E+03  0.44306272793E+03  0.00000000000E+00 0.  1.
</event>
<event>
 7    1  0.5950675E-006  0.1259021E+03  0.7818608E-02  0.1277031E+00
          2   -1    0    0  502    0  0.00000000000E+00  0.00000000000E+00  0.20323542414E+04  0.20323542414E+04  0.00000000000E+00 0. -1.
          1   -1    0    0  501    0 -0.00000000000E+00 -0.00000000000E+00 -0.25841527475E+04  0.25841527475E+04  0.00000000000E+00 0. -1.
         25    2    1    2    0    0  0.18799738467E+03 -0.73144500760E+01 -0.26631677314E+03  0.34920719910E+03  0.12499810569E+03 0.  0.
          2    1    1    2  501    0 -0.11842868728E+03 -0.35976148692E+02 -0.22738639090E+04  0.22772300530E+04  0.00000000000E+00 0. -1.
          1    1    1    2  502    0 -0.69568697390E+02  0.43290598768E+02  0.19883821760E+04  0.19900697368E+04  0.00000000000E+00 0. -1.
         22    1    3    3    0    0  0.13338731729E+03  0.28470852020E+02 -0.24520982204E+03  0.28058977646E+03  0.00000000000E+00 0.  1.
         22    1    3    3    0    0  0.54610067381E+02 -0.35785302096E+02 -0.21106951100E+02  0.68617422643E+02  0.00000000000E+00 0.  1.
</event>
<event>
 7    1  0.5950675E-006  0.1020945E+03  0.7818608E-02  0.1349175E+00
          2   -1    0    0  502    0  0.00000000000E+00  0.00000000000E+00  0.72211078621E+02  0.72211078621E+02  0.00000000000E+00 0. -1.
          1   -1    0    0  501    0 -0.00000000000E+00 -0.00000000000E+00 -0.14028639665E+04  0.14028639665E+04  0.00000000000E+00 0. -1.
         25    2    1    2    0    0 -0.18114617185E+01 -0.60622666475E+02 -0.33258760278E+03  0.36043963189E+03  0.12499530242E+03 0.  0.
          2    1    1    2  501    0 -0.30365101128E+02 -0.43006562228E+02 -0.10045533727E+04  0.10059319472E+04  0.00000000000E+00 0. -1.
          1    1    1    2  502    0  0.32176562847E+02  0.10362922870E+03  0.64880876581E+01  0.10870346600E+03  0.00000000000E+00 0. -1.
         22    1    3    3    0    0 -0.23313717052E+02 -0.34739385814E+02 -0.20584072290E+02  0.46626798749E+02  0.00000000000E+00 0. -1.
         22    1    3    3    0    0  0.21502255334E+02 -0.25883280661E+02 -0.31200353049E+03  0.31381283314E+03  0.00000000000E+00 0. -1.
</event>
<event>
 7    1  0.5950675E-006  0.1054004E+03  0.7818608E-02  0.1357045E+00
          2   -1    0    0  502    0  0.00000000000E+00  0.00000000000E+00  0.15968137049E+04  0.15968137049E+04  0.00000000000E+00 0. -1.
          1   -1    0    0  501    0 -0.00000000000E+00 -0.00000000000E+00 -0.17131817785E+03  0.17131817785E+03  0.00000000000E+00 0. -1.
         25    2    1    2    0    0  0.12083031716E+03  0.81089932354E+02  0.38840333696E+03  0.43319233605E+03  0.12499162044E+03 0.  0.
          2    1    1    2  501    0 -0.73848773012E+02 -0.72853363882E+02 -0.13031234794E+03  0.16656098562E+03  0.00000000000E+00 0. -1.
          1    1    1    2  502    0 -0.46981544147E+02 -0.82365684717E+01  0.11674045380E+04  0.11683785611E+04  0.00000000000E+00 0. -1.
         22    1    3    3    0    0  0.83670725990E+02  0.11428258214E+03  0.29871018207E+03  0.33058897719E+03  0.00000000000E+00 0. -1.
         22    1    3    3    0    0  0.37159591170E+02 -0.33192649786E+02  0.89693154890E+02  0.10260335886E+03  0.00000000000E+00 0. -1.
</event>
<event>
 7    1  0.5950675E-006  0.3305952E+02  0.7818608E-02  0.1641828E+00
          2   -1    0    0  502    0  0.00000000000E+00  0.00000000000E+00  0.67282643419E+03  0.67282643419E+03  0.00000000000E+00 0. -1.
          1   -1    0    0  501    0 -0.00000000000E+00 -0.00000000000E+00 -0.11426200630E+03  0.11426200630E+03  0.00000000000E+00 0. -1.
         25    2    1    2    0    0  0.34816024551E+02  0.28190660796E+02  0.14310530678E+03  0.19521997214E+03  0.12499935909E+03 0.  0.
          2    1    1    2  501    0 -0.13821331948E+02 -0.29886343155E+02 -0.84902336106E+02  0.91063875386E+02  0.00000000000E+00 0. -1.
          1    1    1    2  502    0 -0.20994692603E+02  0.16956823588E+01  0.50036145722E+03  0.50080459296E+03  0.00000000000E+00 0. -1.
         22    1    3    3    0    0  0.21519349900E+02 -0.45435343339E+02  0.91272218862E+02  0.10420206706E+03  0.00000000000E+00 0. -1.
         22    1    3    3    0    0  0.13296674651E+02  0.73626004135E+02  0.51833087920E+02  0.91017905079E+02  0.00000000000E+00 0. -1.
</event>
<event>
 7    1  0.5950675E-006  0.1486309E+03  0.7818608E-02  0.1261190E+00
          2   -1    0    0  502    0  0.00000000000E+00  0.00000000000E+00  0.38087476417E+03  0.38087476417E+03  0.00000000000E+00 0. -1.
          1   -1    0    0  501    0 -0.00000000000E+00 -0.00000000000E+00 -0.20308246312E+04  0.20308246312E+04  0.00000000000E+00 0. -1.
         25    2    1    2    0    0  0.18936584312E+03  0.12023723060E+03 -0.25505168064E+03  0.36193123164E+03  0.12500576976E+03 0.  0.
          2    1    1    2  501    0 -0.11622585969E+03 -0.85627123470E+02 -0.17142535586E+04  0.17203213996E+04  0.00000000000E+00 0. -1.
          1    1    1    2  502    0 -0.73139983426E+02 -0.34610107135E+02  0.31935537217E+03  0.32944676417E+03  0.00000000000E+00 0. -1.
         22    1    3    3    0    0  0.55798819990E+02  0.15403318916E+02 -0.29238731064E+01  0.57959637506E+02  0.00000000000E+00 0.  1.
         22    1    3    3    0    0  0.13356702313E+03  0.10483391169E+03 -0.25212780753E+03  0.30397159413E+03  0.00000000000E+00 0.  1.
</event>
<event>
 7    1  0.5950675E-006  0.1521353E+03  0.7818608E-02  0.1198156E+00
          2   -1    0    0  502    0  0.00000000000E+00  0.00000000000E+00  0.16377952272E+04  0.16377952272E+04  0.00000000000E+00 0. -1.
          1   -1    0    0  501    0 -0.00000000000E+00 -0.00000000000E+00 -0.39902655661E+03  0.39902655661E+03  0.00000000000E+00 0. -1.
         25    2    1    2    0    0  0.36664642955E+01 -0.81709999657E+02 -0.28627834410E+03  0.32290837889E+03  0.12499825541E+03 0.  0.
          2    1    1    2  501    0  0.14526590643E+03  0.43596162046E+02 -0.27187871272E+02  0.15408435761E+03  0.00000000000E+00 0. -1.
          1    1    1    2  502    0 -0.14893237072E+03  0.38113837610E+02  0.15522348860E+04  0.15598290473E+04  0.00000000000E+00 0. -1.
         22    1    3    3    0    0 -0.25393035903E+02 -0.16479009644E+02 -0.23000793101E+03  0.23199140579E+03  0.00000000000E+00 0.  1.
         22    1    3    3    0    0  0.29059500198E+02 -0.65230990013E+02 -0.56270413086E+02  0.90916973106E+02  0.00000000000E+00 0.  1.
</event>
<event>
 7    1  0.5950675E-006  0.3083580E+02  0.7818608E-02  0.1653264E+00
          2   -1    0    0  502    0  0.00000000000E+00  0.00000000000E+00  0.26604000162E+03  0.26604000162E+03  0.00000000000E+00 0. -1.
          1   -1    0    0  501    0 -0.00000000000E+00 -0.00000000000E+00 -0.15199558930E+03  0.15199558930E+03  0.00000000000E+00 0. -1.
         25    2    1    2    0    0  0.22820758500E+02 -0.31135549251E+02  0.54218810009E+02  0.14161391140E+03  0.12499844439E+03 0.  0.
          2    1    1    2  501    0 -0.21161852408E+02  0.40000597622E+00 -0.10583251706E+03  0.10792824315E+03  0.00000000000E+00 0. -1.
          1    1    1    2  502    0 -0.16589060913E+01  0.30735543275E+02  0.16565811936E+03  0.16849343637E+03  0.00000000000E+00 0. -1.
         22    1    3    3    0    0 -0.14574173172E+02 -0.66222587691E+02  0.11481820615E+01  0.67817077246E+02  0.00000000000E+00 0.  1.
         22    1    3    3    0    0  0.37394931672E+02  0.35087038440E+02  0.53070627947E+02  0.73796834159E+02  0.00000000000E+00 0.  1.
</event>
<event>
 7    1  0.5950675E-006  0.1712504E+03  0.7818608E-02  0.1297333E+00
          2   -1    0    0  502    0  0.00000000000E+00  0.00000000000E+00  0.17008426578E+03  0.17008426578E+03  0.00000000000E+00 0. -1.
          1   -1    0    0  501    0 -0.00000000000E+00 -0.00000000000E+00 -0.16080514048E+04  0.16080514048E+04  0.00000000000E+00 0. -1.
         25    2    1    2    0    0  0.88722800109E+02 -0.97165290215E+02 -0.76531100653E+03  0.78653618363E+03  0.12500161025E+03 0.  0.
          2    1    1    2  501    0  0.48965918797E+02 -0.88937023777E+01 -0.78374871850E+03  0.78532720117E+03  0.00000000000E+00 0. -1.
          1    1    1    2  502    0 -0.13768871891E+03  0.10605899259E+03  0.11109258600E+03  0.20627228580E+03  0.00000000000E+00 0. -1.
         22    1    3    3    0    0 -0.77919346828E+01 -0.16559874219E+02 -0.39564673015E+03  0.39606979026E+03  0.00000000000E+00 0.  1.
         22    1    3    3    0    0  0.96514734792E+02 -0.80605415995E+02 -0.36966427637E+03  0.39046639336E+03  0.00000000000E+00 0.  1.
</event>
<event>
 7    1  0.5950675E-006  0.1133941E+03  0.7818608E-02  0.1320121E+00
          2   -1    0    0  502    0  0.00000000000E+00  0.00000000000E+00  0.17495236323E+04  0.17495236323E+04  0.00000000000E+00 0. -1.
          1   -1    0    0  501    0 -0.00000000000E+00 -0.00000000000E+00 -0.59325830960E+02  0.59325830960E+02  0.00000000000E+00 0. -1.
         25    2    1    2    0    0  0.17581356232E+02 -0.10345561350E+03  0.21339066557E+03  0.26864984590E+03  0.12499998198E+03 0.  0.
          2    1    1    2  501    0  0.42401488159E+02  0.11505166119E+03  0.90132020314E+02  0.15217934166E+03  0.00000000000E+00 0. -1.
          1    1    1    2  502    0 -0.59982844391E+02 -0.11596047692E+02  0.13866751155E+04  0.13880202757E+04  0.00000000000E+00 0. -1.
         22    1    3    3    0    0 -0.35126767104E+02 -0.40937312244E+02  0.16508745946E+03  0.17367677614E+03  0.00000000000E+00 0. -1.
         22    1    3    3    0    0  0.52708123336E+02 -0.62518301258E+02  0.48303206111E+02  0.94973069754E+02  0.00000000000E+00 0. -1.
</event>
<event>
 7    1  0.5950675E-006  0.1389092E+03  0.7818608E-02  0.1289130E+00
          2   -1    0    0  502    0  0.00000000000E+00  0.00000000000E+00  0.27901970290E+04  0.27901970290E+04  0.00000000000E+00 0. -1.
          1   -1    0    0  501    0 -0.00000000000E+00 -0.00000000000E+00 -0.11054700841E+03  0.11054700841E+03  0.00000000000E+00 0. -1.
         25    2    1    2    0    0 -0.13254210145E+03  0.12719045560E+03  0.14641175770E+04  0.14808816993E+04  0.12500202919E+03 0.  0.
          2    1    1    2  501    0  0.60897352437E+02 -0.26029221119E+02 -0.88174193982E+02  0.11027554747E+03  0.00000000000E+00 0. -1.
          1    1    1    2  502    0  0.71644749009E+02 -0.10116123448E+03  0.13037066375E+04  0.13095867906E+04  0.00000000000E+00 0. -1.
         22    1    3    3    0    0 -0.69748394983E+02  0.77565495191E+02  0.12092976257E+04  0.12137882814E+04  0.00000000000E+00 0.  1.
         22    1    3    3    0    0 -0.62793706463E+02  0.49624960409E+02  0.25481995136E+03  0.26709341789E+03  0.00000000000E+00 0.  1.
</event>
<event>
 7    1  0.5950675E-006  0.2044303E+03  0.7818608E-02  0.1202695E+00
          2   -1    0    0  502    0  0.00000000000E+00  0.00000000000E+00  0.45116621841E+03  0.45116621841E+03  0.00000000000E+00 0. -1.
          1   -1    0    0  501    0 -0.00000000000E+00 -0.00000000000E+00 -0.12099180104E+04  0.12099180104E+04  0.00000000000E+00 0. -1.
         25    2    1    2    0    0  0.15335025717E+03 -0.10381815877E+03 -0.75310306326E+02  0.23577996710E+03  0.12500415667E+03 0.  0.
          2    1    1    2  501    0 -0.89323028157E+02  0.19010150093E+03 -0.10358241062E+04  0.10569052762E+04  0.00000000000E+00 0. -1.
          1    1    1    2  502    0 -0.64027229009E+02 -0.86283342161E+02  0.35238262056E+03  0.36839898542E+03  0.00000000000E+00 0. -1.
         22    1    3    3    0    0  0.96699811056E+02 -0.76490749179E+02  0.16601132623E+02  0.12440774000E+03  0.00000000000E+00 0. -1.
         22    1    3    3    0    0  0.56650446110E+02 -0.27327409593E+02 -0.91911438948E+02  0.11137222710E+03  0.00000000000E+00 0. -1.
</event>
<event>
 7    1  0.5950675E-006  0.1159724E+03  0.7818608E-02  0.1302052E+00
          2   -1    0    0  502    0  0.00000000000E+00  0.00000000000E+00  0.20292811269E+04  0.20292811269E+04  0.00000000000E+00 0. -1.
          1   -1    0    0  501    0 -0.00000000000E+00 -0.00000000000E+00 -0.22487416439E+03  0.22487416439E+03  0.00000000000E+00 0. -1.
         25    2    1    2    0    0 -0.10889732053E+03 -0.14208403939E+03  0.12144655887E+03  0.24984521625E+03  0.12500745880E+03 0.  0.
          2    1    1    2  501    0  0.73768287469E+02  0.81122641190E+02 -0.14121087770E+03  0.17878242400E+03  0.00000000000E+00 0. -1.
          1    1    1    2  502    0  0.35129033064E+02  0.60961398198E+02  0.18241712813E+04  0.18255276510E+04  0.00000000000E+00 0. -1.
         22    1    3    3    0    0 -0.25534194040E+02 -0.64056169898E+01 -0.22919269279E+02  0.34904439525E+02  0.00000000000E+00 0.  1.
         22    1    3    3    0    0 -0.83363126493E+02 -0.13567842240E+03  0.14436582815E+03  0.21494077673E+03  0.00000000000E+00 0.  1.
</event>
<event>
 7    1  0.5950675E-006  0.1005039E+03  0.7818608E-02  0.1345721E+00
          2   -1    0    0  502    0  0.00000000000E+00  0.00000000000E+00  0.39425582982E+03  0.39425582982E+03  0.00000000000E+00 0. -1.
          1   -1    0    0  501    0 -0.00000000000E+00 -0.00000000000E+00 -0.19723368783E+04  0.19723368783E+04  0.00000000000E+00 0. -1.
         25    2    1    2    0    0 -0.61497994477E+02  0.20630639720E+01 -0.10861313921E+04  0.10950310132E+04  0.12500103783E+03 0.  0.
          2    1    1    2  501    0 -0.25487223304E+02  0.48833443750E+02 -0.87436037844E+03  0.87609381642E+03  0.00000000000E+00 0. -1.
          1    1    1    2  502    0  0.86985217781E+02 -0.50896507722E+02  0.38241072203E+03  0.39546787851E+03  0.00000000000E+00 0. -1.
         22    1    3    3    0    0 -0.52942743662E+02 -0.45342760611E+02 -0.32571414936E+03  0.33308948818E+03  0.00000000000E+00 0. -1.
         22    1    3    3    0    0 -0.85552508155E+01  0.47405824583E+02 -0.76041724271E+03  0.76194152501E+03  0.00000000000E+00 0. -1.
</event>
<event>
 7    1  0.5950675E-006  0.1349104E+03  0.7818608E-02  0.1267568E+00
          2   -1    0    0  502    0  0.00000000000E+00  0.00000000000E+00  0.44103645713E+03  0.44103645713E+03  0.00000000000E+00 0. -1.
          1   -1    0    0  501    0 -0.00000000000E+00 -0.00000000000E+00 -0.26844903280E+04  0.26844903280E+04  0.00000000000E+00 0. -1.
         25    2    1    2    0    0 -0.70664911002E+02  0.17677365733E+03 -0.13123867391E+03  0.26284875656E+03  0.12499369474E+03 0.  0.
          2    1    1    2  501    0  0.71031565228E+02 -0.44399593764E+02 -0.24750411581E+04  0.24764582657E+04  0.00000000000E+00 0. -1.
          1    1    1    2  502    0 -0.36665422596E+00 -0.13237406356E+03  0.36282596118E+03  0.38621976289E+03  0.00000000000E+00 0. -1.
         22    1    3    3    0    0 -0.48398738786E+02  0.81899928069E+02 -0.13520190355E+03  0.16531663817E+03  0.00000000000E+00 0. -1.
         22    1    3    3    0    0 -0.22266172216E+02  0.94873729260E+02  0.39632296365E+01  0.97532118391E+02  0.00000000000E+00 0. -1.
</event>
<event>
 7    1  0.5950675E-006  0.1211877E+03  0.7818608E-02  0.1379184E+00
          2   -1    0    0  502    0  0.00000000000E+00  0.00000000000E+00  0.15015369508E+04  0.15015369508E+04  0.00000000000E+00 0. -1.
          1   -1    0    0  501    0 -0.00000000000E+00 -0.00000000000E+00 -0.70041274339E+02  0.70041274339E+02  0.00000000000E+00 0. -1.
         25    2    1    2    0    0  0.58812422674E+02 -0.87230079749E+02  0.22704385701E+03  0.27971530244E+03  0.12499499805E+03 0.  0.
          2    1    1    2  501    0 -0.46044457619E+02  0.11930135904E+03  0.50648529890E+02  0.13754337471E+03  0.00000000000E+00 0. -1.
          1    1    1    2  502    0 -0.12767965055E+02 -0.32071279291E+02  0.11538032896E+04  0.11543195480E+04  0.00000000000E+00 0. -1.
         22    1    3    3    0    0  0.24655523161E+02 -0.69060212686E+02  0.22951774203E+03  0.24094730068E+03  0.00000000000E+00 0. -1.
         22    1    3    3    0    0  0.34156899513E+02 -0.18169867062E+02 -0.24738850134E+01  0.38768001760E+02  0.00000000000E+00 0. -1.
</event>
<event>
 7    1  0.5950675E-006  0.7410730E+02  0.7818608E-02  0.1467395E+00
          2   -1    0    0  502    0  0.00000000000E+00  0.00000000000E+00  0.75753237499E+03  0.75753237499E+03  0.00000000000E+00 0. -1.
          1   -1    0    0  501    0 -0.00000000000E+00 -0.00000000000E+00 -0.83125527622E+02  0.83125527622E+02  0.00000000000E+00 0. -1.
         25    2    1    2    0    0  0.47563783266E+02  0.47268826873E+02 -0.45784714702E+01  0.14192560613E+03  0.12500103921E+03 0.  0.
          2    1    1    2  501    0  0.21382862417E+02 -0.19169379327E+02  0.18714766734E+02  0.34277316155E+02  0.00000000000E+00 0. -1.
          1    1    1    2  502    0 -0.68946645682E+02 -0.28099447546E+02  0.66027055211E+03  0.66445498033E+03  0.00000000000E+00 0. -1.
         22    1    3    3    0    0  0.68544153635E+02  0.46584306071E+01 -0.42815015046E+02  0.80951389652E+02  0.00000000000E+00 0. -1.
         22    1    3    3    0    0 -0.20980370369E+02  0.42610396266E+02  0.38236543575E+02  0.60974216480E+02  0.00000000000E+00 0. -1.
</event>
<event>
 7    1  0.5950675E-006  0.3814042E+02  0.7818608E-02  0.1537382E+00
          2   -1    0    0  502    0  0.00000000000E+00  0.00000000000E+00  0.12357515845E+04  0.12357515845E+04  0.00000000000E+00 0. -1.
          1   -1    0    0  501    0 -0.00000000000E+00 -0.00000000000E+00 -0.50703638805E+02  0.50703638805E+02  0.00000000000E+00 0. -1.
         25    2    1    2    0    0  0.49951094517E+01  0.18854494194E+02  0.71475492366E+03  0.72586726777E+03  0.12501298512E+03 0.  0.
          2    1    1    2  501    0 -0.37695492307E+02 -0.77287743760E+01 -0.36251931231E+02  0.52866687164E+02  0.00000000000E+00 0. -1.
          1    1    1    2  502    0  0.32700382856E+02 -0.11125719818E+02  0.50654495323E+03  0.50772126834E+03  0.00000000000E+00 0. -1.
         22    1    3    3    0    0  0.57455677449E+00  0.42629859018E+02  0.68980388299E+03  0.69112012847E+03  0.00000000000E+00 0. -1.
         22    1    3    3    0    0  0.44205526772E+01 -0.23775364824E+02  0.24951040674E+02  0.34747139295E+02  0.00000000000E+00 0. -1.
</event>
<event>
 7    1  0.5950675E-006  0.7925016E+02  0.7818608E-02  0.1395021E+00
          2   -1    0    0  502    0  0.00000000000E+00  0.00000000000E+00  0.21210055535E+03  0.21210055535E+03  0.00000000000E+00 0. -1.
          1   -1    0    0  501    0 -0.00000000000E+00 -0.00000000000E+00 -0.60165393248E+03  0.60165393248E+03  0.00000000000E+00 0. -1.
         25    2    1    2    0    0 -0.94982023704E+02 -0.20243890582E+02 -0.10170956853E+03  0.18815169763E+03  0.12499930023E+03 0.  0.
          2    1    1    2  501    0  0.75550717677E+02 -0.21950348980E+02 -0.45005045954E+03  0.45687541507E+03  0.00000000000E+00 0. -1.
          1    1    1    2  502    0  0.19431306027E+02  0.42194239562E+02  0.16220665095E+03  0.16872737513E+03  0.00000000000E+00 0. -1.
         22    1    3    3    0    0 -0.27326178961E+02 -0.11056059431E+02 -0.11489246511E+03  0.11861380630E+03  0.00000000000E+00 0. -1.
         22    1    3    3    0    0 -0.67655844743E+02 -0.91878311508E+01  0.13182896571E+02  0.69537891334E+02  0.00000000000E+00 0. -1.
</event>
<event>
 7    1  0.5950675E-006  0.4793156E+02  0.7818608E-02  0.1482034E+00
          2   -1    0    0  502    0  0.00000000000E+00  0.00000000000E+00  0.43670397378E+03  0.43670397378E+03  0.00000000000E+00 0. -1.
          1   -1    0    0  501    0 -0.00000000000E+00 -0.00000000000E+00 -0.47372000291E+03  0.47372000291E+03  0.00000000000E+00 0. -1.
         25    2    1    2    0    0  0.17436691980E+02  0.39326514803E+01  0.18608365764E+03  0.22487704574E+03  0.12499221611E+03 0.  0.
          2    1    1    2  501    0  0.31604628938E+02 -0.24531386894E+02 -0.45036563878E+03  0.45213919329E+03  0.00000000000E+00 0. -1.
          1    1    1    2  502    0 -0.49041320918E+02  0.20598735413E+02  0.22726595201E+03  0.23340773766E+03  0.00000000000E+00 0. -1.
         22    1    3    3    0    0  0.46875145728E+02 -0.47246469798E+02  0.11007505255E+03  0.12863135461E+03  0.00000000000E+00 0. -1.
         22    1    3    3    0    0 -0.29438453748E+02  0.51179121278E+02  0.76008605090E+02  0.96245691132E+02  0.00000000000E+00 0. -1.
</event>
<event>
 7    1  0.5950675E-006  0.7901427E+02  0.7818608E-02  0.1400499E+00
          2   -1    0    0  502    0  0.00000000000E+00  0.00000000000E+00  0.14908822292E+04  0.14908822292E+04  0.00000000000E+00 0. -1.
          1   -1    0    0  501    0 -0.00000000000E+00 -0.00000000000E+00 -0.88503344122E+03  0.88503344122E+03  0.00000000000E+00 0. -1.
         25    2    1    2    0    0  0.89546192787E+01  0.62565021191E+02  0.13525797580E+03  0.19471653623E+03  0.12500096952E+03 0.  0.
          2    1    1    2  501    0  0.34795578402E+02 -0.71270837300E+02 -0.85308903326E+03  0.85676785840E+03  0.00000000000E+00 0. -1.
          1    1    1    2  502    0 -0.43750197680E+02  0.87058161094E+01  0.13236798454E+04  0.13244312758E+04  0.00000000000E+00 0. -1.
         22    1    3    3    0    0  0.40271003150E+02 -0.18347311199E+02  0.81246650712E+02  0.92517002625E+02  0.00000000000E+00 0.  1.
         22    1    3    3    0    0 -0.31316383871E+02  0.80912332390E+02  0.54011325087E+02  0.10219953361E+03  0.00000000000E+00 0.  1.
</event>
<event>
 7    1  0.5950675E-006  0.8692392E+02  0.7818608E-02  0.1429549E+00
          2   -1    0    0  502    0  0.00000000000E+00  0.00000000000E+00  0.12665352080E+04  0.12665352080E+04  0.00000000000E+00 0. -1.
          1   -1    0    0  501    0 -0.00000000000E+00 -0.00000000000E+00 -0.67803320446E+02  0.67803320446E+02  0.00000000000E+00 0. -1.
         25    2    1    2    0    0  0.36375939664E+02  0.10488247463E+03  0.12923250274E+03  0.21130719823E+03  0.12500459907E+03 0.  0.
          2    1    1    2  501    0 -0.24535611304E+02 -0.74747737492E+02  0.31845737866E+02  0.84872678186E+02  0.00000000000E+00 0. -1.
          1    1    1    2  502    0 -0.11840328360E+02 -0.30134737140E+02  0.10376536469E+04  0.10381586520E+04  0.00000000000E+00 0. -1.
         22    1    3    3    0    0  0.49194009097E+02  0.81375876800E+01  0.96064794411E+02  0.10823453973E+03  0.00000000000E+00 0.  1.
         22    1    3    3    0    0 -0.12818069434E+02  0.96744886952E+02  0.33167708328E+02  0.10307265850E+03  0.00000000000E+00 0.  1.
</event>
<event>
 7    1  0.5950675E-006  0.1400185E+03  0.7818608E-02  0.1303554E+00
          2   -1    0    0  502    0  0.00000000000E+00  0.00000000000E+00  0.10929419667E+04  0.10929419667E+04  0.00000000000E+00 0. -1.
          1   -1    0    0  501    0 -0.00000000000E+00 -0.00000000000E+00 -0.13118547710E+03  0.13118547710E+03  0.00000000000E+00 0. -1.
         25    2    1    2    0    0 -0.11718293418E+02  0.95385269609E+02  0.16383629659E+03  0.22738450613E+03  0.12500285392E+03 0.  0.
          2    1    1    2  501    0  0.23380342284E+02 -0.15166789060E+03 -0.38608736766E+02  0.15824166329E+03  0.00000000000E+00 0. -1.
          1    1    1    2  502    0 -0.11662048867E+02  0.56282620992E+02  0.83652892973E+03  0.83850127434E+03  0.00000000000E+00 0. -1.
         22    1    3    3    0    0 -0.18370579400E+01 -0.29526312103E+02  0.49988362884E+02  0.58086266122E+02  0.00000000000E+00 0. -1.
         22    1    3    3    0    0 -0.98812354778E+01  0.12491158171E+03  0.11384793371E+03  0.16929824001E+03  0.00000000000E+00 0. -1.
</event>
<event>
 7    1  0.5950675E-006  0.2010987E+03  0.7818608E-02  0.1325561E+00
          2   -1    0    0  502    0  0.00000000000E+00  0.00000000000E+00  0.14779131014E+04  0.14779131014E+04  0.00000000000E+00 0. -1.
          1   -1    0    0  501    0 -0.00000000000E+00 -0.00000000000E+00 -0.26365560302E+03  0.26365560302E+03  0.00000000000E+00 0. -1.
         25    2    1    2    0    0 -0.24288247655E+01 -0.19714911684E+03  0.42582290075E+03  0.48561717255E+03  0.12500088804E+03 0.  0.
          2    1    1    2  501    0 -0.32695803872E+02 -0.28714958009E+01 -0.22245580006E+03  0.22486405685E+03  0.00000000000E+00 0. -1.
          1    1    1    2  502    0  0.35124628638E+02  0.20002061264E+03  0.10108903977E+04  0.10310874751E+04  0.00000000000E+00 0. -1.
         22    1    3    3    0    0 -0.14158897413E+02 -0.77659627962E+01 -0.32399210326E+01  0.16470629691E+02  0.00000000000E+00 0.  1.
         22    1    3    3    0    0  0.11730072648E+02 -0.18938315405E+03  0.42906282179E+03  0.46914654286E+03  0.00000000000E+00 0.  1.
</event>
<event>
 7    1  0.5950675E-006  0.1891408E+03  0.7818608E-02  0.1301651E+00
          2   -1    0    0  502    0  0.00000000000E+00  0.00000000000E+00  0.13235800753E+03  0.13235800753E+03  0.00000000000E+00 0. -1.
          1   -1    0    0  501    0 -0.00000000000E+00 -0.00000000000E+00 -0.22901365259E+04  0.22901365259E+04  0.00000000000E+00 0. -1.
         25    2    1    2    0    0  0.23040406852E+02  0.15882904895E+03 -0.65004926701E+03  0.68113585910E+03  0.12499792747E+03 0.  0.
          2    1    1    2  501    0 -0.11214073457E+02 -0.20048292063E+03 -0.16140847706E+04  0.16265266071E+04  0.00000000000E+00 0. -1.
          1    1    1    2  502    0 -0.11826333395E+02  0.41653871676E+02  0.10635551925E+03  0.11483206722E+03  0.00000000000E+00 0. -1.
         22    1    3    3    0    0  0.12093143270E+00 -0.20059038165E+02 -0.36740798145E+02  0.41860075070E+02  0.00000000000E+00 0. -1.
         22    1    3    3    0    0  0.22919475419E+02  0.17888808711E+03 -0.61330846887E+03  0.63927578403E+03  0.00000000000E+00 0. -1.
</event>
<event>
 7    1  0.5950675E-006  0.8720684E+02  0.7818608E-02  0.1355287E+00
          2   -1    0    0  502    0  0.00000000000E+00  0.00000000000E+00  0.63659089693E+03  0.63659089693E+03  0.00000000000E+00 0. -1.
          1   -1    0    0  501    0 -0.00000000000E+00 -0.00000000000E+00 -0.15192038251E+03  0.15192038251E+03  0.00000000000E+00 0. -1.
         25    2    1    2    0    0 -0.47497270981E+02  0.75961132176E+02  0.91773481835E+02  0.17909248135E+03  0.12500264219E+03 0.  0.
          2    1    1    2  501    0 -0.96088924948E+01 -0.88712030301E+02 -0.87793998062E+02  0.12517963585E+03  0.00000000000E+00 0. -1.
          1    1    1    2  502    0  0.57106163476E+02  0.12750898125E+02  0.48069103064E+03  0.48423916224E+03  0.00000000000E+00 0. -1.
         22    1    3    3    0    0 -0.72814436996E+02  0.67024192442E+02  0.10897499731E+03  0.14720643547E+03  0.00000000000E+00 0.  1.
         22    1    3    3    0    0  0.25317166015E+02  0.89369397338E+01 -0.17201515470E+02  0.31886045871E+02  0.00000000000E+00 0.  1.
</event>
<event>
 7    1  0.5950675E-006  0.6399690E+02  0.7818608E-02  0.1458922E+00
          2   -1    0    0  502    0  0.00000000000E+00  0.00000000000E+00  0.16027116336E+04  0.16027116336E+04  0.00000000000E+00 0. -1.
          1   -1    0    0  501    0 -0.00000000000E+00 -0.00000000000E+00 -0.32243554452E+02  0.32243554452E+02  0.00000000000E+00 0. -1.
         25    2    1    2    0    0 -0.17824357346E+02 -0.78305992655E+02  0.27065385212E+03  0.30875271565E+03  0.12500078222E+03 0.  0.
          2    1    1    2  501    0 -0.21356125527E+02  0.28177041026E+02  0.12777066268E+02  0.37593658520E+02  0.00000000000E+00 0. -1.
          1    1    1    2  502    0  0.39180482873E+02  0.50128951629E+02  0.12870371607E+04  0.12886088139E+04  0.00000000000E+00 0. -1.
         22    1    3    3    0    0  0.34260973569E+02  0.70318877665E+01  0.13961812575E+03  0.14393221597E+03  0.00000000000E+00 0. -1.
         22    1    3    3    0    0 -0.52085330915E+02 -0.85337880421E+02  0.13103572637E+03  0.16482049969E+03  0.00000000000E+00 0. -1.
</event>
<event>
 7    1  0.5950675E-006  0.5361871E+02  0.7818608E-02  0.1464561E+00
          2   -1    0    0  502    0  0.00000000000E+00  0.00000000000E+00  0.26744896691E+04  0.26744896691E+04  0.00000000000E+00 0. -1.
          1   -1    0    0  501    0 -0.00000000000E+00 -0.00000000000E+00 -0.23064146384E+02  0.23064146384E+02  0.00000000000E+00 0. -1.
         25    2    1    2    0    0 -0.31892590132E+02  0.63907054545E+02  0.12203186270E+04  0.12287812721E+04  0.12499845708E+03 0.  0.
          2    1    1    2  501    0 -0.71090793049E+01 -0.52957127065E+02  0.19951151080E+02  0.57035469183E+02  0.00000000000E+00 0. -1.
          1    1    1    2  502    0  0.39001669436E+02 -0.10949927481E+02  0.14111557446E+04  0.14117370742E+04  0.00000000000E+00 0. -1.
         22    1    3    3    0    0 -0.14807753587E+02  0.10143194418E+03  0.83827845285E+03  0.84452263047E+03  0.00000000000E+00 0. -1.
         22    1    3    3    0    0 -0.17084836545E+02 -0.37524889633E+02  0.38204017418E+03  0.38425864163E+03  0.00000000000E+00 0. -1.
</event>
<event>
 7    1  0.5950675E-006  0.1748563E+03  0.7818608E-02  0.1201855E+00
          2   -1    0    0  502    0  0.00000000000E+00  0.00000000000E+00  0.10369167859E+04  0.10369167859E+04  0.00000000000E+00 0. -1.
          1   -1    0    0  501    0 -0.00000000000E+00 -0.00000000000E+00 -0.93102619263E+03  0.93102619263E+03  0.00000000000E+00 0. -1.
         25    2    1    2    0    0  0.22700840873E+03  0.62851214627E+01 -0.30823075701E+03  0.40274470947E+03  0.12499912423E+03 0.  0.
          2    1    1    2  501    0 -0.13807400383E+03 -0.96617669080E+02 -0.55900278869E+03  0.58385231204E+03  0.00000000000E+00 0. -1.
          1    1    1    2  502    0 -0.88934404898E+02  0.90332547617E+02  0.97312413897E+03  0.98134595703E+03  0.00000000000E+00 0. -1.
         22    1    3    3    0    0  0.73375153650E+02 -0.33173858853E+02 -0.37184899128E+02  0.88696870336E+02  0.00000000000E+00 0.  1.
         22    1    3    3    0    0  0.15363325508E+03  0.39458980316E+02 -0.27104585788E+03  0.31404783914E+03  0.00000000000E+00 0.  1.
</event>
<event>
 7    1  0.5950675E-006  0.1003764E+03  0.7818608E-02  0.1384509E+00
          2   -1    0    0  502    0  0.00000000000E+00  0.00000000000E+00  0.35251739195E+04  0.35251739195E+04  0.00000000000E+00 0. -1.
          1   -1    0    0  501    0 -0.00000000000E+00 -0.00000000000E+00 -0.59190030880E+02  0.59190030880E+02  0.00000000000E+00 0. -1.
         25    2    1    2    0    0  0.18115021232E+02  0.85694686985E+02  0.26819323576E+03  0.30858678723E+03  0.12500584054E+03 0.  0.
          2    1    1    2  501    0  0.39813114777E+02 -0.27835967054E+01 -0.27776432115E+02  0.48624712852E+02  0.00000000000E+00 0. -1.
          1    1    1    2  502    0 -0.57928136009E+02 -0.82911090279E+02  0.32255670849E+04  0.32271524503E+04  0.00000000000E+00 0. -1.
         22    1    3    3    0    0 -0.27463534465E+02  0.10091385348E+03  0.18326099767E+03  0.21100342371E+03  0.00000000000E+00 0. -1.
         22    1    3    3    0    0  0.45578555697E+02 -0.15219166494E+02  0.84932238090E+02  0.97583363516E+02  0.00000000000E+00 0. -1.
</event>
<event>
 7    1  0.5950675E-006  0.1152748E+03  0.7818608E-02  0.1376156E+00
          2   -1    0    0  502    0  0.00000000000E+00  0.00000000000E+00  0.21774322400E+04  0.21774322400E+04  0.00000000000E+00 0. -1.
          1   -1    0    0  501    0 -0.00000000000E+00 -0.00000000000E+00 -0.40949905725E+03  0.40949905725E+03  0.00000000000E+00 0. -1.
         25    2    1    2    0    0  0.91237888098E+02  0.88492583768E+02  0.10942503978E+04  0.11086766488E+04  0.12499875505E+03 0.  0.
          2    1    1    2  501    0 -0.56082307176E+02 -0.10065717270E+03 -0.39370421893E+03  0.41021957974E+03  0.00000000000E+00 0. -1.
          1    1    1    2  502    0 -0.35155580922E+02  0.12164588932E+02  0.10673870038E+04  0.10680350687E+04  0.00000000000E+00 0. -1.
         22    1    3    3    0    0  0.29617197126E+01  0.30875815038E+02  0.48133183531E+02  0.57261602272E+02  0.00000000000E+00 0. -1.
         22    1    3    3    0    0  0.88276168386E+02  0.57616768730E+02  0.10461172143E+04  0.10514150465E+04  0.00000000000E+00 0. -1.
</event>
<event>
 7    1  0.5950675E-006  0.8375713E+02  0.7818608E-02  0.1451622E+00
          2   -1    0    0  502    0  0.00000000000E+00  0.00000000000E+00  0.11761257950E+04  0.11761257950E+04  0.00000000000E+00 0. -1.
          1   -1    0    0  501    0 -0.00000000000E+00 -0.00000000000E+00 -0.98743366529E+03  0.98743366529E+03  0.00000000000E+00 0. -1.
         25    2    1    2    0    0  0.47116496710E+02 -0.55943259032E+02 -0.86768611273E+02  0.16882923623E+03  0.12499962644E+03 0.  0.
          2    1    1    2  501    0 -0.72607491056E+02  0.43206733155E+02 -0.85737906283E+03  0.86153208119E+03  0.00000000000E+00 0. -1.
          1    1    1    2  502    0  0.25490994345E+02  0.12736525877E+02  0.11328398039E+04  0.11331981429E+04  0.00000000000E+00 0. -1.
         22    1    3    3    0    0 -0.38073649897E+02 -0.29568768305E+02 -0.61249055515E+01  0.48594540266E+02  0.00000000000E+00 0.  1.
         22    1    3    3    0    0  0.85190146608E+02 -0.26374490726E+02 -0.80643705721E+02  0.12023469596E+03  0.00000000000E+00 0.  1.
</event>
<event>
 7    1  0.5950675E-006  0.1621213E+03  0.7818608E-02  0.1256061E+00
          2   -1    0    0  502    0  0.00000000000E+00  0.00000000000E+00  0.19037268373E+04  0.19037268373E+04  0.00000000000E+00 0. -1.
          1   -1    0    0  501    0 -0.00000000000E+00 -0.00000000000E+00 -0.15583045152E+03  0.15583045152E+03  0.00000000000E+00 0. -1.
         25    2    1    2    0    0 -0.19863914897E+03  0.97079750960E+02  0.27612612427E+03  0.37517421428E+03  0.12501225943E+03 0.  0.
          2    1    1    2  501    0  0.12069117250E+03 -0.93589504250E+02 -0.49932127358E+02  0.16068158503E+03  0.00000000000E+00 0. -1.
          1    1    1    2  502    0  0.77947976470E+02 -0.34902467101E+01  0.15217023889E+04  0.15237014895E+04  0.00000000000E+00 0. -1.
         22    1    3    3    0    0 -0.19647732784E+03  0.11984203669E+03  0.25982046920E+03  0.34709095397E+03  0.00000000000E+00 0. -1.
         22    1    3    3    0    0 -0.21618211250E+01 -0.22762285729E+02  0.16305655067E+02  0.28083260305E+02  0.00000000000E+00 0. -1.
</event>
<event>
 7    1  0.5950675E-006  0.6322440E+02  0.7818608E-02  0.1509561E+00
          2   -1    0    0  502    0  0.00000000000E+00  0.00000000000E+00  0.13491258743E+04  0.13491258743E+04  0.00000000000E+00 0. -1.
          1   -1    0    0  501    0 -0.00000000000E+00 -0.00000000000E+00 -0.14828696196E+03  0.14828696196E+03  0.00000000000E+00 0. -1.
         25    2    1    2    0    0  0.38306819127E+02 -0.26080446549E+02  0.41310155936E+03  0.43407962903E+03  0.12499849563E+03 0.  0.
          2    1    1    2  501    0 -0.61420838824E+02  0.16357284449E+02 -0.13028788579E+03  0.14496555929E+03  0.00000000000E+00 0. -1.
          1    1    1    2  502    0  0.23114019698E+02  0.97231620998E+01  0.91802523874E+03  0.91836764793E+03  0.00000000000E+00 0. -1.
         22    1    3    3    0    0  0.22653601278E+02  0.50294988092E+02  0.15991411909E+03  0.16916056563E+03  0.00000000000E+00 0. -1.
         22    1    3    3    0    0  0.15653217849E+02 -0.76375434641E+02  0.25318744027E+03  0.26491906340E+03  0.00000000000E+00 0. -1.
</event>
<event>
 7    1  0.5950675E-006  0.1501687E+03  0.7818608E-02  0.1275921E+00
          2   -1    0    0  502    0  0.00000000000E+00  0.00000000000E+00  0.81049370674E+03  0.81049370674E+03  0.00000000000E+00 0. -1.
          1   -1    0    0  501    0 -0.00000000000E+00 -0.00000000000E+00 -0.13675366026E+04  0.13675366026E+04  0.00000000000E+00 0. -1.
         25    2    1    2    0    0 -0.10844650945E+03  0.99717919684E+02  0.25782586170E+03  0.32218518037E+03  0.12499922628E+03 0.  0.
          2    1    1    2  501    0  0.52646105265E+02  0.45267168415E+02 -0.13228340214E+04  0.13246548898E+04  0.00000000000E+00 0. -1.
          1    1    1    2  502    0  0.55800404189E+02 -0.14498508810E+03  0.50796526386E+03  0.53119023915E+03  0.00000000000E+00 0. -1.
         22    1    3    3    0    0  0.12948114286E+01 -0.25076739887E+02  0.20262738458E+02  0.32266050112E+02  0.00000000000E+00 0. -1.
         22    1    3    3    0    0 -0.10974132088E+03  0.12479465957E+03  0.23756312324E+03  0.28991913026E+03  0.00000000000E+00 0. -1.
</event>
<event>
 7    1  0.5950675E-006  0.1009842E+03  0.7818608E-02  0.1305773E+00
          2   -1    0    0  502    0  0.00000000000E+00  0.00000000000E+00  0.51788894207E+03  0.51788894207E+03  0.00000000000E+00 0. -1.
          1   -1    0    0  501    0 -0.00000000000E+00 -0.00000000000E+00 -0.14497606425E+03  0.14497606425E+03  0.00000000000E+00 0. -1.
         25    2    1    2    0    0  0.15371351242E+03 -0.71803854441E+02  0.20746403278E+03  0.29571846350E+03  0.12499778936E+03 0.  0.
          2    1    1    2  501    0 -0.77607186632E+02  0.54297837267E+02 -0.70846518799E+02  0.11828085126E+03  0.00000000000E+00 0. -1.
          1    1    1    2  502    0 -0.76106325788E+02  0.17506017175E+02  0.23629536384E+03  0.24886569155E+03  0.00000000000E+00 0. -1.
         22    1    3    3    0    0  0.68559983553E+02  0.28240013093E+02  0.44819362085E+02  0.86641473337E+02  0.00000000000E+00 0.  1.
         22    1    3    3    0    0  0.85153528867E+02 -0.10004386753E+03  0.16264467070E+03  0.20907699017E+03  0.00000000000E+00 0.  1.
</event>
<event>
 7    1  0.5950675E-006  0.1153716E+03  0.7818608E-02  0.1269063E+00
          2   -1    0    0  502    0  0.00000000000E+00  0.00000000000E+00  0.40674271504E+03  0.40674271504E+03  0.00000000000E+00 0. -1.
          1   -1    0    0  501    0 -0.00000000000E+00 -0.00000000000E+00 -0.69478178973E+03  0.69478178973E+03  0.00000000000E+00 0. -1.
         25    2    1    2    0    0 -0.49802988057E+02 -0.12635404406E+03 -0.34896142479E+03  0.39477137513E+03  0.12499872224E+03 0.  0.
          2    1    1    2  501    0 -0.55766385516E+02  0.78807205866E+02 -0.30659150652E+03  0.32143244597E+03  0.00000000000E+00 0. -1.
          1    1    1    2  502    0  0.10556937357E+03  0.47546838192E+02  0.36751385662E+03  0.38532068367E+03  0.00000000000E+00 0. -1.
         22    1    3    3    0    0 -0.14945346620E+02  0.18445857864E+02 -0.12523333731E+02  0.26841142779E+02  0.00000000000E+00 0. -1.
         22    1    3    3    0    0 -0.34857641436E+02 -0.14479990192E+03 -0.33643809106E+03  0.36793023235E+03  0.00000000000E+00 0. -1.
</event>
<event>
 7    1  0.5950675E-006  0.7377309E+02  0.7818608E-02  0.1408974E+00
          2   -1    0    0  502    0  0.00000000000E+00  0.00000000000E+00  0.21950531308E+04  0.21950531308E+04  0.00000000000E+00 0. -1.
          1   -1    0    0  501    0 -0.00000000000E+00 -0.00000000000E+00 -0.53981456960E+02  0.53981456960E+02  0.00000000000E+00 0. -1.
         25    2    1    2    0    0 -0.17933967749E+02 -0.98771284276E+02  0.64902040753E+03  0.66852852616E+03  0.12500202841E+03 0.  0.
          2    1    1    2  501    0  0.34372019248E+02  0.28572883822E+02 -0.31860205915E+02  0.54890054819E+02  0.00000000000E+00 0. -1.
          1    1    1    2  502    0 -0.16438051498E+02  0.70198400455E+02  0.15239114722E+04  0.15256160068E+04  0.00000000000E+00 0. -1.
         22    1    3    3    0    0  0.50326505354E+02 -0.21838604218E+02  0.28627762951E+03  0.29148681434E+03  0.00000000000E+00 0.  1.
         22    1    3    3    0    0 -0.68260473103E+02 -0.76932680059E+02  0.36274277802E+03  0.37704171182E+03  0.00000000000E+00 0.  1.
</event>
<event>
 7    1  0.5950675E-006  0.1218094E+03  0.7818608E-02  0.1347313E+00
          2   -1    0    0  502    0  0.00000000000E+00  0.00000000000E+00  0.33260827809E+03  0.33260827809E+03  0.00000000000E+00 0. -1.
          1   -1    0    0  501    0 -0.00000000000E+00 -0.00000000000E+00 -0.36466092588E+03  0.36466092588E+03  0.00000000000E+00 0. -1.
         25    2    1    2    0    0 -0.31147298253E+02  0.98697045105E+02 -0.13010862098E+03  0.20800620725E+03  0.12500827213E+03 0.  0.
          2    1    1    2  501    0  0.39310648334E+01 -0.13432471621E+03 -0.17044279015E+03  0.21704683220E+03  0.00000000000E+00 0. -1.
          1    1    1    2  502    0  0.27216233419E+02  0.35627671101E+02  0.26849876334E+03  0.27221616452E+03  0.00000000000E+00 0. -1.
         22    1    3    3    0    0 -0.16901259652E+02  0.11285349128E+03 -0.48549240208E+02  0.12401045036E+03  0.00000000000E+00 0. -1.
         22    1    3    3    0    0 -0.14246038601E+02 -0.14156446179E+02 -0.81559380773E+02  0.83995756894E+02  0.00000000000E+00 0. -1.
</event>
<event>
 7    1  0.5950675E-006  0.5949544E+02  0.7818608E-02  0.1408840E+00
          2   -1    0    0  502    0  0.00000000000E+00  0.00000000000E+00  0.18969711463E+04  0.18969711463E+04  0.00000000000E+00 0. -1.
          1   -1    0    0  501    0 -0.00000000000E+00 -0.00000000000E+00 -0.25645018873E+02  0.25645018873E+02  0.00000000000E+00 0. -1.
         25    2    1    2    0    0 -0.12418514603E+02  0.20917748318E+01  0.46409271873E+03  0.48079707412E+03  0.12500071949E+03 0.  0.
          2    1    1    2  501    0 -0.44388689927E+01 -0.59329618409E+02  0.36524809805E+02  0.69812383642E+02  0.00000000000E+00 0. -1.
          1    1    1    2  502    0  0.16857383596E+02  0.57237843577E+02  0.13707085989E+04  0.13720067074E+04  0.00000000000E+00 0. -1.
         22    1    3    3    0    0  0.33633321936E+02  0.49046433316E+02  0.23945684861E+03  0.24673130185E+03  0.00000000000E+00 0.  1.
         22    1    3    3    0    0 -0.46051836539E+02 -0.46954658484E+02  0.22463587013E+03  0.23406577227E+03  0.00000000000E+00 0.  1.
</event>
<event>
 7    1  0.5950675E-006  0.7392511E+02  0.7818608E-02  0.1497351E+00
          2   -1    0    0  502    0  0.00000000000E+00  0.00000000000E+00  0.33562249512E+03  0.33562249512E+03  0.00000000000E+00 0. -1.
          1   -1    0    0  501    0 -0.00000000000E+00 -0.00000000000E+00 -0.55190690886E+03  0.55190690886E+03  0.00000000000E+00 0. -1.
         25    2    1    2    0    0 -0.52220426919E+02  0.60888733708E+02 -0.13894442060E+03  0.20337861827E+03  0.12499159761E+03 0.  0.
          2    1    1    2  501    0  0.61936630354E+02 -0.39695964446E+02 -0.37673447582E+03  0.38384994600E+03  0.00000000000E+00 0. -1.
          1    1    1    2  502    0 -0.97162034347E+01 -0.21192769263E+02  0.29939448268E+03  0.30030083972E+03  0.00000000000E+00 0. -1.
         22    1    3    3    0    0  0.73332372345E+01 -0.33676157788E+02 -0.49089629193E+02  0.59980427357E+02  0.00000000000E+00 0.  1.
         22    1    3    3    0    0 -0.59553664154E+02  0.94564891496E+02 -0.89854791406E+02  0.14339819091E+03  0.00000000000E+00 0.  1.
</event>
<event>
 7    1  0.5950675E-006  0.1005034E+03  0.7818608E-02  0.1288701E+00
          2   -1    0    0  502    0  0.00000000000E+00  0.00000000000E+00  0.30975760297E+04  0.30975760297E+04  0.00000000000E+00 0. -1.
          1   -1    0    0  501    0 -0.00000000000E+00 -0.00000000000E+00 -0.65897043207E+02  0.65897043207E+02  0.00000000000E+00 0. -1.
         25    2    1    2    0    0 -0.42447298935E+02  0.16127812449E+03  0.93608729712E+03  0.95900826899E+03  0.12500010212E+03 0.  0.
          2    1    1    2  501    0  0.66219227930E+02 -0.72502302136E+02 -0.83231797438E+01  0.98543621223E+02  0.00000000000E+00 0. -1.
          1    1    1    2  502    0 -0.23771928995E+02 -0.88775822356E+02  0.21039148691E+04  0.21059211827E+04  0.00000000000E+00 0. -1.
         22    1    3    3    0    0 -0.21370155945E+02  0.17062902648E+03  0.89928740433E+03  0.91558111810E+03  0.00000000000E+00 0.  1.
         22    1    3    3    0    0 -0.21077142990E+02 -0.93509019866E+01  0.36799892797E+02  0.43427150890E+02  0.00000000000E+00 0.  1.
</event>
<event>
 7    1  0.5950675E-006  0.1183781E+03  0.7818608E-02  0.1289979E+00
          2   -1    0    0  502    0  0.00000000000E+00  0.00000000000E+00  0.16549192380E+04  0.16549192380E+04  0.00000000000E+00 0. -1.
          1   -1    0    0  501    0 -0.00000000000E+00 -0.00000000000E+00 -0.83840772099E+03  0.83840772099E+03  0.00000000000E+00 0. -1.
         25    2    1    2    0    0 -0.81005667729E+02  0.31432637089E+02  0.18075750700E+03  0.23632198367E+03  0.12499949900E+03 0.  0.
          2    1    1    2  501    0  0.11302796399E+03  0.38699964581E+02 -0.80518749453E+03  0.81400240126E+03  0.00000000000E+00 0. -1.
          1    1    1    2  502    0 -0.32022296261E+02 -0.70132601670E+02  0.14409415045E+04  0.14430025740E+04  0.00000000000E+00 0. -1.
         22    1    3    3    0    0  0.22452474095E+01 -0.13318192745E+02  0.12674192312E+03  0.12745952483E+03  0.00000000000E+00 0. -1.
         22    1    3    3    0    0 -0.83250915138E+02  0.44750829834E+02  0.54015583879E+02  0.10886245884E+03  0.00000000000E+00 0. -1.
</event>
<event>
 7    1  0.5950675E-006  0.9267112E+02  0.7818608E-02  0.1312488E+00
          2   -1    0    0  502    0  0.00000000000E+00  0.00000000000E+00  0.10877864178E+04  0.10877864178E+04  0.00000000000E+00 0. -1.
          1   -1    0    0  501    0 -0.00000000000E+00 -0.00000000000E+00 -0.14065484908E+03  0.14065484908E+03  0.00000000000E+00 0. -1.
         25    2    1    2    0    0 -0.17897406054E+02 -0.20177616105E+02  0.33676184670E+02  0.13223778269E+03  0.12500116969E+03 0.  0.
          2    1    1    2  501    0 -0.30539150507E+02  0.99182911527E+02 -0.58976769945E+02  0.11936561082E+03  0.00000000000E+00 0. -1.
          1    1    1    2  502    0  0.48436556561E+02 -0.79005295421E+02  0.97243215400E+03  0.97683787336E+03  0.00000000000E+00 0. -1.
         22    1    3    3    0    0  0.37824600106E+02  0.78522264020E+01 -0.25475946931E+02  0.46275065691E+02  0.00000000000E+00 0. -1.
         22    1    3    3    0    0 -0.55722006160E+02 -0.28029842507E+02  0.59152131601E+02  0.85962717002E+02  0.00000000000E+00 0. -1.
</event>
<event>
 7    1  0.5950675E-006  0.9566852E+02  0.7818608E-02  0.1356173E+00
          2   -1    0    0  502    0  0.00000000000E+00  0.00000000000E+00  0.13914799742E+04  0.13914799742E+04  0.00000000000E+00 0. -1.
          1   -1    0    0  501    0 -0.00000000000E+00 -0.00000000000E+00 -0.13812604780E+04  0.13812604780E+04  0.00000000000E+00 0. -1.
         25    2    1    2    0    0  0.71065508662E+02  0.12744274430E+03  0.13417703934E+03  0.23435096663E+03  0.12499975231E+03 0.  0.
          2    1    1    2  501    0 -0.35267590347E+02 -0.88442713316E+02 -0.13288889704E+04  0.13322956925E+04  0.00000000000E+00 0. -1.
          1    1    1    2  502    0 -0.35797918315E+02 -0.39000030980E+02  0.12049314273E+04  0.12060937932E+04  0.00000000000E+00 0. -1.
         22    1    3    3    0    0 -0.27171866387E+02  0.76981402271E+02  0.54093078001E+02  0.97931137572E+02  0.00000000000E+00 0. -1.
         22    1    3    3    0    0  0.98237375049E+02  0.50461342026E+02  0.80083961340E+02  0.13641982906E+03  0.00000000000E+00 0. -1.
</event>
<event>
 7    1  0.5950675E-006  0.3967276E+02  0.7818608E-02  0.1535892E+00
          2   -1    0    0  502    0  0.00000000000E+00  0.00000000000E+00  0.32413630439E+03  0.32413630439E+03  0.00000000000E+00 0. -1.
          1   -1    0    0  501    0 -0.00000000000E+00 -0.00000000000E+00 -0.21089745616E+04  0.21089745616E+04  0.00000000000E+00 0. -1.
         25    2    1    2    0    0  0.57854715137E+02 -0.44600920117E+02  0.37763715786E+02  0.14961713551E+03  0.12499111516E+03 0.  0.
          2    1    1    2  501    0 -0.30254157643E+02  0.25558326795E+02 -0.20516359027E+04  0.20520181333E+04  0.00000000000E+00 0. -1.
          1    1    1    2  502    0 -0.27600557494E+02  0.19042593323E+02  0.22903392971E+03  0.23147559719E+03  0.00000000000E+00 0. -1.
         22    1    3    3    0    0 -0.31494101310E+02 -0.11549031121E+02  0.42607618498E+02  0.54227923538E+02  0.00000000000E+00 0.  1.
         22    1    3    3    0    0  0.89348816447E+02 -0.33051888996E+02 -0.48439027120E+01  0.95389211969E+02  0.00000000000E+00 0.  1.
</event>
<event>
 7    1  0.5950675E-006  0.7652416E+02  0.7818608E-02  0.1342976E+00
          2   -1    0    0  502    0  0.00000000000E+00  0.00000000000E+00  0.34393865674E+04  0.34393865674E+04  0.00000000000E+00 0. -1.
          1   -1    0    0  501    0 -0.00000000000E+00 -0.00000000000E+00 -0.42246342901E+03  0.42246342901E+03  0.00000000000E+00 0. -1.
         25    2    1    2    0    0 -0.78079254606E+02  0.12574087604E+03  0.48895737779E+03  0.52593713606E+03  0.12499366339E+03 0.  0.
          2    1    1    2  501    0  0.28939796115E+02 -0.70310728069E+02 -0.39992328972E+03  0.40708690466E+03  0.00000000000E+00 0. -1.
          1    1    1    2  502    0  0.49139458492E+02 -0.55430147967E+02  0.29278890504E+04  0.29288259557E+04  0.00000000000E+00 0. -1.
         22    1    3    3    0    0 -0.97479242881E+02  0.13902943438E+03  0.43996913600E+03  0.47159752655E+03  0.00000000000E+00 0. -1.
         22    1    3    3    0    0  0.19399988274E+02 -0.13288558348E+02  0.48988241789E+02  0.54339609509E+02  0.00000000000E+00 0. -1.
</event>
<event>
 7    1  0.5950675E-006  0.6132426E+02  0.7818608E-02  0.1446677E+00
          2   -1    0    0  502    0  0.00000000000E+00  0.00000000000E+00  0.19167729826E+04  0.19167729826E+04  0.00000000000E+00 0. -1.
          1   -1    0    0  501    0 -0.00000000000E+00 -0.00000000000E+00 -0.20043238757E+03  0.20043238757E+03  0.00000000000E+00 0. -1.
         25    2    1    2    0    0  0.64246943902E+02 -0.38649787959E+01  0.42254752581E+02  0.14681309798E+03  0.12500405498E+03 0.  0.
          2    1    1    2  501    0 -0.17739243486E+02 -0.36258695977E+02 -0.14487568595E+03  0.15039394327E+03  0.00000000000E+00 0. -1.
          1    1    1    2  502    0 -0.46507700417E+02  0.40123674773E+02  0.18189615284E+04  0.18199983289E+04  0.00000000000E+00 0. -1.
         22    1    3    3    0    0  0.83323336776E+02  0.22344384441E+01  0.72544375100E+02  0.11050093902E+03  0.00000000000E+00 0. -1.
         22    1    3    3    0    0 -0.19076392874E+02 -0.60994172400E+01 -0.30289622519E+02  0.36312158957E+02  0.00000000000E+00 0. -1.
</event>
<event>
 7    1  0.5950675E-006  0.6764327E+02  0.7818608E-02  0.1469628E+00
          2   -1    0    0  502    0  0.00000000000E+00  0.00000000000E+00  0.15631672388E+04  0.15631672388E+04  0.00000000000E+00 0. -1.
          1   -1    0    0  501    0 -0.00000000000E+00 -0.00000000000E+00 -0.13984586274E+03  0.13984586274E+03  0.00000000000E+00 0. -1.
         25    2    1    2    0    0 -0.65105785006E+02 -0.36382901302E+02  0.34132805121E+03  0.37106987165E+03  0.12500212938E+03 0.  0.
          2    1    1    2  501    0 -0.22725809778E+01  0.30878026274E+02 -0.12209453946E+03  0.12595909533E+03  0.00000000000E+00 0. -1.
          1    1    1    2  502    0  0.67378365983E+02  0.55048750287E+01  0.12040878643E+04  0.12059841345E+04  0.00000000000E+00 0. -1.
         22    1    3    3    0    0 -0.32231590792E+01  0.86566894205E+01 -0.87494950591E+01  0.12723234257E+02  0.00000000000E+00 0.  1.
         22    1    3    3    0    0 -0.61882625926E+02 -0.45039590723E+02  0.35007754627E+03  0.35834663739E+03  0.00000000000E+00 0.  1.
</event>
<event>
 7    1  0.5950675E-006  0.6598775E+02  0.7818608E-02  0.1478646E+00
          2   -1    0    0  502    0  0.00000000000E+00  0.00000000000E+00  0.64519838393E+02  0.64519838393E+02  0.00000000000E+00 0. -1.
          1   -1    0    0  501    0 -0.00000000000E+00 -0.00000000000E+00 -0.14795279652E+04  0.14795279652E+04  0.00000000000E+00 0. -1.
         25    2    1    2    0    0  0.20027486118E+02  0.87142202892E+02 -0.49559836894E+03  0.51888084439E+03  0.12499889460E+03 0.  0.
          2    1    1    2  501    0 -0.13142319769E+01 -0.63996560791E+02 -0.96695626540E+03  0.96907260109E+03  0.00000000000E+00 0. -1.
          1    1    1    2  502    0 -0.18713254141E+02 -0.23145642102E+02  0.47546507553E+02  0.56094358089E+02  0.00000000000E+00 0. -1.
         22    1    3    3    0    0 -0.13565092262E+02  0.45741258940E+02 -0.43723998035E+03  0.43983528157E+03  0.00000000000E+00 0. -1.
         22    1    3    3    0    0  0.33592578380E+02  0.41400943953E+02 -0.58358388592E+02  0.79045562820E+02  0.00000000000E+00 0. -1.
</event>
<event>
 7    1  0.5950675E-006  0.1455391E+03  0.7818608E-02  0.1277163E+00
          2   -1    0    0  502    0  0.00000000000E+00  0.00000000000E+00  0.19920470141E+04  0.19920470141E+04  0.00000000000E+00 0. -1.
          1   -1    0    0  501    0 -0.00000000000E+00 -0.00000000000E+00 -0.37963603866E+04  0.37963603866E+04  0.00000000000E+00 0. -1.
         25    2    1    2    0    0  0.71710379062E+02 -0.10245710124E+03  0.31879804122E+01  0.17684918193E+03  0.12500253546E+03 0.  0.
          2    1    1    2  501    0  0.59920700517E+02  0.37699100550E+02 -0.37063626621E+04  0.37070386963E+04  0.00000000000E+00 0. -1.
          1    1    1    2  502    0 -0.13163107958E+03  0.64758000688E+02  0.18988613093E+04  0.19045195225E+04  0.00000000000E+00 0. -1.
         22    1    3    3    0    0 -0.29582990422E+02 -0.55050919477E+02 -0.13034747652E+02  0.63840909329E+02  0.00000000000E+00 0.  1.
         22    1    3    3    0    0  0.10129336948E+03 -0.47406181761E+02  0.16222728064E+02  0.11300827260E+03  0.00000000000E+00 0.  1.
</event>
<event>
 7    1  0.5950675E-006  0.8644563E+02  0.7818608E-02  0.1390711E+00
          2   -1    0    0  502    0  0.00000000000E+00  0.00000000000E+00  0.60272050894E+03  0.60272050894E+03  0.00000000000E+00 0. -1.
          1   -1    0    0  501    0 -0.00000000000E+00 -0.00000000000E+00 -0.44223978647E+03  0.44223978647E+03  0.00000000000E+00 0. -1.
         25    2    1    2    0    0  0.74883242395E+02  0.93630381049E+02  0.59404023334E+02  0.18311076292E+03  0.12500626089E+03 0.  0.
          2    1    1    2  501    0 -0.69148710181E+02 -0.49923737284E+02 -0.37457382815E+03  0.38416074292E+03  0.00000000000E+00 0. -1.
          1    1    1    2  502    0 -0.57345322148E+01 -0.43706643764E+02  0.47565052728E+03  0.47768878956E+03  0.00000000000E+00 0. -1.
         22    1    3    3    0    0  0.41981233133E+02  0.84205680218E+02  0.95015003752E+02  0.13371937576E+03  0.00000000000E+00 0. -1.
         22    1    3    3    0    0  0.32902009263E+02  0.94247008303E+01 -0.35610980417E+02  0.49391387160E+02  0.00000000000E+00 0. -1.
</event>
<event>
 7    1  0.5950675E-006  0.9609625E+02  0.7818608E-02  0.1296294E+00
          2   -1    0    0  502    0  0.00000000000E+00  0.00000000000E+00  0.21929637466E+04  0.21929637466E+04  0.00000000000E+00 0. -1.
          1   -1    0    0  501    0 -0.00000000000E+00 -0.00000000000E+00 -0.11617367631E+04  0.11617367631E+04  0.00000000000E+00 0. -1.
         25    2    1    2    0    0  0.12955293208E+02 -0.14762112704E+03  0.10542092765E+04  0.10718887157E+04  0.12501353368E+03 0.  0.
          2    1    1    2  501    0  0.43614900979E+02  0.78206437355E+02 -0.11493786902E+04  0.11528616049E+04  0.00000000000E+00 0. -1.
          1    1    1    2  502    0 -0.56570194187E+02  0.69414689682E+02  0.11263963972E+04  0.11299501890E+04  0.00000000000E+00 0. -1.
         22    1    3    3    0    0 -0.74612626327E+01 -0.10679529671E+03  0.34538120443E+03  0.36159242554E+03  0.00000000000E+00 0. -1.
         22    1    3    3    0    0  0.20416555841E+02 -0.40825830324E+02  0.70882807203E+03  0.71029629020E+03  0.00000000000E+00 0. -1.
</event>
<event>
 7    1  0.5950675E-006  0.5664794E+02  0.7818608E-02  0.1480107E+00
          2   -1    0    0  502    0  0.00000000000E+00  0.00000000000E+00  0.17929449843E+04  0.17929449843E+04  0.00000000000E+00 0. -1.
          1   -1    0    0  501    0 -0.00000000000E+00 -0.00000000000E+00 -0.14520880881E+03  0.14520880881E+03  0.00000000000E+00 0. -1.
         25    2    1    2    0    0  0.31411834537E+02 -0.23557528816E+02  0.28604753853E+03  0.31462707500E+03  0.12500136604E+03 0.  0.
          2    1    1    2  501    0  0.26174697840E+02  0.22190406796E+02 -0.12810426384E+03  0.13262062952E+03  0.00000000000E+00 0. -1.
          1    1    1    2  502    0 -0.57586532377E+02  0.13671220200E+01  0.14897929008E+04  0.14909060886E+04  0.00000000000E+00 0. -1.
         22    1    3    3    0    0  0.36248087733E+02 -0.64055050440E+02  0.10002088060E+03  0.12418192263E+03  0.00000000000E+00 0.  1.
         22    1    3    3    0    0 -0.48362531960E+01  0.40497521624E+02  0.18602665793E+03  0.19044515237E+03  0.00000000000E+00 0.  1.
</event>
<event>
 7    1  0.5950675E-006  0.7744137E+02  0.7818608E-02  0.1495107E+00
          2   -1    0    0  502    0  0.00000000000E+00  0.00000000000E+00  0.12593440654E+03  0.12593440654E+03  0.00000000000E+00 0. -1.
          1   -1    0    0  501    0 -0.00000000000E+00 -0.00000000000E+00 -0.12884172118E+04  0.12884172118E+04  0.00000000000E+00 0. -1.
         25    2    1    2    0    0  0.41670093955E+02 -0.41372990234E+02 -0.11999984662E+04  0.12079196662E+04  0.12500192033E+03 0.  0.
          2    1    1    2  501    0  0.25377047930E+01 -0.22460014683E+02 -0.70142499824E+02  0.73694385720E+02  0.00000000000E+00 0. -1.
          1    1    1    2  502    0 -0.44207798748E+02  0.63833004917E+02  0.10765816070E+03  0.13273756647E+03  0.00000000000E+00 0. -1.
         22    1    3    3    0    0 -0.41519408624E+02 -0.34775988735E+02 -0.42316357993E+03  0.42661533736E+03  0.00000000000E+00 0. -1.
         22    1    3    3    0    0  0.83189502578E+02 -0.65970014994E+01 -0.77683488623E+03  0.78130432882E+03  0.00000000000E+00 0. -1.
</event>
<event>
 7    1  0.5950675E-006  0.1264215E+03  0.7818608E-02  0.1310060E+00
          2   -1    0    0  502    0  0.00000000000E+00  0.00000000000E+00  0.13475877606E+03  0.13475877606E+03  0.00000000000E+00 0. -1.
          1   -1    0    0  501    0 -0.00000000000E+00 -0.00000000000E+00 -0.13372034785E+04  0.13372034785E+04  0.00000000000E+00 0. -1.
         25    2    1    2    0    0 -0.71545665626E+02  0.27181209694E+02 -0.22398513505E+03  0.26767783893E+03  0.12499793718E+03 0.  0.
          2    1    1    2  501    0  0.12997021933E+03 -0.40808790741E+02 -0.10788053932E+04  0.10873723795E+04  0.00000000000E+00 0. -1.
          1    1    1    2  502    0 -0.58424553706E+02  0.13627581047E+02  0.10034582579E+03  0.11691203614E+03  0.00000000000E+00 0. -1.
         22    1    3    3    0    0 -0.52766271489E+02 -0.35983205966E+02 -0.17283731451E+03  0.18426016337E+03  0.00000000000E+00 0. -1.
         22    1    3    3    0    0 -0.18779394137E+02  0.63164415660E+02 -0.51147820545E+02  0.83417675563E+02  0.00000000000E+00 0. -1.
</event>
<event>
 7    1  0.5950675E-006  0.1141030E+03  0.7818608E-02  0.1457543E+00
          2   -1    0    0  502    0  0.00000000000E+00  0.00000000000E+00  0.98768510903E+03  0.98768510903E+03  0.00000000000E+00 0. -1.
          1   -1    0    0  501    0 -0.00000000000E+00 -0.00000000000E+00 -0.24218801491E+03  0.24218801491E+03  0.00000000000E+00 0. -1.
         25    2    1    2    0    0  0.54545817173E+02  0.96539708526E+02  0.47397859654E+03  0.50256774323E+03  0.12499386010E+03 0.  0.
          2    1    1    2  501    0 -0.37952059379E+02 -0.10775820971E+03 -0.21335536045E+03  0.24201797538E+03  0.00000000000E+00 0. -1.
          1    1    1    2  502    0 -0.16593757793E+02  0.11218501181E+02  0.48487385804E+03  0.48528740533E+03  0.00000000000E+00 0. -1.
         22    1    3    3    0    0  0.56231925487E+02 -0.97263769952E+01  0.21929119411E+03  0.22659492419E+03  0.00000000000E+00 0. -1.
         22    1    3    3    0    0 -0.16861083142E+01  0.10626608552E+03  0.25468740242E+03  0.27597281904E+03  0.00000000000E+00 0. -1.
</event>
<event>
 7    1  0.5950675E-006  0.8959849E+02  0.7818608E-02  0.1371018E+00
          2   -1    0    0  502    0  0.00000000000E+00  0.00000000000E+00  0.14817159980E+04  0.14817159980E+04  0.00000000000E+00 0. -1.
          1   -1    0    0  501    0 -0.00000000000E+00 -0.00000000000E+00 -0.18836198843E+03  0.18836198843E+03  0.00000000000E+00 0. -1.
         25    2    1    2    0    0 -0.39755828030E+02  0.72474006716E+02  0.10452566820E+04  0.10559448708E+04  0.12500012561E+03 0.  0.
          2    1    1    2  501    0 -0.47336247207E+02 -0.15882295648E+02 -0.17318372227E+03  0.18023753570E+03  0.00000000000E+00 0. -1.
          1    1    1    2  502    0  0.87092075237E+02 -0.56591711068E+02  0.42128104980E+03  0.43389557990E+03  0.00000000000E+00 0. -1.
         22    1    3    3    0    0  0.24133132703E+02  0.40955884543E+02  0.77499134641E+03  0.77644792458E+03  0.00000000000E+00 0. -1.
         22    1    3    3    0    0 -0.63888960733E+02  0.31518122172E+02  0.27026533562E+03  0.27949694626E+03  0.00000000000E+00 0. -1.
</event>
<event>
 7    1  0.5950675E-006  0.6880289E+02  0.7818608E-02  0.1373268E+00
          2   -1    0    0  502    0  0.00000000000E+00  0.00000000000E+00  0.13159659374E+03  0.13159659374E+03  0.00000000000E+00 0. -1.
          1   -1    0    0  501    0 -0.00000000000E+00 -0.00000000000E+00 -0.56197043513E+03  0.56197043513E+03  0.00000000000E+00 0. -1.
         25    2    1    2    0    0 -0.50527252193E+02  0.31646539567E+02 -0.51990554405E+02  0.14793329172E+03  0.12500693729E+03 0.  0.
          2    1    1    2  501    0  0.47502171882E+02  0.42627842947E+02 -0.44273568123E+03  0.44731250012E+03  0.00000000000E+00 0. -1.
          1    1    1    2  502    0  0.30250803118E+01 -0.74274382514E+02  0.64352394246E+02  0.98321237044E+02  0.00000000000E+00 0. -1.
         22    1    3    3    0    0  0.16401580195E+02  0.62148984442E+02 -0.31501097352E+02  0.71580913898E+02  0.00000000000E+00 0. -1.
         22    1    3    3    0    0 -0.66928832388E+02 -0.30502444876E+02 -0.20489457053E+02  0.76352377818E+02  0.00000000000E+00 0. -1.
</event>
<event>
 7    1  0.5950675E-006  0.9056744E+02  0.7818608E-02  0.1464827E+00
          2   -1    0    0  502    0  0.00000000000E+00  0.00000000000E+00  0.17895681616E+04  0.17895681616E+04  0.00000000000E+00 0. -1.
          1   -1    0    0  501    0 -0.00000000000E+00 -0.00000000000E+00 -0.22519147155E+03  0.22519147155E+03  0.00000000000E+00 0. -1.
         25    2    1    2    0    0  0.93944325222E+02  0.49454112757E+02  0.22094262394E+03  0.27514721317E+03  0.12497639910E+03 0.  0.
          2    1    1    2  501    0 -0.81919826345E+01 -0.22491507463E+02 -0.19605014574E+03  0.19750604075E+03  0.00000000000E+00 0. -1.
          1    1    1    2  502    0 -0.85752342587E+02 -0.26962605293E+02  0.15394842119E+04  0.15421063793E+04  0.00000000000E+00 0. -1.
         22    1    3    3    0    0  0.29688446249E+02  0.55578262450E+02  0.19611662961E+03  0.20599048402E+03  0.00000000000E+00 0.  1.
         22    1    3    3    0    0  0.64255878973E+02 -0.61241496936E+01  0.24825994328E+02  0.69156729148E+02  0.00000000000E+00 0.  1.
</event>
<event>
 7    1  0.5950675E-006  0.1688193E+03  0.7818608E-02  0.1264356E+00
          2   -1    0    0  502    0  0.00000000000E+00  0.00000000000E+00  0.19357443970E+03  0.19357443970E+03  0.00000000000E+00 0. -1.
          1   -1    0    0  501    0 -0.00000000000E+00 -0.00000000000E+00 -0.77092354662E+03  0.77092354662E+03  0.00000000000E+00 0. -1.
         25    2    1    2    0    0  0.10425122642E+03 -0.12450028284E+03 -0.74531649988E+02  0.21805554146E+03  0.12499845469E+03 0.  0.
          2    1    1    2  501    0 -0.15391463079E+03  0.76502603584E+02 -0.60173349782E+03  0.62579993954E+03  0.00000000000E+00 0. -1.
          1    1    1    2  502    0  0.49663404366E+02  0.47997679253E+02  0.98916040887E+02  0.12064250533E+03  0.00000000000E+00 0. -1.
         22    1    3    3    0    0  0.97902460923E+02 -0.28848242145E+02 -0.66586899274E+02  0.12186438399E+03  0.00000000000E+00 0. -1.
         22    1    3    3    0    0  0.63487655000E+01 -0.95652040692E+02 -0.79447507139E+01  0.96191157472E+02  0.00000000000E+00 0. -1.
</event>
<event>
 7    1  0.5950675E-006  0.7788840E+02  0.7818608E-02  0.1442120E+00
          2   -1    0    0  502    0  0.00000000000E+00  0.00000000000E+00  0.32174732011E+03  0.32174732011E+03  0.00000000000E+00 0. -1.
          1   -1    0    0  501    0 -0.00000000000E+00 -0.00000000000E+00 -0.10058199071E+04  0.10058199071E+04  0.00000000000E+00 0. -1.
         25    2    1    2    0    0  0.97933859205E+02  0.26554241857E+02 -0.17739093393E+02  0.16197314497E+03  0.12499782285E+03 0.  0.
          2    1    1    2  501    0 -0.67252441347E+02 -0.38362029878E+02 -0.91323618806E+03  0.91651234109E+03  0.00000000000E+00 0. -1.
          1    1    1    2  502    0 -0.30681417859E+02  0.11807788020E+02  0.24690269444E+03  0.24908174116E+03  0.00000000000E+00 0. -1.
         22    1    3    3    0    0  0.22757657400E+02  0.39386341589E+02 -0.59600435335E+02  0.74976041281E+02  0.00000000000E+00 0.  1.
         22    1    3    3    0    0  0.75176201805E+02 -0.12832099731E+02  0.41861341942E+02  0.86997103690E+02  0.00000000000E+00 0.  1.
</event>
<event>
 7    1  0.5950675E-006  0.9402980E+02  0.7818608E-02  0.1374945E+00
          2   -1    0    0  502    0  0.00000000000E+00  0.00000000000E+00  0.31809742338E+03  0.31809742338E+03  0.00000000000E+00 0. -1.
          1   -1    0    0  501    0 -0.00000000000E+00 -0.00000000000E+00 -0.73792210086E+03  0.73792210086E+03  0.00000000000E+00 0. -1.
         25    2    1    2    0    0 -0.75292841750E+02 -0.88345566666E+02  0.23345368289E+03  0.28913318691E+03  0.12499370604E+03 0.  0.
          2    1    1    2  501    0  0.29239243033E+02  0.89197189894E+02 -0.69705133361E+03  0.70334318345E+03  0.00000000000E+00 0. -1.
          1    1    1    2  502    0  0.46053598717E+02 -0.85162322752E+00  0.43772973247E+02  0.63543153871E+02  0.00000000000E+00 0. -1.
         22    1    3    3    0    0 -0.62808095290E+02 -0.99055967654E+02  0.98452050690E+02  0.15313310500E+03  0.00000000000E+00 0. -1.
         22    1    3    3    0    0 -0.12484746460E+02  0.10710400987E+02  0.13500163220E+03  0.13600008191E+03  0.00000000000E+00 0. -1.
</event>
<event>
 7    1  0.5950675E-006  0.4667029E+02  0.7818608E-02  0.1533133E+00
          2   -1    0    0  502    0  0.00000000000E+00  0.00000000000E+00  0.23068240475E+04  0.23068240475E+04  0.00000000000E+00 0. -1.
          1   -1    0    0  501    0 -0.00000000000E+00 -0.00000000000E+00 -0.28531352868E+02  0.28531352868E+02  0.00000000000E+00 0. -1.
         25    2    1    2    0    0  0.51136098107E+02 -0.27823746433E+01  0.20339172997E+04  0.20383981621E+04  0.12499937241E+03 0.  0.
          2    1    1    2  501    0 -0.40051926020E+02 -0.24042800024E+02 -0.40060921816E+01  0.46885624508E+02  0.00000000000E+00 0. -1.
          1    1    1    2  502    0 -0.11084172087E+02  0.26825174667E+02  0.24838148709E+03  0.25007161373E+03  0.00000000000E+00 0. -1.
         22    1    3    3    0    0  0.85425548938E+02 -0.21556792065E+02  0.16841636172E+04  0.16864665159E+04  0.00000000000E+00 0. -1.
         22    1    3    3    0    0 -0.34289450832E+02  0.18774417422E+02  0.34975368250E+03  0.35193164621E+03  0.00000000000E+00 0. -1.
</event>
<event>
 7    1  0.5950675E-006  0.8285588E+02  0.7818608E-02  0.1399119E+00
          2   -1    0    0  502    0  0.00000000000E+00  0.00000000000E+00  0.12265789277E+03  0.12265789277E+03  0.00000000000E+00 0. -1.
          1   -1    0    0  501    0 -0.00000000000E+00 -0.00000000000E+00 -0.47561638516E+03  0.47561638516E+03  0.00000000000E+00 0. -1.
         25    2    1    2    0    0  0.74896820166E+02  0.72331768388E+02 -0.16347860360E+03  0.23063085198E+03  0.12499567056E+03 0.  0.
          2    1    1    2  501    0 -0.42925671340E+02  0.26474069085E+01 -0.25775357697E+03  0.26131691194E+03  0.00000000000E+00 0. -1.
          1    1    1    2  502    0 -0.31971148826E+02 -0.74979175297E+02  0.68273688176E+02  0.10632651401E+03  0.00000000000E+00 0. -1.
         22    1    3    3    0    0  0.13803619080E+02  0.66245333003E+02 -0.15438727224E+03  0.16856575534E+03  0.00000000000E+00 0.  1.
         22    1    3    3    0    0  0.61093201086E+02  0.60864353853E+01 -0.90913313628E+01  0.62065096637E+02  0.00000000000E+00 0.  1.
</event>
<event>
 7    1  0.5950675E-006  0.5265437E+02  0.7818608E-02  0.1456045E+00
          2   -1    0    0  502    0  0.00000000000E+00  0.00000000000E+00  0.66325872352E+03  0.66325872352E+03  0.00000000000E+00 0. -1.
          1   -1    0    0  501    0 -0.00000000000E+00 -0.00000000000E+00 -0.56529340463E+03  0.56529340463E+03  0.00000000000E+00 0. -1.
         25    2    1    2    0    0  0.16843343999E+02  0.17165835763E+02  0.90047972582E+02  0.15590654638E+03  0.12497939704E+03 0.  0.
          2    1    1    2  501    0  0.95822177214E+01 -0.52199894015E+02 -0.53014593545E+03  0.53279579644E+03  0.00000000000E+00 0. -1.
          1    1    1    2  502    0 -0.26425561720E+02  0.35034058252E+02  0.53806328176E+03  0.53984978533E+03  0.00000000000E+00 0. -1.
         22    1    3    3    0    0  0.13151701209E+02 -0.10786993442E+02  0.11620688760E+03  0.11744516677E+03  0.00000000000E+00 0.  1.
         22    1    3    3    0    0  0.36916427905E+01  0.27952829205E+02 -0.26158915013E+02  0.38461379613E+02  0.00000000000E+00 0.  1.
</event>
<event>
 7    1  0.5950675E-006  0.8878879E+02  0.7818608E-02  0.1377543E+00
          2   -1    0    0  502    0  0.00000000000E+00  0.00000000000E+00  0.51816468381E+03  0.51816468381E+03  0.00000000000E+00 0. -1.
          1   -1    0    0  501    0 -0.00000000000E+00 -0.00000000000E+00 -0.19277629326E+04  0.19277629326E+04  0.00000000000E+00 0. -1.
         25    2    1    2    0    0 -0.57213333146E+02 -0.32529653487E+02  0.20288573811E+03  0.24722397648E+03  0.12500211188E+03 0.  0.
          2    1    1    2  501    0  0.88882029498E+02 -0.32104531569E+01 -0.19026031686E+04  0.19046808497E+04  0.00000000000E+00 0. -1.
          1    1    1    2  502    0 -0.31668696353E+02  0.35740106644E+02  0.29011918171E+03  0.29402279018E+03  0.00000000000E+00 0. -1.
         22    1    3    3    0    0 -0.61173743623E+02  0.15009847967E+02  0.33690506123E+02  0.71432294151E+02  0.00000000000E+00 0. -1.
         22    1    3    3    0    0  0.39604104773E+01 -0.47539501454E+02  0.16919523199E+03  0.17579168233E+03  0.00000000000E+00 0. -1.
</event>
<event>
 7    1  0.5950675E-006  0.2246748E+03  0.7818608E-02  0.1220849E+00
          2   -1    0    0  502    0  0.00000000000E+00  0.00000000000E+00  0.14519204433E+04  0.14519204433E+04  0.00000000000E+00 0. -1.
          1   -1    0    0  501    0 -0.00000000000E+00 -0.00000000000E+00 -0.11180556608E+04  0.11180556608E+04  0.00000000000E+00 0. -1.
         25    2    1    2    0    0  0.83289465468E+02 -0.14700797201E+03 -0.16866960290E+03  0.26948806656E+03  0.12500361669E+03 0.  0.
          2    1    1    2  501    0 -0.15067934625E+03  0.19119268369E+03 -0.88130363175E+03  0.91430574701E+03  0.00000000000E+00 0. -1.
          1    1    1    2  502    0  0.67389880783E+02 -0.44184711682E+02  0.13838380171E+04  0.13861822905E+04  0.00000000000E+00 0. -1.
         22    1    3    3    0    0 -0.18689694083E+02 -0.79990085570E+02 -0.10018123825E+03  0.12955307388E+03  0.00000000000E+00 0.  1.
         22    1    3    3    0    0  0.10197915955E+03 -0.67017886438E+02 -0.68488364652E+02  0.13993499269E+03  0.00000000000E+00 0.  1.
</event>
<event>
 7    1  0.5950675E-006  0.5239658E+02  0.7818608E-02  0.1517318E+00
          2   -1    0    0  502    0  0.00000000000E+00  0.00000000000E+00  0.30660440241E+03  0.30660440241E+03  0.00000000000E+00 0. -1.
          1   -1    0    0  501    0 -0.00000000000E+00 -0.00000000000E+00 -0.12116783201E+03  0.12116783201E+03  0.00000000000E+00 0. -1.
         25    2    1    2    0    0 -0.42631071477E+02 -0.24851312673E+02  0.42054897236E+02  0.14082847950E+03  0.12501619998E+03 0.  0.
          2    1    1    2  501    0  0.18148363583E+02 -0.22253106699E+02 -0.65448918044E+02  0.71471146148E+02  0.00000000000E+00 0. -1.
          1    1    1    2  502    0  0.24482707893E+02  0.47104419372E+02  0.20883059121E+03  0.21547260878E+03  0.00000000000E+00 0. -1.
         22    1    3    3    0    0 -0.32870873324E+02 -0.58438363282E+02  0.69349926212E+02  0.96462162954E+02  0.00000000000E+00 0.  1.
         22    1    3    3    0    0 -0.97601981526E+01  0.33587050609E+02 -0.27295028977E+02  0.44366316541E+02  0.00000000000E+00 0.  1.
</event>
<event>
 7    1  0.5950675E-006  0.1494286E+03  0.7818608E-02  0.1397791E+00
          2   -1    0    0  502    0  0.00000000000E+00  0.00000000000E+00  0.59349761235E+03  0.59349761235E+03  0.00000000000E+00 0. -1.
          1   -1    0    0  501    0 -0.00000000000E+00 -0.00000000000E+00 -0.21109366087E+04  0.21109366087E+04  0.00000000000E+00 0. -1.
         25    2    1    2    0    0  0.12755550751E+03 -0.31464129383E+01 -0.78309506779E+03  0.80320788446E+03  0.12499885222E+03 0.  0.
          2    1    1    2  501    0  0.21990636529E+02  0.98590538982E+01 -0.13080701858E+04  0.13082921692E+04  0.00000000000E+00 0. -1.
          1    1    1    2  502    0 -0.14954614404E+03 -0.67126409599E+01  0.57372625718E+03  0.59293416744E+03  0.00000000000E+00 0. -1.
         22    1    3    3    0    0  0.41445535053E+02  0.25636111456E+02 -0.75833409466E+02  0.90142379476E+02  0.00000000000E+00 0.  1.
         22    1    3    3    0    0  0.86109972459E+02 -0.28782524394E+02 -0.70726165832E+03  0.71306550499E+03  0.00000000000E+00 0.  1.
</event>
<event>
 7    1  0.5950675E-006  0.1136827E+03  0.7818608E-02  0.1298917E+00
          2   -1    0    0  502    0  0.00000000000E+00  0.00000000000E+00  0.65433059472E+03  0.65433059472E+03  0.00000000000E+00 0. -1.
          1   -1    0    0  501    0 -0.00000000000E+00 -0.00000000000E+00 -0.51288364735E+03  0.51288364735E+03  0.00000000000E+00 0. -1.
         25    2    1    2    0    0  0.36765741331E+02 -0.15092086009E+03 -0.11755100138E+03  0.23145602653E+03  0.12499931417E+03 0.  0.
          2    1    1    2  501    0 -0.69104260546E+02  0.84495778901E+02 -0.32719789774E+03  0.34492520894E+03  0.00000000000E+00 0. -1.
          1    1    1    2  502    0  0.32338519215E+02  0.66425081193E+02  0.58619584650E+03  0.59083300660E+03  0.00000000000E+00 0. -1.
         22    1    3    3    0    0 -0.16456541979E+02 -0.12497296767E+03 -0.36782475094E+02  0.13130883785E+03  0.00000000000E+00 0.  1.
         22    1    3    3    0    0  0.53222283310E+02 -0.25947892419E+02 -0.80768526289E+02  0.10014718868E+03  0.00000000000E+00 0.  1.
</event>
<event>
 7    1  0.5950675E-006  0.1281489E+03  0.7818608E-02  0.1430701E+00
          2   -1    0    0  502    0  0.00000000000E+00  0.00000000000E+00  0.18087785265E+04  0.18087785265E+04  0.00000000000E+00 0. -1.
          1   -1    0    0  501    0 -0.00000000000E+00 -0.00000000000E+00 -0.26602155353E+03  0.26602155353E+03  0.00000000000E+00 0. -1.
         25    2    1    2    0    0  0.15929254879E+02 -0.12179864247E+03  0.68602638988E+03  0.70805743405E+03  0.12499788732E+03 0.  0.
          2    1    1    2  501    0 -0.20021623710E+02 -0.85499444003E+01 -0.25070813249E+03  0.25165161367E+03  0.00000000000E+00 0. -1.
          1    1    1    2  502    0  0.40923688315E+01  0.13034858687E+03  0.11074387156E+04  0.11150910323E+04  0.00000000000E+00 0. -1.
         22    1    3    3    0    0 -0.15764736979E+02 -0.11447685554E+03  0.31359985021E+03  0.33421302105E+03  0.00000000000E+00 0.  1.
         22    1    3    3    0    0  0.31693991858E+02 -0.73217869310E+01  0.37242653967E+03  0.37384441300E+03  0.00000000000E+00 0.  1.
</event>
<event>
 7    1  0.5950675E-006  0.8691929E+02  0.7818608E-02  0.1328179E+00
          2   -1    0    0  502    0  0.00000000000E+00  0.00000000000E+00  0.58234314698E+02  0.58234314698E+02  0.00000000000E+00 0. -1.
          1   -1    0    0  501    0 -0.00000000000E+00 -0.00000000000E+00 -0.15689230062E+04  0.15689230062E+04  0.00000000000E+00 0. -1.
         25    2    1    2    0    0  0.11732436505E+02  0.94303049952E+02 -0.67376346155E+03  0.69181894134E+03  0.12500212068E+03 0.  0.
          2    1    1    2  501    0  0.58408744865E+02 -0.70097775230E+02 -0.85427729693E+03  0.85913618223E+03  0.00000000000E+00 0. -1.
          1    1    1    2  502    0 -0.70141181370E+02 -0.24205274722E+02  0.17352066985E+02  0.76202197324E+02  0.00000000000E+00 0. -1.
         22    1    3    3    0    0 -0.32763209681E+02  0.72128490920E+02 -0.19495171022E+03  0.21043316381E+03  0.00000000000E+00 0.  1.
         22    1    3    3    0    0  0.44495646187E+02  0.22174559032E+02 -0.47881175133E+03  0.48138577753E+03  0.00000000000E+00 0.  1.
</event>
<event>
 7    1  0.5950675E-006  0.1848508E+03  0.7818608E-02  0.1283245E+00
          2   -1    0    0  502    0  0.00000000000E+00  0.00000000000E+00  0.15181123808E+04  0.15181123808E+04  0.00000000000E+00 0. -1.
          1   -1    0    0  501    0 -0.00000000000E+00 -0.00000000000E+00 -0.12596880722E+04  0.12596880722E+04  0.00000000000E+00 0. -1.
         25    2    1    2    0    0  0.18476481029E+01  0.20175080827E+03  0.21789327847E+03  0.32219402658E+03  0.12499883010E+03 0.  0.
          2    1    1    2  501    0 -0.46842305222E+02 -0.23939057343E+02 -0.12002197324E+04  0.12013720015E+04  0.00000000000E+00 0. -1.
          1    1    1    2  502    0  0.44994657119E+02 -0.17781175092E+03  0.12407507626E+04  0.12542344249E+04  0.00000000000E+00 0. -1.
         22    1    3    3    0    0  0.29785737109E+02  0.20435492172E+03  0.17372957513E+03  0.26987050494E+03  0.00000000000E+00 0.  1.
         22    1    3    3    0    0 -0.27938089006E+02 -0.26041134518E+01  0.44163703340E+02  0.52323521640E+02  0.00000000000E+00 0.  1.
</event>
<event>
 7    1  0.5950675E-006  0.1049617E+03  0.7818608E-02  0.1333366E+00
          2   -1    0    0  502    0  0.00000000000E+00  0.00000000000E+00  0.47107938854E+03  0.47107938854E+03  0.00000000000E+00 0. -1.
          1   -1    0    0  501    0 -0.00000000000E+00 -0.00000000000E+00 -0.10308035314E+04  0.10308035314E+04  0.00000000000E+00 0. -1.
         25    2    1    2    0    0 -0.47953282398E+02 -0.51086662908E+02 -0.57704709329E+02  0.15448154712E+03  0.12500140200E+03 0.  0.
          2    1    1    2  501    0 -0.55242627562E+02  0.19871092170E+02 -0.91688141204E+03  0.91875901734E+03  0.00000000000E+00 0. -1.
          1    1    1    2  502    0  0.10319590996E+03  0.31215570738E+02  0.41486197851E+03  0.42864235547E+03  0.00000000000E+00 0. -1.
         22    1    3    3    0    0 -0.50203980560E+02  0.27845819771E+02 -0.48174318022E+02  0.74943940780E+02  0.00000000000E+00 0. -1.
         22    1    3    3    0    0  0.22506981629E+01 -0.78932482679E+02 -0.95303913067E+01  0.79537606341E+02  0.00000000000E+00 0. -1.
</event>
<event>
 7    1  0.5950675E-006  0.1651349E+03  0.7818608E-02  0.1335462E+00
          2   -1    0    0  502    0  0.00000000000E+00  0.00000000000E+00  0.73745671409E+03  0.73745671409E+03  0.00000000000E+00 0. -1.
          1   -1    0    0  501    0 -0.00000000000E+00 -0.00000000000E+00 -0.27971779828E+03  0.27971779828E+03  0.00000000000E+00 0. -1.
         25    2    1    2    0    0 -0.12953951804E+03 -0.33856816199E+02  0.35295457560E+03  0.39765083539E+03  0.12498993445E+03 0.  0.
          2    1    1    2  501    0  0.16538289824E+03  0.26266436363E+02 -0.22902236409E+03  0.28371230492E+03  0.00000000000E+00 0. -1.
          1    1    1    2  502    0 -0.35843380198E+02  0.75903798358E+01  0.33380670429E+03  0.33581137205E+03  0.00000000000E+00 0. -1.
         22    1    3    3    0    0 -0.16424471695E+02 -0.71561017295E+01  0.22134505827E+03  0.22206892597E+03  0.00000000000E+00 0. -1.
         22    1    3    3    0    0 -0.11311504635E+03 -0.26700714469E+02  0.13160951733E+03  0.17558190942E+03  0.00000000000E+00 0. -1.
</event>
<event>
 7    1  0.5950675E-006  0.9560256E+02  0.7818608E-02  0.1380998E+00
          2   -1    0    0  502    0  0.00000000000E+00  0.00000000000E+00  0.68456270233E+02  0.68456270233E+02  0.00000000000E+00 0. -1.
          1   -1    0    0  501    0 -0.00000000000E+00 -0.00000000000E+00 -0.15663824432E+04  0.15663824432E+04  0.00000000000E+00 0. -1.
         25    2    1    2    0    0  0.54333321220E+02  0.14704571516E+02 -0.13461610054E+03  0.19213299291E+03  0.12500103288E+03 0.  0.
          2    1    1    2  501    0 -0.89819512396E+02 -0.39192198733E+02 -0.13890427216E+04  0.13924953342E+04  0.00000000000E+00 0. -1.
          1    1    1    2  502    0  0.35486191176E+02  0.24487627217E+02  0.25732649262E+02  0.50210386266E+02  0.00000000000E+00 0. -1.
         22    1    3    3    0    0 -0.15945579972E+01 -0.55656962018E+01 -0.13248030719E+03  0.13260675466E+03  0.00000000000E+00 0.  1.
         22    1    3    3    0    0  0.55927879217E+02  0.20270267718E+02 -0.21357933547E+01  0.59526238251E+02  0.00000000000E+00 0.  1.
</event>
<event>
 7    1  0.5950675E-006  0.6383169E+02  0.7818608E-02  0.1424536E+00
          2   -1    0    0  502    0  0.00000000000E+00  0.00000000000E+00  0.15508634417E+03  0.15508634417E+03  0.00000000000E+00 0. -1.
          1   -1    0    0  501    0 -0.00000000000E+00 -0.00000000000E+00 -0.94327460340E+03  0.94327460340E+03  0.00000000000E+00 0. -1.
         25    2    1    2    0    0  0.66340051774E+02  0.39032170347E+01 -0.27163913367E+02  0.14414899690E+03  0.12499927018E+03 0.  0.
          2    1    1    2  501    0 -0.14346516260E+02 -0.43500798639E+02 -0.84587232650E+03  0.84711164244E+03  0.00000000000E+00 0. -1.
          1    1    1    2  502    0 -0.51993535515E+02  0.39597581604E+02  0.84847980643E+02  0.10710030823E+03  0.00000000000E+00 0. -1.
         22    1    3    3    0    0  0.10378144915E+03  0.12771452733E+01 -0.23663698216E+02  0.10645276371E+03  0.00000000000E+00 0. -1.
         22    1    3    3    0    0 -0.37441397378E+02  0.26260717614E+01 -0.35002151513E+01  0.37696233189E+02  0.00000000000E+00 0. -1.
</event>
<event>
 7    1  0.5950675E-006  0.5542651E+02  0.7818608E-02  0.1529180E+00
          2   -1    0    0  502    0  0.00000000000E+00  0.00000000000E+00  0.17000788884E+04  0.17000788884E+04  0.00000000000E+00 0. -1.
          1   -1    0    0  501    0 -0.00000000000E+00 -0.00000000000E+00 -0.16130510909E+03  0.16130510909E+03  0.00000000000E+00 0. -1.
         25    2    1    2    0    0 -0.40776926920E+02  0.64368427190E+02  0.11667151314E+03  0.18719944745E+03  0.12500135583E+03 0.  0.
          2    1    1    2  501    0  0.19505711872E+02 -0.51073551145E+02 -0.12000575997E+03  0.13187252500E+03  0.00000000000E+00 0. -1.
          1    1    1    2  502    0  0.21271215048E+02 -0.13294876045E+02  0.15421080261E+04  0.15423120250E+04  0.00000000000E+00 0. -1.
         22    1    3    3    0    0 -0.22375525778E+02  0.58885416774E+02  0.14204114473E+03  0.15538289242E+03  0.00000000000E+00 0. -1.
         22    1    3    3    0    0 -0.18401401142E+02  0.54830104152E+01 -0.25369631585E+02  0.31816555030E+02  0.00000000000E+00 0. -1.
</event>
<event>
 7    1  0.5950675E-006  0.1271590E+03  0.7818608E-02  0.1303050E+00
          2   -1    0    0  502    0  0.00000000000E+00  0.00000000000E+00  0.32732507899E+04  0.32732507899E+04  0.00000000000E+00 0. -1.
          1   -1    0    0  501    0 -0.00000000000E+00 -0.00000000000E+00 -0.91423440552E+02  0.91423440552E+02  0.00000000000E+00 0. -1.
         25    2    1    2    0    0  0.14817096004E+03 -0.41435823463E+02  0.33886361868E+03  0.39258703954E+03  0.12499788272E+03 0.  0.
          2    1    1    2  501    0 -0.96574915773E+02  0.78594963774E+02 -0.38396854339E+01  0.12457377682E+03  0.00000000000E+00 0. -1.
          1    1    1    2  502    0 -0.51596044271E+02 -0.37159140311E+02  0.28468034161E+04  0.28475134140E+04  0.00000000000E+00 0. -1.
         22    1    3    3    0    0  0.85275953118E+02 -0.41504758342E+02  0.30849482159E+03  0.32274399776E+03  0.00000000000E+00 0.  1.
         22    1    3    3    0    0  0.62895006926E+02  0.68934878918E-01  0.30368797095E+02  0.69843041781E+02  0.00000000000E+00 0.  1.
</event>
<event>
 7    1  0.5950675E-006  0.5115215E+02  0.7818608E-02  0.1447588E+00
          2   -1    0    0  502    0  0.00000000000E+00  0.00000000000E+00  0.45064379687E+02  0.45064379687E+02  0.00000000000E+00 0. -1.
          1   -1    0    0  501    0 -0.00000000000E+00 -0.00000000000E+00 -0.12746550281E+04  0.12746550281E+04  0.00000000000E+00 0. -1.
         25    2    1    2    0    0  0.39552538851E+02  0.23570709493E+01 -0.89125603744E+03  0.90085052419E+03  0.12499753416E+03 0.  0.
          2    1    1    2  501    0 -0.39253539727E+02 -0.50423731100E+02 -0.36036962322E+03  0.36599133648E+03  0.00000000000E+00 0. -1.
          1    1    1    2  502    0 -0.29899912407E+00  0.48066660151E+02  0.22035012286E+02  0.52877547078E+02  0.00000000000E+00 0. -1.
         22    1    3    3    0    0  0.12078904283E+02 -0.27747802690E+02 -0.80374009894E+03  0.80430963387E+03  0.00000000000E+00 0.  1.
         22    1    3    3    0    0  0.27473634568E+02  0.30104873640E+02 -0.87515938503E+02  0.96540890328E+02  0.00000000000E+00 0.  1.
</event>
<event>
 7    1  0.5950675E-006  0.7756619E+02  0.7818608E-02  0.1461705E+00
          2   -1    0    0  502    0  0.00000000000E+00  0.00000000000E+00  0.30630001955E+03  0.30630001955E+03  0.00000000000E+00 0. -1.
          1   -1    0    0  501    0 -0.00000000000E+00 -0.00000000000E+00 -0.10985393449E+04  0.10985393449E+04  0.00000000000E+00 0. -1.
         25    2    1    2    0    0  0.17223966548E+02  0.63524766275E+02 -0.17415168099E+03  0.22424267169E+03  0.12499562737E+03 0.  0.
          2    1    1    2  501    0 -0.24868576411E+02  0.14099055932E+02 -0.89370139867E+03  0.89415849795E+03  0.00000000000E+00 0. -1.
          1    1    1    2  502    0  0.76446098624E+01 -0.77623822207E+02  0.27561375436E+03  0.28643819477E+03  0.00000000000E+00 0. -1.
         22    1    3    3    0    0 -0.21857419763E+02  0.30450975328E+02 -0.16863241491E+03  0.17274808264E+03  0.00000000000E+00 0.  1.
         22    1    3    3    0    0  0.39081386311E+02  0.33073790947E+02 -0.55192660824E+01  0.51494589053E+02  0.00000000000E+00 0.  1.
</event>
<event>
 7    1  0.5950675E-006  0.8961855E+02  0.7818608E-02  0.1355470E+00
          2   -1    0    0  502    0  0.00000000000E+00  0.00000000000E+00  0.36932076531E+03  0.36932076531E+03  0.00000000000E+00 0. -1.
          1   -1    0    0  501    0 -0.00000000000E+00 -0.00000000000E+00 -0.44882907811E+03  0.44882907811E+03  0.00000000000E+00 0. -1.
         25    2    1    2    0    0 -0.81877471910E+02 -0.12286896942E+02  0.25385388447E+03  0.29482312267E+03  0.12499596295E+03 0.  0.
          2    1    1    2  501    0 -0.20832683547E+01 -0.56811373122E+02 -0.39450312934E+03  0.39857821212E+03  0.00000000000E+00 0. -1.
          1    1    1    2  502    0  0.83960740265E+02  0.69098270064E+02  0.61140932068E+02  0.12474850863E+03  0.00000000000E+00 0. -1.
         22    1    3    3    0    0 -0.26935835422E+02  0.49857637276E+02  0.53315457889E+02  0.77806563184E+02  0.00000000000E+00 0. -1.
         22    1    3    3    0    0 -0.54941636489E+02 -0.62144534218E+02  0.20053842658E+03  0.21701655948E+03  0.00000000000E+00 0. -1.
</event>
<event>
 7    1  0.5950675E-006  0.7782091E+02  0.7818608E-02  0.1376179E+00
          2   -1    0    0  502    0  0.00000000000E+00  0.00000000000E+00  0.46074807180E+04  0.46074807180E+04  0.00000000000E+00 0. -1.
          1   -1    0    0  501    0 -0.00000000000E+00 -0.00000000000E+00 -0.58846813071E+03  0.58846813071E+03  0.00000000000E+00 0. -1.
         25    2    1    2    0    0 -0.12671459817E+03 -0.39713523160E+02 -0.97755703158E+02  0.20691629995E+03  0.12499769748E+03 0.  0.
          2    1    1    2  501    0  0.52708085535E+02  0.16038248104E+02 -0.43405922390E+03  0.43754174377E+03  0.00000000000E+00 0. -1.
          1    1    1    2  502    0  0.74006512635E+02  0.23675275056E+02  0.45508275144E+04  0.45514908050E+04  0.00000000000E+00 0. -1.
         22    1    3    3    0    0 -0.96902613909E+02 -0.49900814416E+02 -0.51718105312E+01  0.10911899691E+03  0.00000000000E+00 0.  1.
         22    1    3    3    0    0 -0.29811984261E+02  0.10187291256E+02 -0.92583892627E+02  0.97797303044E+02  0.00000000000E+00 0.  1.
</event>
<event>
 7    1  0.5950675E-006  0.4724868E+02  0.7818608E-02  0.1461825E+00
          2   -1    0    0  502    0  0.00000000000E+00  0.00000000000E+00  0.10389958287E+04  0.10389958287E+04  0.00000000000E+00 0. -1.
          1   -1    0    0  501    0 -0.00000000000E+00 -0.00000000000E+00 -0.14124205168E+03  0.14124205168E+03  0.00000000000E+00 0. -1.
         25    2    1    2    0    0  0.39153849380E+01 -0.63746317536E+02  0.44634664732E+03  0.46789871465E+03  0.12499981744E+03 0.  0.
          2    1    1    2  501    0 -0.36512179163E+02  0.30040452912E+02 -0.12519903161E+03  0.13382961389E+03  0.00000000000E+00 0. -1.
          1    1    1    2  502    0  0.32596794225E+02  0.33705864624E+02  0.57660616133E+03  0.57850955185E+03  0.00000000000E+00 0. -1.
         22    1    3    3    0    0  0.20294869995E+02 -0.71064071177E+02  0.44364252892E+03  0.44975624224E+03  0.00000000000E+00 0.  1.
         22    1    3    3    0    0 -0.16379485057E+02  0.73177536405E+01  0.27041183962E+01  0.18142472417E+02  0.00000000000E+00 0.  1.
</event>
<event>
 7    1  0.5950675E-006  0.8136531E+02  0.7818608E-02  0.1388213E+00
          2   -1    0    0  502    0  0.00000000000E+00  0.00000000000E+00  0.21545788783E+03  0.21545788783E+03  0.00000000000E+00 0. -1.
          1   -1    0    0  501    0 -0.00000000000E+00 -0.00000000000E+00 -0.25584405010E+03  0.25584405010E+03  0.00000000000E+00 0. -1.
         25    2    1    2    0    0  0.45907710955E+02 -0.26047069487E+02  0.68805222978E+02  0.15213603668E+03  0.12500098877E+03 0.  0.
          2    1    1    2  501    0 -0.40830974598E+02  0.73560456611E+02 -0.19976593424E+03  0.21675963127E+03  0.00000000000E+00 0. -1.
          1    1    1    2  502    0 -0.50767363571E+01 -0.47513387124E+02  0.90574548996E+02  0.10240626999E+03  0.00000000000E+00 0. -1.
         22    1    3    3    0    0  0.59972881596E+02 -0.49430854763E+02 -0.42752384256E+00  0.77719615967E+02  0.00000000000E+00 0. -1.
         22    1    3    3    0    0 -0.14065170641E+02  0.23383785275E+02  0.69232746820E+02  0.74416420710E+02  0.00000000000E+00 0. -1.
</event>
<event>
 7    1  0.5950675E-006  0.3591414E+02  0.7818608E-02  0.1562018E+00
          2   -1    0    0  502    0  0.00000000000E+00  0.00000000000E+00  0.62315759466E+03  0.62315759466E+03  0.00000000000E+00 0. -1.
          1   -1    0    0  501    0 -0.00000000000E+00 -0.00000000000E+00 -0.20409627423E+03  0.20409627423E+03  0.00000000000E+00 0. -1.
         25    2    1    2    0    0 -0.18921367380E+02 -0.24914059770E+02 -0.84962508895E+01  0.12913438955E+03  0.12499910307E+03 0.  0.
          2    1    1    2  501    0  0.29850132227E+02 -0.94544781840E+01 -0.13288175504E+03  0.13652098145E+03  0.00000000000E+00 0. -1.
          1    1    1    2  502    0 -0.10928764847E+02  0.34368537954E+02  0.56043932636E+03  0.56159849789E+03  0.00000000000E+00 0. -1.
         22    1    3    3    0    0 -0.41980998391E+02 -0.65245025175E+02  0.11727353792E+02  0.78465587125E+02  0.00000000000E+00 0.  1.
         22    1    3    3    0    0  0.23059631011E+02  0.40330965404E+02 -0.20223604682E+02  0.50668802425E+02  0.00000000000E+00 0.  1.
</event>
<event>
 7    1  0.5950675E-006  0.4538889E+02  0.7818608E-02  0.1546270E+00
          2   -1    0    0  502    0  0.00000000000E+00  0.00000000000E+00  0.79316663544E+03  0.79316663544E+03  0.00000000000E+00 0. -1.
          1   -1    0    0  501    0 -0.00000000000E+00 -0.00000000000E+00 -0.26004563063E+03  0.26004563063E+03  0.00000000000E+00 0. -1.
         25    2    1    2    0    0  0.25895863795E+02  0.53894858953E+02 -0.26471027209E+02  0.14106847543E+03  0.12499739155E+03 0.  0.
          2    1    1    2  501    0 -0.35089338107E+02 -0.28085896485E+02 -0.17315076166E+03  0.17888897533E+03  0.00000000000E+00 0. -1.
          1    1    1    2  502    0  0.91934743118E+01 -0.25808962468E+02  0.73274279367E+03  0.73325481532E+03  0.00000000000E+00 0. -1.
         22    1    3    3    0    0 -0.50632416663E+02  0.19846273420E+02 -0.15792401036E+02  0.56629639910E+02  0.00000000000E+00 0.  1.
         22    1    3    3    0    0  0.76528280458E+02  0.34048585533E+02 -0.10678626173E+02  0.84438835518E+02  0.00000000000E+00 0.  1.
</event>
<event>
 7    1  0.5950675E-006  0.8932892E+02  0.7818608E-02  0.1426843E+00
          2   -1    0    0  502    0  0.00000000000E+00  0.00000000000E+00  0.33767194507E+03  0.33767194507E+03  0.00000000000E+00 0. -1.
          1   -1    0    0  501    0 -0.00000000000E+00 -0.00000000000E+00 -0.12464228623E+03  0.12464228623E+03  0.00000000000E+00 0. -1.
         25    2    1    2    0    0  0.38266182903E+02 -0.60626293985E+02  0.28506779038E+03  0.31941866888E+03  0.12499917055E+03 0.  0.
          2    1    1    2  501    0 -0.22034836437E+02  0.88390187564E+02 -0.56321358579E+02  0.10710020871E+03  0.00000000000E+00 0. -1.
          1    1    1    2  502    0 -0.16231346467E+02 -0.27763893579E+02 -0.15716772959E+02  0.35795353707E+02  0.00000000000E+00 0. -1.
         22    1    3    3    0    0 -0.97769209476E+01  0.23455372750E+02  0.15602492720E+03  0.15808074077E+03  0.00000000000E+00 0. -1.
         22    1    3    3    0    0  0.48043103851E+02 -0.84081666735E+02  0.12904286317E+03  0.16133792810E+03  0.00000000000E+00 0. -1.
</event>
<event>
 7    1  0.5950675E-006  0.1178492E+03  0.7818608E-02  0.1362197E+00
          2   -1    0    0  502    0  0.00000000000E+00  0.00000000000E+00  0.68655855857E+03  0.68655855857E+03  0.00000000000E+00 0. -1.
          1   -1    0    0  501    0 -0.00000000000E+00 -0.00000000000E+00 -0.21408202575E+03  0.21408202575E+03  0.00000000000E+00 0. -1.
         25    2    1    2    0    0  0.88671364661E+02  0.75827441663E+02  0.31697747885E+03  0.36015267362E+03  0.12499125727E+03 0.  0.
          2    1    1    2  501    0 -0.11076696516E+03 -0.41467551868E+02 -0.17294092323E+03  0.20951716244E+03  0.00000000000E+00 0. -1.
          1    1    1    2  502    0  0.22095600497E+02 -0.34359889795E+02  0.32843997720E+03  0.33097074827E+03  0.00000000000E+00 0. -1.
         22    1    3    3    0    0  0.11513225554E+03  0.47159492724E+02  0.18829794483E+03  0.22568910042E+03  0.00000000000E+00 0. -1.
         22    1    3    3    0    0 -0.26460890876E+02  0.28667948939E+02  0.12867953402E+03  0.13446357320E+03  0.00000000000E+00 0. -1.
</event>
<event>
 7    1  0.5950675E-006  0.3992920E+02  0.7818608E-02  0.1564348E+00
          2   -1    0    0  502    0  0.00000000000E+00  0.00000000000E+00  0.32382919824E+03  0.32382919824E+03  0.00000000000E+00 0. -1.
          1   -1    0    0  501    0 -0.00000000000E+00 -0.00000000000E+00 -0.12288706959E+04  0.12288706959E+04  0.00000000000E+00 0. -1.
         25    2    1    2    0    0 -0.41237010460E+02 -0.20013315674E+02 -0.66242044021E+02  0.14870807716E+03  0.12500023992E+03 0.  0.
          2    1    1    2  501    0  0.18241655497E+02  0.35549992875E+02 -0.11203572888E+04  0.11210695851E+04  0.00000000000E+00 0. -1.
          1    1    1    2  502    0  0.22995354963E+02 -0.15536677200E+02  0.28155783523E+03  0.28292223184E+03  0.00000000000E+00 0. -1.
         22    1    3    3    0    0 -0.29101232171E+01  0.25029165476E+02 -0.83403290109E+02  0.87126555897E+02  0.00000000000E+00 0. -1.
         22    1    3    3    0    0 -0.38326887243E+02 -0.45042481151E+02  0.17161246088E+02  0.61581521264E+02  0.00000000000E+00 0. -1.
</event>
<event>
 7    1  0.5950675E-006  0.1496509E+03  0.7818608E-02  0.1319206E+00
          2   -1    0    0  502    0  0.00000000000E+00  0.00000000000E+00  0.15305304724E+04  0.15305304724E+04  0.00000000000E+00 0. -1.
          1   -1    0    0  501    0 -0.00000000000E+00 -0.00000000000E+00 -0.32775980210E+04  0.32775980210E+04  0.00000000000E+00 0. -1.
         25    2    1    2    0    0 -0.18040754857E+03  0.19742526948E+02 -0.89401260665E+01  0.22054938035E+03  0.12500180946E+03 0.  0.
          2    1    1    2  501    0  0.14849520546E+03  0.14314319901E+02 -0.31607112074E+04  0.31642299319E+04  0.00000000000E+00 0. -1.
          1    1    1    2  502    0  0.31912343111E+02 -0.34056846850E+02  0.14225837848E+04  0.14233491811E+04  0.00000000000E+00 0. -1.
         22    1    3    3    0    0 -0.10033422315E+03 -0.18415479069E+02  0.50448482664E+02  0.11380305623E+03  0.00000000000E+00 0.  1.
         22    1    3    3    0    0 -0.80073325425E+02  0.38158006018E+02 -0.59388608731E+02  0.10674632413E+03  0.00000000000E+00 0.  1.
</event>
<event>
 7    1  0.5950675E-006  0.9322043E+02  0.7818608E-02  0.1370165E+00
          2   -1    0    0  502    0  0.00000000000E+00  0.00000000000E+00  0.10664136798E+04  0.10664136798E+04  0.00000000000E+00 0. -1.
          1   -1    0    0  501    0 -0.00000000000E+00 -0.00000000000E+00 -0.41949451083E+02  0.41949451083E+02  0.00000000000E+00 0. -1.
         25    2    1    2    0    0 -0.34446027595E+02 -0.39248836207E+02  0.49760294384E+03  0.51571457685E+03  0.12500334031E+03 0.  0.
          2    1    1    2  501    0  0.74916727810E+02  0.65665613961E+02  0.46635659869E+02  0.10999715330E+03  0.00000000000E+00 0. -1.
          1    1    1    2  502    0 -0.40470700216E+02 -0.26416777754E+02  0.48022562503E+03  0.48265140076E+03  0.00000000000E+00 0. -1.
         22    1    3    3    0    0 -0.12797817540E+02  0.45728746569E+02  0.15887777622E+03  0.16582234521E+03  0.00000000000E+00 0. -1.
         22    1    3    3    0    0 -0.21648210055E+02 -0.84977582775E+02  0.33872516763E+03  0.34989223163E+03  0.00000000000E+00 0. -1.
</event>
<event>
 7    1  0.7762822E-006  0.4659505E+02  0.7818608E-02  0.1506840E+00
          2   -1    0    0  502    0  0.00000000000E+00  0.00000000000E+00  0.11895155181E+04  0.11895155181E+04  0.00000000000E+00 0. -1.
          1   -1    0    0  501    0 -0.00000000000E+00 -0.00000000000E+00 -0.83943971352E+03  0.83943971352E+03  0.00000000000E+00 0. -1.
         25    2    1    2    0    0 -0.34887672551E+02 -0.17410564761E+02 -0.40450936768E+03  0.42517477119E+03  0.12500192021E+03 0.  0.
          2    1    1    2  501    0  0.15887175809E+02  0.46398618938E+02 -0.42292560760E+03  0.42575967841E+03  0.00000000000E+00 0. -1.
          1    1    1    2  502    0  0.19000496742E+02 -0.28988054177E+02  0.11775107799E+04  0.11780207820E+04  0.00000000000E+00 0. -1.
         22    1    3    3    0    0 -0.61480641217E+02  0.24114290943E+02 -0.12523909665E+03  0.14158460228E+03  0.00000000000E+00 0.  1.
         22    1    3    3    0    0  0.26592968666E+02 -0.41524855705E+02 -0.27927027103E+03  0.28359016891E+03  0.00000000000E+00 0.  1.
</event>
<event>
 7    1  0.5950675E-006  0.8604378E+02  0.7818608E-02  0.1480460E+00
          2   -1    0    0  502    0  0.00000000000E+00  0.00000000000E+00  0.21912672694E+04  0.21912672694E+04  0.00000000000E+00 0. -1.
          1   -1    0    0  501    0 -0.00000000000E+00 -0.00000000000E+00 -0.24368321695E+02  0.24368321695E+02  0.00000000000E+00 0. -1.
         25    2    1    2    0    0 -0.76937801264E+02 -0.61739340477E+02  0.15843006134E+04  0.15922827768E+04  0.12499934516E+03 0.  0.
          2    1    1    2  501    0  0.11120311376E+02  0.19600827487E+02 -0.10687777550E+02  0.24941578784E+02  0.00000000000E+00 0. -1.
          1    1    1    2  502    0  0.65817489888E+02  0.42138512990E+02  0.59328611191E+03  0.59841123555E+03  0.00000000000E+00 0. -1.
         22    1    3    3    0    0  0.21227756551E+02  0.18395098464E+02  0.16878286625E+03  0.17110421747E+03  0.00000000000E+00 0.  1.
         22    1    3    3    0    0 -0.98165557815E+02 -0.80134438942E+02  0.14155177471E+04  0.14211785593E+04  0.00000000000E+00 0.  1.
</event>
<event>
 7    1  0.5950675E-006  0.5619508E+02  0.7818608E-02  0.1519485E+00
          2   -1    0    0  502    0  0.00000000000E+00  0.00000000000E+00  0.17152247232E+04  0.17152247232E+04  0.00000000000E+00 0. -1.
          1   -1    0    0  501    0 -0.00000000000E+00 -0.00000000000E+00 -0.17657395666E+03  0.17657395666E+03  0.00000000000E+00 0. -1.
         25    2    1    2    0    0  0.64403584163E+02 -0.36542854120E+02 -0.27088784505E+02  0.14779251485E+03  0.12500249341E+03 0.  0.
          2    1    1    2  501    0 -0.52497886446E+02  0.12993036549E+02 -0.80814270219E+02  0.97240903693E+02  0.00000000000E+00 0. -1.
          1    1    1    2  502    0 -0.11905697717E+02  0.23549817572E+02  0.16465538212E+04  0.16467652613E+04  0.00000000000E+00 0. -1.
         22    1    3    3    0    0  0.15160455866E+02  0.43757150942E+02  0.85272715352E+01  0.47087599647E+02  0.00000000000E+00 0.  1.
         22    1    3    3    0    0  0.49243128298E+02 -0.80300005063E+02 -0.35616056040E+02  0.10070491520E+03  0.00000000000E+00 0.  1.
</event>
<event>
 7    1  0.5950675E-006  0.1970337E+03  0.7818608E-02  0.1278901E+00
          2   -1    0    0  502    0  0.00000000000E+00  0.00000000000E+00  0.46040964922E+03  0.46040964922E+03  0.00000000000E+00 0. -1.
          1   -1    0    0  501    0 -0.00000000000E+00 -0.00000000000E+00 -0.58574979257E+03  0.58574979257E+03  0.00000000000E+00 0. -1.
         25    2    1    2    0    0 -0.56563714037E+02 -0.15881871088E+03  0.20446158705E+03  0.29300545120E+03  0.12499926873E+03 0.  0.
          2    1    1    2  501    0  0.23334626523E+02  0.19807444376E+03 -0.51957258243E+03  0.55653720314E+03  0.00000000000E+00 0. -1.
          1    1    1    2  502    0  0.33229087514E+02 -0.39255732879E+02  0.18977085204E+03  0.19661678744E+03  0.00000000000E+00 0. -1.
         22    1    3    3    0    0  0.26852133001E+02 -0.11311090076E+01  0.89217975719E+01  0.28318102447E+02  0.00000000000E+00 0. -1.
         22    1    3    3    0    0 -0.83415847037E+02 -0.15768760188E+03  0.19553978948E+03  0.26468734876E+03  0.00000000000E+00 0. -1.
</event>
<event>
 7    1  0.5950675E-006  0.1343673E+03  0.7818608E-02  0.1243176E+00
          2   -1    0    0  502    0  0.00000000000E+00  0.00000000000E+00  0.16111278672E+04  0.16111278672E+04  0.00000000000E+00 0. -1.
          1   -1    0    0  501    0 -0.00000000000E+00 -0.00000000000E+00 -0.63293529440E+03  0.63293529440E+03  0.00000000000E+00 0. -1.
         25    2    1    2    0    0  0.13767645947E+03 -0.42712675661E+02  0.66342963887E+03  0.69032215900E+03  0.12500646911E+03 0.  0.
          2    1    1    2  501    0 -0.68957056301E+02 -0.81925371208E+02 -0.60937256726E+03  0.61870976054E+03  0.00000000000E+00 0. -1.
          1    1    1    2  502    0 -0.68719403168E+02  0.12463804687E+03  0.92413550120E+03  0.93503124208E+03  0.00000000000E+00 0. -1.
         22    1    3    3    0    0  0.11312879175E+03  0.22989813707E+02  0.48623472393E+03  0.49975079971E+03  0.00000000000E+00 0.  1.
         22    1    3    3    0    0  0.24547667717E+02 -0.65702489367E+02  0.17719491494E+03  0.19057135928E+03  0.00000000000E+00 0.  1.
</event>
<event>
 7    1  0.5950675E-006  0.2200667E+03  0.7818608E-02  0.1154222E+00
          2   -1    0    0  502    0  0.00000000000E+00  0.00000000000E+00  0.39852005046E+04  0.39852005046E+04  0.00000000000E+00 0. -1.
          1   -1    0    0  501    0 -0.00000000000E+00 -0.00000000000E+00 -0.59651656046E+03  0.59651656046E+03  0.00000000000E+00 0. -1.
         25    2    1    2    0    0 -0.11021349440E+03  0.70950858788E+02 -0.17789730279E+02  0.18197763871E+03  0.12497338827E+03 0.  0.
          2    1    1    2  501    0  0.26678182086E+03  0.11992431178E+01 -0.45874419694E+03  0.53067901442E+03  0.00000000000E+00 0. -1.
          1    1    1    2  502    0 -0.15656832646E+03 -0.72150101906E+02  0.38652178714E+04  0.38690604119E+04  0.00000000000E+00 0. -1.
         22    1    3    3    0    0 -0.11719703421E+03  0.74871634778E+02  0.22517246001E+02  0.14088269194E+03  0.00000000000E+00 0.  1.
         22    1    3    3    0    0  0.69835398140E+01 -0.39207759903E+01 -0.40306976280E+02  0.41094946764E+02  0.00000000000E+00 0.  1.
</event>
<event>
 7    1  0.5950675E-006  0.9570965E+02  0.7818608E-02  0.1338275E+00
          2   -1    0    0  502    0  0.00000000000E+00  0.00000000000E+00  0.72336101309E+02  0.72336101309E+02  0.00000000000E+00 0. -1.
          1   -1    0    0  501    0 -0.00000000000E+00 -0.00000000000E+00 -0.11545753184E+04  0.11545753184E+04  0.00000000000E+00 0. -1.
         25    2    1    2    0    0 -0.29124178518E+02  0.58433707288E+02 -0.48995630800E+03  0.50984804973E+03  0.12500053655E+03 0.  0.
          2    1    1    2  501    0  0.89727886633E+02 -0.69936799490E+02 -0.63300617266E+03  0.64314777787E+03  0.00000000000E+00 0. -1.
          1    1    1    2  502    0 -0.60603708115E+02  0.11503092202E+02  0.40723263540E+02  0.73915592136E+02  0.00000000000E+00 0. -1.
         22    1    3    3    0    0  0.53222788249E+01 -0.28879865006E+02 -0.36840739757E+02  0.47112772796E+02  0.00000000000E+00 0.  1.
         22    1    3    3    0    0 -0.34446457343E+02  0.87313572294E+02 -0.45311556825E+03  0.46273527693E+03  0.00000000000E+00 0.  1.
</event>
<event>
 7    1  0.5950675E-006  0.8449765E+02  0.7818608E-02  0.1354568E+00
          2   -1    0    0  502    0  0.00000000000E+00  0.00000000000E+00  0.32639073846E+02  0.32639073846E+02  0.00000000000E+00 0. -1.
          1   -1    0    0  501    0 -0.00000000000E+00 -0.00000000000E+00 -0.17657665603E+04  0.17657665603E+04  0.00000000000E+00 0. -1.
         25    2    1    2    0    0  0.11221015918E+02  0.13054041694E+03 -0.85539606319E+03  0.87435364821E+03  0.12500066227E+03 0.  0.
          2    1    1    2  501    0  0.14299041035E+02 -0.75402998920E+02 -0.85613929025E+03  0.85957231175E+03  0.00000000000E+00 0. -1.
          1    1    1    2  502    0 -0.25520056953E+02 -0.55137418018E+02 -0.21592132991E+02  0.64479674159E+02  0.00000000000E+00 0. -1.
         22    1    3    3    0    0  0.53248216787E+02  0.11977646018E+02 -0.29586251292E+03  0.30085455481E+03  0.00000000000E+00 0.  1.
         22    1    3    3    0    0 -0.42027200869E+02  0.11856277092E+03 -0.55953355027E+03  0.57349909341E+03  0.00000000000E+00 0.  1.
</event>
<event>
 7    1  0.5950675E-006  0.1911973E+03  0.7818608E-02  0.1380908E+00
          2   -1    0    0  502    0  0.00000000000E+00  0.00000000000E+00  0.10006119763E+04  0.10006119763E+04  0.00000000000E+00 0. -1.
          1   -1    0    0  501    0 -0.00000000000E+00 -0.00000000000E+00 -0.20731972887E+03  0.20731972887E+03  0.00000000000E+00 0. -1.
         25    2    1    2    0    0 -0.40796734461E+02 -0.18448716833E+03  0.83013992516E+01  0.22670430327E+03  0.12500415621E+03 0.  0.
          2    1    1    2  501    0 -0.21316681400E+02  0.33232670264E+01 -0.86392814032E+02  0.89045849572E+02  0.00000000000E+00 0. -1.
          1    1    1    2  502    0  0.62113415861E+02  0.18116390130E+03  0.87138366219E+03  0.89218155232E+03  0.00000000000E+00 0. -1.
         22    1    3    3    0    0 -0.75519366575E+02 -0.64458282700E+02 -0.12370966977E+02  0.10005541345E+03  0.00000000000E+00 0. -1.
         22    1    3    3    0    0  0.34722632114E+02 -0.12002888563E+03  0.20672366229E+02  0.12664888982E+03  0.00000000000E+00 0. -1.
</event>
<event>
 7    1  0.5950675E-006  0.1116375E+03  0.7818608E-02  0.1346560E+00
          2   -1    0    0  502    0  0.00000000000E+00  0.00000000000E+00  0.65113778895E+03  0.65113778895E+03  0.00000000000E+00 0. -1.
          1   -1    0    0  501    0 -0.00000000000E+00 -0.00000000000E+00 -0.15193404810E+04  0.15193404810E+04  0.00000000000E+00 0. -1.
         25    2    1    2    0    0 -0.80704184771E+02 -0.10277296456E+03 -0.81197824610E+01  0.18100207809E+03  0.12498149352E+03 0.  0.
          2    1    1    2  501    0  0.96249599133E+02  0.56056095944E+02 -0.14215236733E+04  0.14258807191E+04  0.00000000000E+00 0. -1.
          1    1    1    2  502    0 -0.15545414362E+02  0.46716868615E+02  0.56144076375E+03  0.56359547276E+03  0.00000000000E+00 0. -1.
         22    1    3    3    0    0 -0.63400739265E+02 -0.31053409186E+02  0.50476513100E+02  0.86786210518E+02  0.00000000000E+00 0. -1.
         22    1    3    3    0    0 -0.17303445506E+02 -0.71719555373E+02 -0.58596295561E+02  0.94215867574E+02  0.00000000000E+00 0. -1.
</event>
<event>
 7    1  0.5950675E-006  0.6836224E+02  0.7818608E-02  0.1427109E+00
          2   -1    0    0  502    0  0.00000000000E+00  0.00000000000E+00  0.79900386055E+03  0.79900386055E+03  0.00000000000E+00 0. -1.
          1   -1    0    0  501    0 -0.00000000000E+00 -0.00000000000E+00 -0.11575904023E+03  0.11575904023E+03  0.00000000000E+00 0. -1.
         25    2    1    2    0    0 -0.53320585161E+02  0.91783150367E+02  0.29180174529E+03  0.33472595498E+03  0.12500389948E+03 0.  0.
          2    1    1    2  501    0  0.24649330557E+02 -0.33930750539E+02 -0.87357141646E+02  0.96902814848E+02  0.00000000000E+00 0. -1.
          1    1    1    2  502    0  0.28671254604E+02 -0.57852399828E+02  0.47880021667E+03  0.48313413095E+03  0.00000000000E+00 0. -1.
         22    1    3    3    0    0  0.38990696393E+01  0.84314868514E+02  0.84076660891E+02  0.11913473340E+03  0.00000000000E+00 0.  1.
         22    1    3    3    0    0 -0.57219654800E+02  0.74682818534E+01  0.20772508440E+03  0.21559122157E+03  0.00000000000E+00 0.  1.
</event>
<event>
 7    1  0.5950675E-006  0.1035373E+03  0.7818608E-02  0.1389729E+00
          2   -1    0    0  502    0  0.00000000000E+00  0.00000000000E+00  0.27607581808E+04  0.27607581808E+04  0.00000000000E+00 0. -1.
          1   -1    0    0  501    0 -0.00000000000E+00 -0.00000000000E+00 -0.80727501800E+02  0.80727501800E+02  0.00000000000E+00 0. -1.
         25    2    1    2    0    0  0.30545447822E+02 -0.13459443232E+03  0.15157274049E+04  0.15271226350E+04  0.12500116305E+03 0.  0.
          2    1    1    2  501    0 -0.32306727374E+02  0.97540462101E+02 -0.39430806234E+02  0.11005750706E+03  0.00000000000E+00 0. -1.
          1    1    1    2  502    0  0.17612795521E+01  0.37053970222E+02  0.12037340803E+04  0.12043055405E+04  0.00000000000E+00 0. -1.
         22    1    3    3    0    0  0.62704141324E-01 -0.32667956446E+02  0.10001512923E+04  0.10006846690E+04  0.00000000000E+00 0.  1.
         22    1    3    3    0    0  0.30482743680E+02 -0.10192647588E+03  0.51557611263E+03  0.52643796602E+03  0.00000000000E+00 0.  1.
</event>
<event>
 7    1  0.5950675E-006  0.4746839E+02  0.7818608E-02  0.1477806E+00
          2   -1    0    0  502    0  0.00000000000E+00  0.00000000000E+00  0.18801347757E+04  0.18801347757E+04  0.00000000000E+00 0. -1.
          1   -1    0    0  501    0 -0.00000000000E+00 -0.00000000000E+00 -0.42029897435E+03  0.42029897435E+03  0.00000000000E+00 0. -1.
         25    2    1    2    0    0 -0.16795722027E+02  0.83813161572E+02  0.96377639313E+02  0.17950023880E+03  0.12499977616E+03 0.  0.
          2    1    1    2  501    0  0.19634000493E+02 -0.36701262941E+02 -0.37727325948E+03  0.37956236510E+03  0.00000000000E+00 0. -1.
          1    1    1    2  502    0 -0.28382784664E+01 -0.47111898630E+02  0.17407314215E+04  0.17413711461E+04  0.00000000000E+00 0. -1.
         22    1    3    3    0    0 -0.68514211672E+02  0.69117737444E+02  0.56219145770E+02  0.11239239824E+03  0.00000000000E+00 0.  1.
         22    1    3    3    0    0  0.51718489645E+02  0.14695424127E+02  0.40158493543E+02  0.67107840564E+02  0.00000000000E+00 0.  1.
</event>
<event>
 7    1  0.5950675E-006  0.2931450E+02  0.7818608E-02  0.1631078E+00
          2   -1    0    0  502    0  0.00000000000E+00  0.00000000000E+00  0.87746724912E+03  0.87746724912E+03  0.00000000000E+00 0. -1.
          1   -1    0    0  501    0 -0.00000000000E+00 -0.00000000000E+00 -0.35366160341E+03  0.35366160341E+03  0.00000000000E+00 0. -1.
         25    2    1    2    0    0  0.38637221077E+02  0.25137630363E+02 -0.11179875683E+03  0.17391917450E+03  0.12499672762E+03 0.  0.
          2    1    1    2  501    0 -0.13376264636E+02 -0.25684354591E+02 -0.20961841346E+03  0.21160928569E+03  0.00000000000E+00 0. -1.
          1    1    1    2  502    0 -0.25260956441E+02  0.54672422763E+00  0.84522281601E+03  0.84560039234E+03  0.00000000000E+00 0. -1.
         22    1    3    3    0    0 -0.44123779590E+02  0.14688350603E+02 -0.22305711222E+02  0.51577129834E+02  0.00000000000E+00 0.  1.
         22    1    3    3    0    0  0.82761000667E+02  0.10449279760E+02 -0.89493045613E+02  0.12234204466E+03  0.00000000000E+00 0.  1.
</event>
<event>
 7    1  0.5950675E-006  0.1492581E+03  0.7818608E-02  0.1351976E+00
          2   -1    0    0  502    0  0.00000000000E+00  0.00000000000E+00  0.87839514961E+03  0.87839514961E+03  0.00000000000E+00 0. -1.
          1   -1    0    0  501    0 -0.00000000000E+00 -0.00000000000E+00 -0.92657328387E+03  0.92657328387E+03  0.00000000000E+00 0. -1.
         25    2    1    2    0    0 -0.11990050244E+02 -0.12718374411E+03  0.71861939838E+02  0.19263571083E+03  0.12499965048E+03 0.  0.
          2    1    1    2  501    0 -0.29345920855E+02 -0.19367328453E+02 -0.85805405821E+03  0.85877415151E+03  0.00000000000E+00 0. -1.
          1    1    1    2  502    0  0.41335971099E+02  0.14655107257E+03  0.73801398412E+03  0.75355857113E+03  0.00000000000E+00 0. -1.
         22    1    3    3    0    0 -0.10108650807E+02  0.24735625224E+02  0.87473590363E+01  0.28116761308E+02  0.00000000000E+00 0.  1.
         22    1    3    3    0    0 -0.18813994374E+01 -0.15191936934E+03  0.63114580802E+02  0.16451894953E+03  0.00000000000E+00 0.  1.
</event>
<event>
 7    1  0.5950675E-006  0.8917290E+02  0.7818608E-02  0.1443458E+00
          2   -1    0    0  502    0  0.00000000000E+00  0.00000000000E+00  0.28276398743E+03  0.28276398743E+03  0.00000000000E+00 0. -1.
          1   -1    0    0  501    0 -0.00000000000E+00 -0.00000000000E+00 -0.49855227765E+03  0.49855227765E+03  0.00000000000E+00 0. -1.
         25    2    1    2    0    0 -0.80235295108E+02  0.36991744550E+02  0.62413156086E+02  0.16530676272E+03  0.12499932801E+03 0.  0.
          2    1    1    2  501    0 -0.94108171338E+01 -0.26827618954E+02 -0.43455987489E+03  0.43548888560E+03  0.00000000000E+00 0. -1.
          1    1    1    2  502    0  0.89646112242E+02 -0.10164125596E+02  0.15635842858E+03  0.18052061677E+03  0.00000000000E+00 0. -1.
         22    1    3    3    0    0 -0.52811927991E+02  0.75535641387E+02  0.72104123529E+02  0.11702024392E+03  0.00000000000E+00 0. -1.
         22    1    3    3    0    0 -0.27423367117E+02 -0.38543896838E+02 -0.96909674423E+01  0.48286518796E+02  0.00000000000E+00 0. -1.
</event>
<event>
 7    1  0.5950675E-006  0.2693421E+03  0.7818608E-02  0.1144239E+00
          2   -1    0    0  502    0  0.00000000000E+00  0.00000000000E+00  0.67516465451E+03  0.67516465451E+03  0.00000000000E+00 0. -1.
          1   -1    0    0  501    0 -0.00000000000E+00 -0.00000000000E+00 -0.13378649801E+04  0.13378649801E+04  0.00000000000E+00 0. -1.
         25    2    1    2    0    0  0.17072499547E+02  0.18479272182E+03 -0.44428947712E+02  0.22812028772E+03  0.12500045598E+03 0.  0.
          2    1    1    2  501    0  0.12067938996E+03 -0.26332211453E+03 -0.11728597562E+04  0.12080985303E+04  0.00000000000E+00 0. -1.
          1    1    1    2  502    0 -0.13775188951E+03  0.78529392709E+02  0.55458837841E+03  0.57681081652E+03  0.00000000000E+00 0. -1.
         22    1    3    3    0    0  0.38247793930E+02  0.11112964803E+03 -0.81459215848E+02  0.14299753934E+03  0.00000000000E+00 0. -1.
         22    1    3    3    0    0 -0.21175294383E+02  0.73663073798E+02  0.37030268137E+02  0.85122748380E+02  0.00000000000E+00 0. -1.
</event>
<event>
 7    1  0.5950675E-006  0.1425161E+03  0.7818608E-02  0.1355903E+00
          2   -1    0    0  502    0  0.00000000000E+00  0.00000000000E+00  0.32357012378E+04  0.32357012378E+04  0.00000000000E+00 0. -1.
          1   -1    0    0  501    0 -0.00000000000E+00 -0.00000000000E+00 -0.53644507475E+03  0.53644507475E+03  0.00000000000E+00 0. -1.
         25    2    1    2    0    0 -0.10540669263E+03  0.23801163954E+02  0.17218548668E+02  0.16612990550E+03  0.12500240328E+03 0.  0.
          2    1    1    2  501    0 -0.32861616845E+02  0.13738971055E+02 -0.45966783910E+03  0.46104573253E+03  0.00000000000E+00 0. -1.
          1    1    1    2  502    0  0.13826830948E+03 -0.37540135009E+02  0.31417054535E+04  0.31449706745E+04  0.00000000000E+00 0. -1.
         22    1    3    3    0    0 -0.11230036389E+03 -0.79383910009E+01  0.47062072290E+02  0.12202142611E+03  0.00000000000E+00 0.  1.
         22    1    3    3    0    0  0.68936712571E+01  0.31739554955E+02 -0.29843523622E+02  0.44108479392E+02  0.00000000000E+00 0.  1.
</event>
<event>
 7    1  0.5950675E-006  0.5233706E+02  0.7818608E-02  0.1564699E+00
          2   -1    0    0  502    0  0.00000000000E+00  0.00000000000E+00  0.12303038767E+04  0.12303038767E+04  0.00000000000E+00 0. -1.
          1   -1    0    0  501    0 -0.00000000000E+00 -0.00000000000E+00 -0.20547848520E+03  0.20547848520E+03  0.00000000000E+00 0. -1.
         25    2    1    2    0    0  0.55413071116E+02 -0.15758297931E+01  0.20023140086E+03  0.24246575323E+03  0.12499574355E+03 0.  0.
          2    1    1    2  501    0 -0.48960968301E+02 -0.18540637233E+02 -0.18053128223E+03  0.18796934726E+03  0.00000000000E+00 0. -1.
          1    1    1    2  502    0 -0.64521028150E+01  0.20116467026E+02  0.10051252729E+04  0.10053472614E+04  0.00000000000E+00 0. -1.
         22    1    3    3    0    0 -0.35131013994E+02 -0.25044364946E+02  0.66486790410E+02  0.79258448501E+02  0.00000000000E+00 0. -1.
         22    1    3    3    0    0  0.90544085110E+02  0.23468535152E+02  0.13374461045E+03  0.16320730472E+03  0.00000000000E+00 0. -1.
</event>
<event>
 7    1  0.5950675E-006  0.6676198E+02  0.7818608E-02  0.1438265E+00
          2   -1    0    0  502    0  0.00000000000E+00  0.00000000000E+00  0.61330358687E+03  0.61330358687E+03  0.00000000000E+00 0. -1.
          1   -1    0    0  501    0 -0.00000000000E+00 -0.00000000000E+00 -0.13631288094E+04  0.13631288094E+04  0.00000000000E+00 0. -1.
         25    2    1    2    0    0  0.77579612645E+02  0.56091381016E+02  0.26610233874E+02  0.15968112247E+03  0.12500046801E+03 0.  0.
          2    1    1    2  501    0 -0.14481855604E+02 -0.36722099465E+02 -0.12941973851E+04  0.12947992541E+04  0.00000000000E+00 0. -1.
          1    1    1    2  502    0 -0.63097757041E+02 -0.19369281551E+02  0.51776192874E+03  0.52195201970E+03  0.00000000000E+00 0. -1.
         22    1    3    3    0    0 -0.16807302573E+02  0.35604387607E+02 -0.28384477944E+02  0.48536959369E+02  0.00000000000E+00 0. -1.
         22    1    3    3    0    0  0.94386915218E+02  0.20486993409E+02  0.54994711818E+02  0.11114416310E+03  0.00000000000E+00 0. -1.
</event>
<event>
 7    1  0.5950675E-006  0.7592666E+02  0.7818608E-02  0.1357743E+00
          2   -1    0    0  502    0  0.00000000000E+00  0.00000000000E+00  0.16287145811E+02  0.16287145811E+02  0.00000000000E+00 0. -1.
          1   -1    0    0  501    0 -0.00000000000E+00 -0.00000000000E+00 -0.14227610419E+04  0.14227610419E+04  0.00000000000E+00 0. -1.
         25    2    1    2    0    0  0.24888704644E+02 -0.75164981313E+02 -0.66924970788E+03  0.68541177916E+03  0.12499965390E+03 0.  0.
          2    1    1    2  501    0 -0.75515175167E+02  0.33094342843E+02 -0.52510574161E+03  0.53153910212E+03  0.00000000000E+00 0. -1.
          1    1    1    2  502    0  0.50626470522E+02  0.42070638470E+02 -0.21211844662E+03  0.22209730646E+03  0.00000000000E+00 0. -1.
         22    1    3    3    0    0  0.27834391280E+02  0.14773881122E+01 -0.48546747447E+03  0.48626700976E+03  0.00000000000E+00 0.  1.
         22    1    3    3    0    0 -0.29456866362E+01 -0.76642369425E+02 -0.18378223341E+03  0.19914476940E+03  0.00000000000E+00 0.  1.
</event>
<event>
 7    1  0.5950675E-006  0.3572430E+02  0.7818608E-02  0.1578300E+00
          2   -1    0    0  502    0  0.00000000000E+00  0.00000000000E+00  0.29065716153E+03  0.29065716153E+03  0.00000000000E+00 0. -1.
          1   -1    0    0  501    0 -0.00000000000E+00 -0.00000000000E+00 -0.14329663638E+03  0.14329663638E+03  0.00000000000E+00 0. -1.
         25    2    1    2    0    0  0.16136419709E+02  0.13737711807E+02  0.16045451366E+03  0.20449668549E+03  0.12499653858E+03 0.  0.
          2    1    1    2  501    0 -0.35328177955E+02  0.72373795964E+01 -0.11663560066E+03  0.12208326324E+03  0.00000000000E+00 0. -1.
          1    1    1    2  502    0  0.19191758246E+02 -0.20975091403E+02  0.10354161214E+03  0.10737384918E+03  0.00000000000E+00 0. -1.
         22    1    3    3    0    0  0.11550802035E+02  0.22284785319E+02  0.18049521047E+03  0.18223214230E+03  0.00000000000E+00 0.  1.
         22    1    3    3    0    0  0.45856176736E+01 -0.85470735127E+01 -0.20040696808E+02  0.22264543194E+02  0.00000000000E+00 0.  1.
</event>
<event>
 7    1  0.5950675E-006  0.9828262E+02  0.7818608E-02  0.1472664E+00
          2   -1    0    0  502    0  0.00000000000E+00  0.00000000000E+00  0.63060636751E+03  0.63060636751E+03  0.00000000000E+00 0. -1.
          1   -1    0    0  501    0 -0.00000000000E+00 -0.00000000000E+00 -0.22052738939E+03  0.22052738939E+03  0.00000000000E+00 0. -1.
         25    2    1    2    0    0  0.72406229960E+02  0.90471453936E+02  0.98364411449E+01  0.17073284877E+03  0.12500081584E+03 0.  0.
          2    1    1    2  501    0 -0.60924795721E+02 -0.73065383863E+02 -0.12369559581E+03  0.15604801016E+03  0.00000000000E+00 0. -1.
          1    1    1    2  502    0 -0.11481434239E+02 -0.17406070073E+02  0.52393813280E+03  0.52435289797E+03  0.00000000000E+00 0. -1.
         22    1    3    3    0    0  0.94363129100E+02  0.67516123524E+02  0.43991778759E+02  0.12408909568E+03  0.00000000000E+00 0.  1.
         22    1    3    3    0    0 -0.21956899140E+02  0.22955330412E+02 -0.34155337614E+02  0.46643753083E+02  0.00000000000E+00 0.  1.
</event>
<event>
 7    1  0.5950675E-006  0.1978633E+03  0.7818608E-02  0.1275950E+00
          2   -1    0    0  502    0  0.00000000000E+00  0.00000000000E+00  0.12543887555E+04  0.12543887555E+04  0.00000000000E+00 0. -1.
          1   -1    0    0  501    0 -0.00000000000E+00 -0.00000000000E+00 -0.87094571954E+02  0.87094571954E+02  0.00000000000E+00 0. -1.
         25    2    1    2    0    0  0.17006801949E+03 -0.38701361083E+02  0.34275347801E+03  0.40438345518E+03  0.12500042213E+03 0.  0.
          2    1    1    2  501    0  0.19178767835E+02 -0.49065272298E+02 -0.27825479521E+02  0.59577541003E+02  0.00000000000E+00 0. -1.
          1    1    1    2  502    0 -0.18924678733E+03  0.87766633381E+02  0.85236618502E+03  0.87752233123E+03  0.00000000000E+00 0. -1.
         22    1    3    3    0    0  0.12021573140E+03 -0.31863048800E+01  0.31500217296E+03  0.33717702114E+03  0.00000000000E+00 0. -1.
         22    1    3    3    0    0  0.49852288089E+02 -0.35515056203E+02  0.27751305056E+02  0.67206434046E+02  0.00000000000E+00 0. -1.
</event>
<event>
 7    1  0.5950675E-006  0.1253795E+03  0.7818608E-02  0.1293033E+00
          2   -1    0    0  502    0  0.00000000000E+00  0.00000000000E+00  0.73592497577E+03  0.73592497577E+03  0.00000000000E+00 0. -1.
          1   -1    0    0  501    0 -0.00000000000E+00 -0.00000000000E+00 -0.23267900496E+03  0.23267900496E+03  0.00000000000E+00 0. -1.
         25    2    1    2    0    0  0.13106587901E+03  0.14845058207E+02  0.14786507248E+03  0.23427914211E+03  0.12499598544E+03 0.  0.
          2    1    1    2  501    0 -0.15975776403E+02 -0.68917060526E+02 -0.17508163216E+03  0.18883422513E+03  0.00000000000E+00 0. -1.
          1    1    1    2  502    0 -0.11509010260E+03  0.54072002320E+02  0.53046253048E+03  0.54549061348E+03  0.00000000000E+00 0. -1.
         22    1    3    3    0    0  0.30899060374E+02 -0.89909104537E+01  0.12464153357E+03  0.12872878580E+03  0.00000000000E+00 0.  1.
         22    1    3    3    0    0  0.10016681863E+03  0.23835968660E+02  0.23223538906E+02  0.10555035631E+03  0.00000000000E+00 0.  1.
</event>
<event>
 7    1  0.5950675E-006  0.1518764E+03  0.7818608E-02  0.1290419E+00
          2   -1    0    0  502    0  0.00000000000E+00  0.00000000000E+00  0.21230924753E+04  0.21230924753E+04  0.00000000000E+00 0. -1.
          1   -1    0    0  501    0 -0.00000000000E+00 -0.00000000000E+00 -0.20394443568E+03  0.20394443568E+03  0.00000000000E+00 0. -1.
         25    2    1    2    0    0  0.34499646716E+02 -0.13491507626E+03  0.39425739518E+03  0.43641269328E+03  0.12499936708E+03 0.  0.
          2    1    1    2  501    0 -0.93004522799E+02  0.12231914092E+03 -0.14995767116E+03  0.21470704841E+03  0.00000000000E+00 0. -1.
          1    1    1    2  502    0  0.58504876083E+02  0.12595935340E+02  0.16748483156E+04  0.16759171693E+04  0.00000000000E+00 0. -1.
         22    1    3    3    0    0  0.61396475026E+02 -0.11104408889E+03  0.37443307642E+03  0.39534851149E+03  0.00000000000E+00 0.  1.
         22    1    3    3    0    0 -0.26896828311E+02 -0.23870987368E+02  0.19824318766E+02  0.41064181784E+02  0.00000000000E+00 0.  1.
</event>
<event>
 7    1  0.5950675E-006  0.7376230E+02  0.7818608E-02  0.1403975E+00
          2   -1    0    0  502    0  0.00000000000E+00  0.00000000000E+00  0.86730933793E+03  0.86730933793E+03  0.00000000000E+00 0. -1.
          1   -1    0    0  501    0 -0.00000000000E+00 -0.00000000000E+00 -0.19832674787E+03  0.19832674787E+03  0.00000000000E+00 0. -1.
         25    2    1    2    0    0  0.69665281064E+02  0.91791470686E+02  0.38480575750E+03  0.42068951983E+03  0.12500110245E+03 0.  0.
          2    1    1    2  501    0 -0.55471551062E+02 -0.47520007550E+02 -0.17175974858E+03  0.18664580179E+03  0.00000000000E+00 0. -1.
          1    1    1    2  502    0 -0.14193730002E+02 -0.44271463136E+02  0.45593658114E+03  0.45830076417E+03  0.00000000000E+00 0. -1.
         22    1    3    3    0    0 -0.66219913310E+01  0.30135228195E+02  0.87773714053E+01  0.32078419480E+02  0.00000000000E+00 0. -1.
         22    1    3    3    0    0  0.76287272395E+02  0.61656242491E+02  0.37602838609E+03  0.38861110035E+03  0.00000000000E+00 0. -1.
</event>
<event>
 7    1  0.8548998E-006  0.1036603E+03  0.7818608E-02  0.1334503E+00
          2   -1    0    0  502    0  0.00000000000E+00  0.00000000000E+00  0.12600015704E+04  0.12600015704E+04  0.00000000000E+00 0. -1.
          1   -1    0    0  501    0 -0.00000000000E+00 -0.00000000000E+00 -0.10154782507E+04  0.10154782507E+04  0.00000000000E+00 0. -1.
         25    2    1    2    0    0  0.89491350506E+01 -0.45375734338E+02 -0.44799501823E+02  0.14061211734E+03  0.12500291154E+03 0.  0.
          2    1    1    2  501    0  0.14357781786E+02 -0.57078662432E+02 -0.91955276761E+03  0.92143443176E+03  0.00000000000E+00 0. -1.
          1    1    1    2  502    0 -0.23306916836E+02  0.10245439677E+03  0.12088755891E+04  0.12134332721E+04  0.00000000000E+00 0. -1.
         22    1    3    3    0    0  0.24257731253E+02 -0.59919381175E+02 -0.77975414504E+02  0.10128640103E+03  0.00000000000E+00 0. -1.
         22    1    3    3    0    0 -0.15308596203E+02  0.14543646837E+02  0.33175912681E+02  0.39325716309E+02  0.00000000000E+00 0. -1.
</event>
<event>
 7    1  0.5950675E-006  0.4240914E+02  0.7818608E-02  0.1558286E+00
          2   -1    0    0  502    0  0.00000000000E+00  0.00000000000E+00  0.26216618696E+04  0.26216618696E+04  0.00000000000E+00 0. -1.
          1   -1    0    0  501    0 -0.00000000000E+00 -0.00000000000E+00 -0.34098960104E+02  0.34098960104E+02  0.00000000000E+00 0. -1.
         25    2    1    2    0    0 -0.37103703737E+02 -0.56183139181E+02  0.86420394580E+03  0.87578822883E+03  0.12499332726E+03 0.  0.
          2    1    1    2  501    0  0.93402389682E+01  0.25493693882E+02 -0.21494022398E+02  0.34628911195E+02  0.00000000000E+00 0. -1.
          1    1    1    2  502    0  0.27763464768E+02  0.30689445300E+02  0.17448529861E+04  0.17453436897E+04  0.00000000000E+00 0. -1.
         22    1    3    3    0    0 -0.81855254779E+02 -0.50931304485E+02  0.62233727680E+03  0.62976024533E+03  0.00000000000E+00 0. -1.
         22    1    3    3    0    0  0.44751551042E+02 -0.52518346962E+01  0.24186666900E+03  0.24602798350E+03  0.00000000000E+00 0. -1.
</event>
<event>
 7    1  0.5950675E-006  0.8289000E+02  0.7818608E-02  0.1453003E+00
          2   -1    0    0  502    0  0.00000000000E+00  0.00000000000E+00  0.33342658480E+04  0.33342658480E+04  0.00000000000E+00 0. -1.
          1   -1    0    0  501    0 -0.00000000000E+00 -0.00000000000E+00 -0.12725361995E+03  0.12725361995E+03  0.00000000000E+00 0. -1.
         25    2    1    2    0    0  0.71247100716E+02 -0.54537015602E+02  0.22623700354E+02  0.15552302722E+03  0.12500057898E+03 0.  0.
          2    1    1    2  501    0  0.71244493513E+01  0.27598667190E+02 -0.56904556773E+02  0.63644110417E+02  0.00000000000E+00 0. -1.
          1    1    1    2  502    0 -0.78371550068E+02  0.26938348412E+02  0.32412930844E+04  0.32423523303E+04  0.00000000000E+00 0. -1.
         22    1    3    3    0    0  0.91644542891E+01 -0.50049642091E+02 -0.41867903132E+02  0.65892907119E+02  0.00000000000E+00 0.  1.
         22    1    3    3    0    0  0.62082646427E+02 -0.44873735112E+01  0.64491603486E+02  0.89630120097E+02  0.00000000000E+00 0.  1.
</event>
<event>
 7    1  0.8508784E-006  0.8474160E+02  0.7818608E-02  0.1380126E+00
          2   -1    0    0  502    0  0.00000000000E+00  0.00000000000E+00  0.19624014003E+04  0.19624014003E+04  0.00000000000E+00 0. -1.
          1   -1    0    0  501    0 -0.00000000000E+00 -0.00000000000E+00 -0.12057455935E+04  0.12057455935E+04  0.00000000000E+00 0. -1.
         25    2    1    2    0    0 -0.19834531280E+02  0.31163710587E+02 -0.20692657477E+02  0.13197449069E+03  0.12499797851E+03 0.  0.
          2    1    1    2  501    0 -0.15926780228E+02  0.46326384230E+02 -0.11279251300E+04  0.11289884388E+04  0.00000000000E+00 0. -1.
          1    1    1    2  502    0  0.35761311508E+02 -0.77490094818E+02  0.19052735942E+04  0.19071840643E+04  0.00000000000E+00 0. -1.
         22    1    3    3    0    0  0.11275668064E+01 -0.82937029041E+01  0.48715225444E+02  0.49429041108E+02  0.00000000000E+00 0.  1.
         22    1    3    3    0    0 -0.20962098086E+02  0.39457413492E+02 -0.69407882922E+02  0.82545449586E+02  0.00000000000E+00 0.  1.
</event>
<event>
 7    1  0.5950675E-006  0.6971787E+02  0.7818608E-02  0.1424994E+00
          2   -1    0    0  502    0  0.00000000000E+00  0.00000000000E+00  0.13856210390E+04  0.13856210390E+04  0.00000000000E+00 0. -1.
          1   -1    0    0  501    0 -0.00000000000E+00 -0.00000000000E+00 -0.34580804470E+03  0.34580804470E+03  0.00000000000E+00 0. -1.
         25    2    1    2    0    0  0.76671527968E+01  0.81184875452E+02  0.11021720206E+03  0.18553494368E+03  0.12500245783E+03 0.  0.
          2    1    1    2  501    0  0.33522655399E+02 -0.24955782695E+02 -0.30574525530E+03  0.30858827044E+03  0.00000000000E+00 0. -1.
          1    1    1    2  502    0 -0.41189808196E+02 -0.56229092757E+02  0.12353410475E+04  0.12373058696E+04  0.00000000000E+00 0. -1.
         22    1    3    3    0    0 -0.48746399562E+02  0.68655656169E+02  0.36256585939E+02  0.91675245395E+02  0.00000000000E+00 0.  1.
         22    1    3    3    0    0  0.56413552359E+02  0.12529219283E+02  0.73960616123E+02  0.93859698289E+02  0.00000000000E+00 0.  1.
</event>
<event>
 7    1  0.5950675E-006  0.1097021E+03  0.7818608E-02  0.1355201E+00
          2   -1    0    0  502    0  0.00000000000E+00  0.00000000000E+00  0.32644360671E+04  0.32644360671E+04  0.00000000000E+00 0. -1.
          1   -1    0    0  501    0 -0.00000000000E+00 -0.00000000000E+00 -0.62459659183E+03  0.62459659183E+03  0.00000000000E+00 0. -1.
         25    2    1    2    0    0  0.77114609231E+02 -0.90927039118E+01  0.14664249949E+03  0.20774717864E+03  0.12500210941E+03 0.  0.
          2    1    1    2  501    0  0.30724801125E+02  0.34966512993E+02 -0.59213465826E+03  0.59396138254E+03  0.00000000000E+00 0. -1.
          1    1    1    2  502    0 -0.10783941036E+03 -0.25873809081E+02  0.30853316341E+04  0.30873240977E+04  0.00000000000E+00 0. -1.
         22    1    3    3    0    0  0.50829359461E+02 -0.57845622878E+02  0.12786722238E+03  0.14926408285E+03  0.00000000000E+00 0. -1.
         22    1    3    3    0    0  0.26285249769E+02  0.48752918966E+02  0.18775277105E+02  0.58483095793E+02  0.00000000000E+00 0. -1.
</event>
<event>
 7    1  0.5950675E-006  0.1089000E+03  0.7818608E-02  0.1349451E+00
          2   -1    0    0  502    0  0.00000000000E+00  0.00000000000E+00  0.10236212433E+03  0.10236212433E+03  0.00000000000E+00 0. -1.
          1   -1    0    0  501    0 -0.00000000000E+00 -0.00000000000E+00 -0.26889753085E+04  0.26889753085E+04  0.00000000000E+00 0. -1.
         25    2    1    2    0    0  0.12176607964E+03 -0.21194989162E+02 -0.62731887569E+03  0.65148447751E+03  0.12500738746E+03 0.  0.
          2    1    1    2  501    0 -0.10524469092E+03 -0.25190320692E+02 -0.20413180524E+04  0.20441845289E+04  0.00000000000E+00 0. -1.
          1    1    1    2  502    0 -0.16521388721E+02  0.46385309854E+02  0.82023743890E+02  0.95668426439E+02  0.00000000000E+00 0. -1.
         22    1    3    3    0    0  0.55255016231E+02  0.51634337536E+02 -0.31558863930E+03  0.32452335954E+03  0.00000000000E+00 0.  1.
         22    1    3    3    0    0  0.66511063413E+02 -0.72829326698E+02 -0.31173023639E+03  0.32696111797E+03  0.00000000000E+00 0.  1.
</event>
<event>
 7    1  0.5950675E-006  0.1077832E+03  0.7818608E-02  0.1463147E+00
          2   -1    0    0  502    0  0.00000000000E+00  0.00000000000E+00  0.16608773232E+04  0.16608773232E+04  0.00000000000E+00 0. -1.
          1   -1    0    0  501    0 -0.00000000000E+00 -0.00000000000E+00 -0.31684875928E+02  0.31684875928E+02  0.00000000000E+00 0. -1.
         25    2    1    2    0    0  0.51576605242E+02 -0.10602527018E+03  0.70084314741E+03  0.72160057919E+03  0.12499909793E+03 0.  0.
          2    1    1    2  501    0 -0.19499972092E+02  0.58518738019E+01 -0.12737238555E+02  0.24015215689E+02  0.00000000000E+00 0. -1.
          1    1    1    2  502    0 -0.32076633149E+02  0.10017339638E+03  0.94108653842E+03  0.94694640426E+03  0.00000000000E+00 0. -1.
         22    1    3    3    0    0  0.10237116974E+02 -0.12557009639E+03  0.50213937397E+03  0.51770319543E+03  0.00000000000E+00 0.  1.
         22    1    3    3    0    0  0.41339488268E+02  0.19544826207E+02  0.19870377344E+03  0.20389738375E+03  0.00000000000E+00 0.  1.
</event>
<event>
 7    1  0.5950675E-006  0.1346458E+03  0.7818608E-02  0.1373624E+00
          2   -1    0    0  502    0  0.00000000000E+00  0.00000000000E+00  0.30551639864E+03  0.30551639864E+03  0.00000000000E+00 0. -1.
          1   -1    0    0  501    0 -0.00000000000E+00 -0.00000000000E+00 -0.16572748801E+04  0.16572748801E+04  0.00000000000E+00 0. -1.
         25    2    1    2    0    0 -0.11561959457E+03 -0.50130145557E+02 -0.53121083829E+03  0.56008215273E+03  0.12500456370E+03 0.  0.
          2    1    1    2  501    0  0.13577006909E+03  0.24607604289E+02 -0.11064212655E+04  0.11149919563E+04  0.00000000000E+00 0. -1.
          1    1    1    2  502    0 -0.20150474512E+02  0.25522541268E+02  0.28587362239E+03  0.28771716966E+03  0.00000000000E+00 0. -1.
         22    1    3    3    0    0 -0.10920390581E+03 -0.15016800874E+02 -0.21260017115E+03  0.23947824562E+03  0.00000000000E+00 0. -1.
         22    1    3    3    0    0 -0.64156887640E+01 -0.35113344684E+02 -0.31861066714E+03  0.32060390711E+03  0.00000000000E+00 0. -1.
</event>
<event>
 7    1  0.5950675E-006  0.9311705E+02  0.7818608E-02  0.1372413E+00
          2   -1    0    0  502    0  0.00000000000E+00  0.00000000000E+00  0.86131956622E+03  0.86131956622E+03  0.00000000000E+00 0. -1.
          1   -1    0    0  501    0 -0.00000000000E+00 -0.00000000000E+00 -0.23592812957E+04  0.23592812957E+04  0.00000000000E+00 0. -1.
         25    2    1    2    0    0  0.38885423742E+02 -0.12030695205E+03  0.51896904141E+03  0.54858112803E+03  0.12500619662E+03 0.  0.
          2    1    1    2  501    0  0.20858581833E-01  0.93069954753E+02 -0.23418244748E+04  0.23436731614E+04  0.00000000000E+00 0. -1.
          1    1    1    2  502    0 -0.38906282323E+02  0.27236997294E+02  0.32489370388E+03  0.32834657247E+03  0.00000000000E+00 0. -1.
         22    1    3    3    0    0  0.11887368527E+02 -0.13414717337E+03  0.48350656208E+03  0.50191171458E+03  0.00000000000E+00 0. -1.
         22    1    3    3    0    0  0.26998055215E+02  0.13840221321E+02  0.35462479332E+02  0.46669413452E+02  0.00000000000E+00 0. -1.
</event>
