<event>
 7    1  0.8278507E-006  0.1460464E+03  0.7818608E-02  0.1267993E+00
          2   -1    0    0  502    0  0.00000000000E+00  0.00000000000E+00  0.79012169963E+03  0.79012169963E+03  0.00000000000E+00 0. -1.
          1   -1    0    0  501    0 -0.00000000000E+00 -0.00000000000E+00 -0.22441931675E+03  0.22441931675E+03  0.00000000000E+00 0. -1.
         25    2    1    2    0    0  0.83164688022E+02 -0.20025239651E+03  0.61811608558E+02  0.25780638548E+03  0.12500427912E+03 0.  0.
          2    1    1    2  501    0 -0.36175197781E+02  0.68041904646E+02 -0.10592190710E+03  0.13098777091E+03  0.00000000000E+00 0. -1.
          1    1    1    2  502    0 -0.46989490241E+02  0.13221049187E+03  0.60981268143E+03  0.62574685999E+03  0.00000000000E+00 0. -1.
         22    1    3    3    0    0 -0.48124174048E+01 -0.13278800426E+03  0.62724526710E+02  0.14693597139E+03  0.00000000000E+00 0.  1.
         22    1    3    3    0    0  0.87977105427E+02 -0.67464392250E+02 -0.91291815205E+00  0.11087041409E+03  0.00000000000E+00 0.  1.
</event>
<event>
 7    1  0.8278507E-006  0.1248453E+03  0.7818608E-02  0.1258297E+00
          2   -1    0    0  502    0  0.00000000000E+00  0.00000000000E+00  0.21359964365E+04  0.21359964365E+04  0.00000000000E+00 0. -1.
          1   -1    0    0  501    0 -0.00000000000E+00 -0.00000000000E+00 -0.51804533816E+03  0.51804533816E+03  0.00000000000E+00 0. -1.
         25    2    1    2    0    0  0.43315885500E+01  0.68156193352E+02  0.14412622904E+03  0.20263702082E+03  0.12500145181E+03 0.  0.
          2    1    1    2  501    0  0.92417467458E+02 -0.89667069446E+02 -0.47903063547E+03  0.49603580652E+03  0.00000000000E+00 0. -1.
          1    1    1    2  502    0 -0.96749056008E+02  0.21510876095E+02  0.19528555048E+04  0.19553689474E+04  0.00000000000E+00 0. -1.
         22    1    3    3    0    0  0.57959344997E+02  0.29088032586E+02  0.31913953381E+02  0.72276550365E+02  0.00000000000E+00 0.  1.
         22    1    3    3    0    0 -0.53627756447E+02  0.39068160765E+02  0.11221227566E+03  0.13036047045E+03  0.00000000000E+00 0.  1.
</event>
<event>
 7    1  0.8278507E-006  0.8433147E+02  0.7818608E-02  0.1410974E+00
          2   -1    0    0  502    0  0.00000000000E+00  0.00000000000E+00  0.48979605384E+03  0.48979605384E+03  0.00000000000E+00 0. -1.
          1   -1    0    0  501    0 -0.00000000000E+00 -0.00000000000E+00 -0.11998915684E+03  0.11998915684E+03  0.00000000000E+00 0. -1.
         25    2    1    2    0    0 -0.37781237798E+02 -0.37049971016E+02  0.78225227106E+02  0.15666788878E+03  0.12500207573E+03 0.  0.
          2    1    1    2  501    0  0.67370680129E+02  0.61674478385E+02 -0.53528271381E+02  0.10586701877E+03  0.00000000000E+00 0. -1.
          1    1    1    2  502    0 -0.29589442332E+02 -0.24624507369E+02  0.34510994128E+03  0.34725030314E+03  0.00000000000E+00 0. -1.
         22    1    3    3    0    0  0.40439313772E+02  0.13329940075E+02  0.27650914353E+02  0.50770054809E+02  0.00000000000E+00 0.  1.
         22    1    3    3    0    0 -0.78220551570E+02 -0.50379911091E+02  0.50574312753E+02  0.10589783397E+03  0.00000000000E+00 0.  1.
</event>
<event>
 7    1  0.1060100E-005  0.5180417E+02  0.7818608E-02  0.1445961E+00
          2   -1    0    0  502    0  0.00000000000E+00  0.00000000000E+00  0.23242038759E+04  0.23242038759E+04  0.00000000000E+00 0. -1.
          1   -1    0    0  501    0 -0.00000000000E+00 -0.00000000000E+00 -0.77761302688E+03  0.77761302688E+03  0.00000000000E+00 0. -1.
         25    2    1    2    0    0  0.24214513202E+02 -0.36559165906E+01 -0.10539397649E+02  0.12781411285E+03  0.12500264063E+03 0.  0.
          2    1    1    2  501    0 -0.11278112663E+02 -0.46695025659E+02 -0.70732326299E+03  0.70895262155E+03  0.00000000000E+00 0. -1.
          1    1    1    2  502    0 -0.12936400539E+02  0.50350942249E+02  0.22644535096E+04  0.22650501684E+04  0.00000000000E+00 0. -1.
         22    1    3    3    0    0  0.48542826381E+02 -0.39396862785E+02  0.29280869048E+02  0.69035411802E+02  0.00000000000E+00 0. -1.
         22    1    3    3    0    0 -0.24328313179E+02  0.35740946194E+02 -0.39820266698E+02  0.58778701048E+02  0.00000000000E+00 0. -1.
</event>
<event>
 7    1  0.8278507E-006  0.1505129E+03  0.7818608E-02  0.1266010E+00
          2   -1    0    0  502    0  0.00000000000E+00  0.00000000000E+00  0.20639890743E+04  0.20639890743E+04  0.00000000000E+00 0. -1.
          1   -1    0    0  501    0 -0.00000000000E+00 -0.00000000000E+00 -0.10813156694E+03  0.10813156694E+03  0.00000000000E+00 0. -1.
         25    2    1    2    0    0  0.94912011221E+02  0.18792349726E+03  0.11614602635E+04  0.11869868253E+04  0.12499699703E+03 0.  0.
          2    1    1    2  501    0 -0.96805707149E+02 -0.11171842783E+03 -0.35267797234E+02  0.15197423984E+03  0.00000000000E+00 0. -1.
          1    1    1    2  502    0  0.18936959279E+01 -0.76205069432E+02  0.82966504114E+03  0.83315957606E+03  0.00000000000E+00 0. -1.
         22    1    3    3    0    0 -0.10389695637E+02  0.53652422787E+02  0.53228175862E+03  0.53507980601E+03  0.00000000000E+00 0. -1.
         22    1    3    3    0    0  0.10530170686E+03  0.13427107447E+03  0.62917850484E+03  0.65190701933E+03  0.00000000000E+00 0. -1.
</event>
<event>
 7    1  0.8278507E-006  0.1561846E+03  0.7818608E-02  0.1235201E+00
          2   -1    0    0  502    0  0.00000000000E+00  0.00000000000E+00  0.24218216662E+04  0.24218216662E+04  0.00000000000E+00 0. -1.
          1   -1    0    0  501    0 -0.00000000000E+00 -0.00000000000E+00 -0.12272468963E+04  0.12272468963E+04  0.00000000000E+00 0. -1.
         25    2    1    2    0    0  0.70932391543E+02 -0.90628917793E+02  0.37234861998E+03  0.40928369978E+03  0.12499858879E+03 0.  0.
          2    1    1    2  501    0  0.89849100970E+02  0.43687393926E+02 -0.12032523073E+04  0.12073928790E+04  0.00000000000E+00 0. -1.
          1    1    1    2  502    0 -0.16078149251E+03  0.46941523867E+02  0.20254784571E+04  0.20323919837E+04  0.00000000000E+00 0. -1.
         22    1    3    3    0    0 -0.19065880621E+02  0.19776919229E+02  0.60410239859E+02  0.66362876805E+02  0.00000000000E+00 0. -1.
         22    1    3    3    0    0  0.89998272164E+02 -0.11040583702E+03  0.31193838012E+03  0.34292082298E+03  0.00000000000E+00 0. -1.
</event>
<event>
 7    1  0.8278507E-006  0.4018328E+02  0.7818608E-02  0.1584161E+00
          2   -1    0    0  502    0  0.00000000000E+00  0.00000000000E+00  0.12909861897E+03  0.12909861897E+03  0.00000000000E+00 0. -1.
          1   -1    0    0  501    0 -0.00000000000E+00 -0.00000000000E+00 -0.11525242678E+03  0.11525242678E+03  0.00000000000E+00 0. -1.
         25    2    1    2    0    0 -0.16819568988E+02  0.40769367839E+01  0.63308832283E+02  0.14118182200E+03  0.12499911721E+03 0.  0.
          2    1    1    2  501    0  0.41080580932E+02 -0.64680379352E+01 -0.62845272281E+02  0.75358993442E+02  0.00000000000E+00 0. -1.
          1    1    1    2  502    0 -0.24261011944E+02  0.23911011513E+01  0.13382632196E+02  0.27810230308E+02  0.00000000000E+00 0. -1.
         22    1    3    3    0    0 -0.21139691054E+01  0.62345336955E+02  0.49210234438E+02  0.79454748623E+02  0.00000000000E+00 0.  1.
         22    1    3    3    0    0 -0.14705599882E+02 -0.58268400171E+02  0.14098597845E+02  0.61727073376E+02  0.00000000000E+00 0.  1.
</event>
<event>
 7    1  0.8278507E-006  0.1951568E+03  0.7818608E-02  0.1276358E+00
          2   -1    0    0  502    0  0.00000000000E+00  0.00000000000E+00  0.31397101923E+04  0.31397101923E+04  0.00000000000E+00 0. -1.
          1   -1    0    0  501    0 -0.00000000000E+00 -0.00000000000E+00 -0.31726366493E+02  0.31726366493E+02  0.00000000000E+00 0. -1.
         25    2    1    2    0    0 -0.19750681552E+03 -0.95002524788E+02  0.15676979642E+04  0.15878694668E+04  0.12497245589E+03 0.  0.
          2    1    1    2  501    0  0.18468944428E+03  0.43367005162E+02  0.40711018538E+03  0.44914317428E+03  0.00000000000E+00 0. -1.
          1    1    1    2  502    0  0.12817371236E+02  0.51635519626E+02  0.11331756762E+04  0.11344239177E+04  0.00000000000E+00 0. -1.
         22    1    3    3    0    0 -0.75050660616E+02 -0.47544990401E+02  0.28652425883E+03  0.29998213058E+03  0.00000000000E+00 0. -1.
         22    1    3    3    0    0 -0.12245615490E+03 -0.47457534388E+02  0.12811737054E+04  0.12878873363E+04  0.00000000000E+00 0. -1.
</event>
<event>
 7    1  0.8278507E-006  0.1961510E+03  0.7818608E-02  0.1379983E+00
          2   -1    0    0  502    0  0.00000000000E+00  0.00000000000E+00  0.45345764229E+03  0.45345764229E+03  0.00000000000E+00 0. -1.
          1   -1    0    0  501    0 -0.00000000000E+00 -0.00000000000E+00 -0.61826903644E+03  0.61826903644E+03  0.00000000000E+00 0. -1.
         25    2    1    2    0    0 -0.19161781088E+03 -0.93061856677E+02 -0.29670592323E+02  0.24876295814E+03  0.12499908272E+03 0.  0.
          2    1    1    2  501    0  0.15454098705E+02  0.14495722309E+02 -0.45173797765E+03  0.45223462448E+03  0.00000000000E+00 0. -1.
          1    1    1    2  502    0  0.17616371217E+03  0.78566134368E+02  0.31659717583E+03  0.37072909610E+03  0.00000000000E+00 0. -1.
         22    1    3    3    0    0 -0.13112423464E+03 -0.64857682787E+02  0.40629034742E+02  0.15182490702E+03  0.00000000000E+00 0.  1.
         22    1    3    3    0    0 -0.60493576237E+02 -0.28204173890E+02 -0.70299627065E+02  0.96938051127E+02  0.00000000000E+00 0.  1.
</event>
<event>
 7    1  0.8278507E-006  0.8380715E+02  0.7818608E-02  0.1469702E+00
          2   -1    0    0  502    0  0.00000000000E+00  0.00000000000E+00  0.18454293300E+04  0.18454293300E+04  0.00000000000E+00 0. -1.
          1   -1    0    0  501    0 -0.00000000000E+00 -0.00000000000E+00 -0.83311995825E+03  0.83311995825E+03  0.00000000000E+00 0. -1.
         25    2    1    2    0    0 -0.96744367128E+02 -0.40937312790E+02 -0.41501529955E+02  0.16847411942E+03  0.12500326306E+03 0.  0.
          2    1    1    2  501    0  0.24907636761E+02 -0.18576629615E+01 -0.72693659290E+03  0.72736555554E+03  0.00000000000E+00 0. -1.
          1    1    1    2  502    0  0.71836730368E+02  0.42794975752E+02  0.17807474946E+04  0.17827096132E+04  0.00000000000E+00 0. -1.
         22    1    3    3    0    0  0.14247219650E+02 -0.48395869449E+02 -0.23987904990E+02  0.55861999904E+02  0.00000000000E+00 0. -1.
         22    1    3    3    0    0 -0.11099158678E+03  0.74585566584E+01 -0.17513624964E+02  0.11261211952E+03  0.00000000000E+00 0. -1.
</event>
<event>
 7    1  0.8278507E-006  0.7574863E+02  0.7818608E-02  0.1347211E+00
          2   -1    0    0  502    0  0.00000000000E+00  0.00000000000E+00  0.12527006638E+03  0.12527006638E+03  0.00000000000E+00 0. -1.
          1   -1    0    0  501    0 -0.00000000000E+00 -0.00000000000E+00 -0.11953835365E+04  0.11953835365E+04  0.00000000000E+00 0. -1.
         25    2    1    2    0    0  0.63559339558E+02  0.14694175188E+02 -0.18047851387E+03  0.22902843403E+03  0.12500328475E+03 0.  0.
          2    1    1    2  501    0 -0.54043103906E+02  0.56834093531E+02 -0.97596423932E+03  0.97911029394E+03  0.00000000000E+00 0. -1.
          1    1    1    2  502    0 -0.95162356522E+01 -0.71528268719E+02  0.86329283055E+02  0.11251487493E+03  0.00000000000E+00 0. -1.
         22    1    3    3    0    0  0.29397615668E+02 -0.52043223504E+02 -0.11448058999E+03  0.12914535379E+03  0.00000000000E+00 0. -1.
         22    1    3    3    0    0  0.34161723890E+02  0.66737398692E+02 -0.65997923872E+02  0.99883080243E+02  0.00000000000E+00 0. -1.
</event>
<event>
 7    1  0.8278507E-006  0.9024919E+02  0.7818608E-02  0.1346212E+00
          2   -1    0    0  502    0  0.00000000000E+00  0.00000000000E+00  0.14871502642E+04  0.14871502642E+04  0.00000000000E+00 0. -1.
          1   -1    0    0  501    0 -0.00000000000E+00 -0.00000000000E+00 -0.24972273151E+03  0.24972273151E+03  0.00000000000E+00 0. -1.
         25    2    1    2    0    0  0.68229691027E+02 -0.63656970907E+02  0.80262650107E+03  0.81764419246E+03  0.12500089818E+03 0.  0.
          2    1    1    2  501    0 -0.90185659056E+02  0.66531739962E+01 -0.23232896034E+03  0.24930796946E+03  0.00000000000E+00 0. -1.
          1    1    1    2  502    0  0.21955968029E+02  0.57003796910E+02  0.66712999193E+03  0.66992083377E+03  0.00000000000E+00 0. -1.
         22    1    3    3    0    0 -0.75055160928E+01 -0.43325741866E+02  0.57900315068E+03  0.58067038945E+03  0.00000000000E+00 0.  1.
         22    1    3    3    0    0  0.75735207120E+02 -0.20331229041E+02  0.22362335039E+03  0.23697380301E+03  0.00000000000E+00 0.  1.
</event>
<event>
 7    1  0.8278507E-006  0.5492059E+02  0.7818608E-02  0.1443178E+00
          2   -1    0    0  502    0  0.00000000000E+00  0.00000000000E+00  0.76801550191E+03  0.76801550191E+03  0.00000000000E+00 0. -1.
          1   -1    0    0  501    0 -0.00000000000E+00 -0.00000000000E+00 -0.17321664785E+03  0.17321664785E+03  0.00000000000E+00 0. -1.
         25    2    1    2    0    0  0.60150038586E+02 -0.75128378713E+02  0.74435204111E+02  0.17443620453E+03  0.12500035764E+03 0.  0.
          2    1    1    2  501    0 -0.38535530886E+02  0.25588916691E+02 -0.11769141245E+03  0.12645571700E+03  0.00000000000E+00 0. -1.
          1    1    1    2  502    0 -0.21614507701E+02  0.49539462021E+02  0.63805506239E+03  0.64034022823E+03  0.00000000000E+00 0. -1.
         22    1    3    3    0    0  0.64971109605E+02 -0.10310617944E+02 -0.11404336338E+02  0.66765356384E+02  0.00000000000E+00 0. -1.
         22    1    3    3    0    0 -0.48210710186E+01 -0.64817760769E+02  0.85839540449E+02  0.10767084815E+03  0.00000000000E+00 0. -1.
</event>
<event>
 7    1  0.8278507E-006  0.1034393E+03  0.7818608E-02  0.1374569E+00
          2   -1    0    0  502    0  0.00000000000E+00  0.00000000000E+00  0.81924704997E+03  0.81924704997E+03  0.00000000000E+00 0. -1.
          1   -1    0    0  501    0 -0.00000000000E+00 -0.00000000000E+00 -0.59240934283E+02  0.59240934283E+02  0.00000000000E+00 0. -1.
         25    2    1    2    0    0 -0.82450232698E+02  0.67320064613E+02  0.19919500803E+03  0.25813507816E+03  0.12500014152E+03 0.  0.
          2    1    1    2  501    0  0.48875682439E+02 -0.92555815145E+02  0.65950089666E+02  0.12371267347E+03  0.00000000000E+00 0. -1.
          1    1    1    2  502    0  0.33574550259E+02  0.25235750531E+02  0.49486101799E+03  0.49664023262E+03  0.00000000000E+00 0. -1.
         22    1    3    3    0    0 -0.41973574615E+02 -0.52144392531E+01 -0.20430036072E-01  0.42296238131E+02  0.00000000000E+00 0.  1.
         22    1    3    3    0    0 -0.40476658083E+02  0.72534503867E+02  0.19921543806E+03  0.21583884003E+03  0.00000000000E+00 0.  1.
</event>
<event>
 7    1  0.8278507E-006  0.6087039E+02  0.7818608E-02  0.1464855E+00
          2   -1    0    0  502    0  0.00000000000E+00  0.00000000000E+00  0.13884180603E+04  0.13884180603E+04  0.00000000000E+00 0. -1.
          1   -1    0    0  501    0 -0.00000000000E+00 -0.00000000000E+00 -0.25013093554E+02  0.25013093554E+02  0.00000000000E+00 0. -1.
         25    2    1    2    0    0 -0.23712789380E+02  0.39830693447E+02  0.38267045605E+03  0.40522901534E+03  0.12500038569E+03 0.  0.
          2    1    1    2  501    0 -0.14611048045E+01 -0.65013795975E+02  0.65583552096E+02  0.92358707223E+02  0.00000000000E+00 0. -1.
          1    1    1    2  502    0  0.25173894185E+02  0.25183102528E+02  0.91515095864E+03  0.91584343132E+03  0.00000000000E+00 0. -1.
         22    1    3    3    0    0 -0.55204581678E+02  0.37751140598E+02  0.97000727872E+02  0.11782120209E+03  0.00000000000E+00 0.  1.
         22    1    3    3    0    0  0.31491792298E+02  0.20795528487E+01  0.28566972817E+03  0.28740781325E+03  0.00000000000E+00 0.  1.
</event>
<event>
 7    1  0.1131307E-005  0.8084686E+02  0.7818608E-02  0.1388833E+00
          2   -1    0    0  502    0  0.00000000000E+00  0.00000000000E+00  0.15793225401E+04  0.15793225401E+04  0.00000000000E+00 0. -1.
          1   -1    0    0  501    0 -0.00000000000E+00 -0.00000000000E+00 -0.47204929613E+03  0.47204929613E+03  0.00000000000E+00 0. -1.
         25    2    1    2    0    0  0.51290182357E+02  0.30373922305E+02 -0.83882487916E+02  0.16190872687E+03  0.12499962438E+03 0.  0.
          2    1    1    2  501    0  0.29510390591E+02 -0.37667252525E+02 -0.34643977678E+03  0.34972875776E+03  0.00000000000E+00 0. -1.
          1    1    1    2  502    0 -0.80800572948E+02  0.72933302203E+01  0.15375955087E+04  0.15397343516E+04  0.00000000000E+00 0. -1.
         22    1    3    3    0    0  0.46218628828E+02 -0.19294168499E+02 -0.97972733783E+02  0.11003219144E+03  0.00000000000E+00 0.  1.
         22    1    3    3    0    0  0.50715535287E+01  0.49668090804E+02  0.14090245868E+02  0.51876535427E+02  0.00000000000E+00 0.  1.
</event>
<event>
 7    1  0.8278507E-006  0.6584409E+02  0.7818608E-02  0.1496531E+00
          2   -1    0    0  502    0  0.00000000000E+00  0.00000000000E+00  0.30630946331E+03  0.30630946331E+03  0.00000000000E+00 0. -1.
          1   -1    0    0  501    0 -0.00000000000E+00 -0.00000000000E+00 -0.10829562959E+04  0.10829562959E+04  0.00000000000E+00 0. -1.
         25    2    1    2    0    0  0.76493487073E+01  0.67280354512E+02 -0.17910570900E+03  0.22866760498E+03  0.12499943973E+03 0.  0.
          2    1    1    2  501    0 -0.32145275111E+02 -0.57642402094E+02 -0.87721190821E+03  0.87969125103E+03  0.00000000000E+00 0. -1.
          1    1    1    2  502    0  0.24495926404E+02 -0.96379524181E+01  0.27967078458E+03  0.28090690324E+03  0.00000000000E+00 0. -1.
         22    1    3    3    0    0  0.30910337100E+02 -0.25944472254E+02 -0.85406392799E+02  0.94460661183E+02  0.00000000000E+00 0.  1.
         22    1    3    3    0    0 -0.23260988393E+02  0.93224826766E+02 -0.93699316200E+02  0.13420694380E+03  0.00000000000E+00 0.  1.
</event>
<event>
 7    1  0.8278507E-006  0.8352469E+02  0.7818608E-02  0.1496459E+00
          2   -1    0    0  502    0  0.00000000000E+00  0.00000000000E+00  0.13718336909E+04  0.13718336909E+04  0.00000000000E+00 0. -1.
          1   -1    0    0  501    0 -0.00000000000E+00 -0.00000000000E+00 -0.90950120092E+03  0.90950120092E+03  0.00000000000E+00 0. -1.
         25    2    1    2    0    0  0.36827751774E+02 -0.75974781285E+02 -0.37584848919E+03  0.40498872884E+03  0.12500133188E+03 0.  0.
          2    1    1    2  501    0 -0.53901907797E+02  0.64162828204E+02 -0.51562041319E+03  0.52238558047E+03  0.00000000000E+00 0. -1.
          1    1    1    2  502    0  0.17074156023E+02  0.11811953080E+02  0.13538013924E+04  0.13539605825E+04  0.00000000000E+00 0. -1.
         22    1    3    3    0    0 -0.31472266712E+02 -0.76094973410E+02 -0.21569963178E+03  0.23088369301E+03  0.00000000000E+00 0. -1.
         22    1    3    3    0    0  0.68300018486E+02  0.12019212476E+00 -0.16014885741E+03  0.17410503583E+03  0.00000000000E+00 0. -1.
</event>
<event>
 7    1  0.8278507E-006  0.1251697E+03  0.7818608E-02  0.1296732E+00
          2   -1    0    0  502    0  0.00000000000E+00  0.00000000000E+00  0.85129679811E+03  0.85129679811E+03  0.00000000000E+00 0. -1.
          1   -1    0    0  501    0 -0.00000000000E+00 -0.00000000000E+00 -0.13765151375E+03  0.13765151375E+03  0.00000000000E+00 0. -1.
         25    2    1    2    0    0  0.13942906887E+03  0.11116229761E+02  0.62351677455E+03  0.65112368377E+03  0.12499939044E+03 0.  0.
          2    1    1    2  501    0 -0.11381157397E+03  0.52379865046E+02 -0.83918185577E+02  0.15079451748E+03  0.00000000000E+00 0. -1.
          1    1    1    2  502    0 -0.25617494901E+02 -0.63496094807E+02  0.17404669538E+03  0.18703011061E+03  0.00000000000E+00 0. -1.
         22    1    3    3    0    0  0.75872193919E+01  0.27773334041E+02  0.29997860793E+03  0.30135707922E+03  0.00000000000E+00 0.  1.
         22    1    3    3    0    0  0.13184184948E+03 -0.16657104279E+02  0.32353816663E+03  0.34976660455E+03  0.00000000000E+00 0.  1.
</event>
<event>
 7    1  0.8278507E-006  0.8466990E+02  0.7818608E-02  0.1337611E+00
          2   -1    0    0  502    0  0.00000000000E+00  0.00000000000E+00  0.30255070815E+02  0.30255070815E+02  0.00000000000E+00 0. -1.
          1   -1    0    0  501    0 -0.00000000000E+00 -0.00000000000E+00 -0.20020386676E+04  0.20020386676E+04  0.00000000000E+00 0. -1.
         25    2    1    2    0    0 -0.32904444700E+02  0.11436971702E+03 -0.48017217829E+03  0.51024696454E+03  0.12499403734E+03 0.  0.
          2    1    1    2  501    0  0.58860518672E+02 -0.38131336879E+02 -0.13928351120E+04  0.13945996589E+04  0.00000000000E+00 0. -1.
          1    1    1    2  502    0 -0.25956073972E+02 -0.76238380141E+02 -0.98776306567E+02  0.12744711500E+03  0.00000000000E+00 0. -1.
         22    1    3    3    0    0 -0.36920386057E+02 -0.16253429371E+02 -0.14473983651E+03  0.15025614512E+03  0.00000000000E+00 0. -1.
         22    1    3    3    0    0  0.40159413571E+01  0.13062314639E+03 -0.33543234178E+03  0.35999081943E+03  0.00000000000E+00 0. -1.
</event>
<event>
 7    1  0.8278507E-006  0.8050835E+02  0.7818608E-02  0.1443699E+00
          2   -1    0    0  502    0  0.00000000000E+00  0.00000000000E+00  0.17409289131E+04  0.17409289131E+04  0.00000000000E+00 0. -1.
          1   -1    0    0  501    0 -0.00000000000E+00 -0.00000000000E+00 -0.11888933984E+03  0.11888933984E+03  0.00000000000E+00 0. -1.
         25    2    1    2    0    0 -0.68921884065E+01  0.61443452442E+02  0.14510377282E+03  0.20125265082E+03  0.12499889787E+03 0.  0.
          2    1    1    2  501    0 -0.17746990090E+02 -0.80962557121E+02 -0.71710342223E+02  0.10960047671E+03  0.00000000000E+00 0. -1.
          1    1    1    2  502    0  0.24639178496E+02  0.19519104679E+02  0.15486461427E+04  0.15489651254E+04  0.00000000000E+00 0. -1.
         22    1    3    3    0    0 -0.42532770027E+02  0.32263341155E+02  0.14571494601E+03  0.15518635636E+03  0.00000000000E+00 0. -1.
         22    1    3    3    0    0  0.35640581620E+02  0.29180111287E+02 -0.61117319342E+00  0.46066294464E+02  0.00000000000E+00 0. -1.
</event>
<event>
 7    1  0.8278507E-006  0.1510658E+03  0.7818608E-02  0.1343018E+00
          2   -1    0    0  502    0  0.00000000000E+00  0.00000000000E+00  0.39193248262E+03  0.39193248262E+03  0.00000000000E+00 0. -1.
          1   -1    0    0  501    0 -0.00000000000E+00 -0.00000000000E+00 -0.11624176492E+04  0.11624176492E+04  0.00000000000E+00 0. -1.
         25    2    1    2    0    0 -0.21678375669E+02 -0.12429313630E+03 -0.20036671554E+03  0.26775142603E+03  0.12500107895E+03 0.  0.
          2    1    1    2  501    0 -0.32489470709E+02 -0.18747125317E+02 -0.91162918153E+03  0.91240056172E+03  0.00000000000E+00 0. -1.
          1    1    1    2  502    0  0.54167846378E+02  0.14304026162E+03  0.34151073046E+03  0.37419814410E+03  0.00000000000E+00 0. -1.
         22    1    3    3    0    0 -0.20658570192E+02 -0.90755561628E+02 -0.35680186973E+02  0.99681614309E+02  0.00000000000E+00 0.  1.
         22    1    3    3    0    0 -0.10198054765E+01 -0.33537574674E+02 -0.16468652857E+03  0.16806981172E+03  0.00000000000E+00 0.  1.
</event>
<event>
 7    1  0.8278507E-006  0.4868118E+02  0.7818608E-02  0.1559365E+00
          2   -1    0    0  502    0  0.00000000000E+00  0.00000000000E+00  0.29928434480E+03  0.29928434480E+03  0.00000000000E+00 0. -1.
          1   -1    0    0  501    0 -0.00000000000E+00 -0.00000000000E+00 -0.71090965746E+03  0.71090965746E+03  0.00000000000E+00 0. -1.
         25    2    1    2    0    0  0.60461121454E+02 -0.38314717223E+02 -0.17048287124E+03  0.22318836678E+03  0.12500029168E+03 0.  0.
          2    1    1    2  501    0 -0.21411185631E+02  0.96644938266E+01 -0.51165377530E+03  0.51219276361E+03  0.00000000000E+00 0. -1.
          1    1    1    2  502    0 -0.39049935823E+02  0.28650223396E+02  0.27051133387E+03  0.27481287187E+03  0.00000000000E+00 0. -1.
         22    1    3    3    0    0  0.39350798795E+02 -0.16866509408E+02 -0.18491914062E+03  0.18981057155E+03  0.00000000000E+00 0.  1.
         22    1    3    3    0    0  0.21110322659E+02 -0.21448207815E+02  0.14436269379E+02  0.33377795236E+02  0.00000000000E+00 0.  1.
</event>
<event>
 7    1  0.8278507E-006  0.2792456E+02  0.7818608E-02  0.1644796E+00
          2   -1    0    0  502    0  0.00000000000E+00  0.00000000000E+00  0.84565459608E+03  0.84565459608E+03  0.00000000000E+00 0. -1.
          1   -1    0    0  501    0 -0.00000000000E+00 -0.00000000000E+00 -0.19761589765E+03  0.19761589765E+03  0.00000000000E+00 0. -1.
         25    2    1    2    0    0  0.46799980637E+02  0.21164150901E+02  0.10285473296E+02  0.13553109544E+03  0.12499890959E+03 0.  0.
          2    1    1    2  501    0 -0.23095168286E+02 -0.14900264219E+02 -0.13339725572E+03  0.13619923827E+03  0.00000000000E+00 0. -1.
          1    1    1    2  502    0 -0.23704812351E+02 -0.62638866813E+01  0.77115048085E+03  0.77154016002E+03  0.00000000000E+00 0. -1.
         22    1    3    3    0    0  0.85785008663E+02 -0.46859767578E+01  0.18901283378E+02  0.87967520159E+02  0.00000000000E+00 0.  1.
         22    1    3    3    0    0 -0.38985028027E+02  0.25850127658E+02 -0.86158100821E+01  0.47563575282E+02  0.00000000000E+00 0.  1.
</event>
<event>
 7    1  0.8278507E-006  0.1207400E+03  0.7818608E-02  0.1335517E+00
          2   -1    0    0  502    0  0.00000000000E+00  0.00000000000E+00  0.17715790498E+04  0.17715790498E+04  0.00000000000E+00 0. -1.
          1   -1    0    0  501    0 -0.00000000000E+00 -0.00000000000E+00 -0.19961491267E+04  0.19961491267E+04  0.00000000000E+00 0. -1.
         25    2    1    2    0    0  0.14912167753E+03 -0.76532810854E+02  0.15757351908E+03  0.26181829486E+03  0.12499943905E+03 0.  0.
          2    1    1    2  501    0 -0.99949406083E+02  0.67009695423E+02 -0.19417622016E+04  0.19454872476E+04  0.00000000000E+00 0. -1.
          1    1    1    2  502    0 -0.49172271445E+02  0.95231154308E+01  0.15596186056E+04  0.15604226341E+04  0.00000000000E+00 0. -1.
         22    1    3    3    0    0  0.16855016526E+03 -0.77558413535E+02  0.12447259821E+03  0.22342312643E+03  0.00000000000E+00 0. -1.
         22    1    3    3    0    0 -0.19428487730E+02  0.10256026812E+01  0.33100920869E+02  0.38395168429E+02  0.00000000000E+00 0. -1.
</event>
<event>
 7    1  0.8278507E-006  0.3902915E+02  0.7818608E-02  0.1579838E+00
          2   -1    0    0  502    0  0.00000000000E+00  0.00000000000E+00  0.18292480890E+04  0.18292480890E+04  0.00000000000E+00 0. -1.
          1   -1    0    0  501    0 -0.00000000000E+00 -0.00000000000E+00 -0.10806869618E+03  0.10806869618E+03  0.00000000000E+00 0. -1.
         25    2    1    2    0    0  0.92746826766E+00 -0.14325345099E+02  0.19584897212E+03  0.23278359238E+03  0.12500122116E+03 0.  0.
          2    1    1    2  501    0 -0.11525501074E+02  0.37822567453E+02 -0.85131169395E+02  0.93865327924E+02  0.00000000000E+00 0. -1.
          1    1    1    2  502    0  0.10598032806E+02 -0.23497222354E+02  0.16104615901E+04  0.16106678649E+04  0.00000000000E+00 0. -1.
         22    1    3    3    0    0 -0.47343302393E+02 -0.31145290781E+02  0.16161308256E+03  0.17126063725E+03  0.00000000000E+00 0. -1.
         22    1    3    3    0    0  0.48270770661E+02  0.16819945682E+02  0.34235889563E+02  0.61522955124E+02  0.00000000000E+00 0. -1.
</event>
<event>
 7    1  0.8278507E-006  0.9002273E+02  0.7818608E-02  0.1437290E+00
          2   -1    0    0  502    0  0.00000000000E+00  0.00000000000E+00  0.29213303554E+04  0.29213303554E+04  0.00000000000E+00 0. -1.
          1   -1    0    0  501    0 -0.00000000000E+00 -0.00000000000E+00 -0.19614851384E+02  0.19614851384E+02  0.00000000000E+00 0. -1.
         25    2    1    2    0    0 -0.91148568837E+02  0.55874202143E+02  0.94931344414E+03  0.96345801880E+03  0.12500140277E+03 0.  0.
          2    1    1    2  501    0  0.75118405155E+01 -0.28516835645E+02  0.72790499081E+01  0.30374697212E+02  0.00000000000E+00 0. -1.
          1    1    1    2  502    0  0.83636728322E+02 -0.27357366498E+02  0.19451230100E+04  0.19471124908E+04  0.00000000000E+00 0. -1.
         22    1    3    3    0    0 -0.47203580100E+02  0.51314386959E+02  0.18238207167E+03  0.19525512631E+03  0.00000000000E+00 0.  1.
         22    1    3    3    0    0 -0.43944988737E+02  0.45598151843E+01  0.76693137247E+03  0.76820289249E+03  0.00000000000E+00 0.  1.
</event>
<event>
 7    1  0.8278507E-006  0.1248359E+03  0.7818608E-02  0.1366677E+00
          2   -1    0    0  502    0  0.00000000000E+00  0.00000000000E+00  0.17412249850E+04  0.17412249850E+04  0.00000000000E+00 0. -1.
          1   -1    0    0  501    0 -0.00000000000E+00 -0.00000000000E+00 -0.50037026218E+02  0.50037026218E+02  0.00000000000E+00 0. -1.
         25    2    1    2    0    0  0.74099792649E+02 -0.13095438982E+03  0.38282660724E+03  0.42990621690E+03  0.12499325038E+03 0.  0.
          2    1    1    2  501    0 -0.45010705794E+02  0.10784825643E+03  0.10405236980E+03  0.15647397775E+03  0.00000000000E+00 0. -1.
          1    1    1    2  502    0 -0.29089086854E+02  0.23106133386E+02  0.12043089817E+04  0.12048818166E+04  0.00000000000E+00 0. -1.
         22    1    3    3    0    0  0.19574705920E+02 -0.84510794184E+02  0.32918168274E+03  0.34042006947E+03  0.00000000000E+00 0. -1.
         22    1    3    3    0    0  0.54525086729E+02 -0.46443595635E+02  0.53644924497E+02  0.89486147434E+02  0.00000000000E+00 0. -1.
</event>
<event>
 7    1  0.8278507E-006  0.4239367E+02  0.7818608E-02  0.1496194E+00
          2   -1    0    0  502    0  0.00000000000E+00  0.00000000000E+00  0.11130375717E+04  0.11130375717E+04  0.00000000000E+00 0. -1.
          1   -1    0    0  501    0 -0.00000000000E+00 -0.00000000000E+00 -0.57526975647E+03  0.57526975647E+03  0.00000000000E+00 0. -1.
         25    2    1    2    0    0  0.24766486649E+02  0.57522863307E+02 -0.25879008375E+02  0.14218697181E+03  0.12500061285E+03 0.  0.
          2    1    1    2  501    0  0.13231254902E+02 -0.38785348555E+02 -0.48995563179E+03  0.49166644231E+03  0.00000000000E+00 0. -1.
          1    1    1    2  502    0 -0.37997741550E+02 -0.18737514752E+02  0.10536024554E+04  0.10544539141E+04  0.00000000000E+00 0. -1.
         22    1    3    3    0    0 -0.64456446606E+01  0.68067746830E+02  0.32075937531E+02  0.75522382524E+02  0.00000000000E+00 0.  1.
         22    1    3    3    0    0  0.31212131309E+02 -0.10544883523E+02 -0.57954945906E+02  0.66664589283E+02  0.00000000000E+00 0.  1.
</event>
<event>
 7    1  0.8278507E-006  0.9046672E+02  0.7818608E-02  0.1421465E+00
          2   -1    0    0  502    0  0.00000000000E+00  0.00000000000E+00  0.27770212770E+04  0.27770212770E+04  0.00000000000E+00 0. -1.
          1   -1    0    0  501    0 -0.00000000000E+00 -0.00000000000E+00 -0.17188827016E+04  0.17188827016E+04  0.00000000000E+00 0. -1.
         25    2    1    2    0    0  0.96600192693E+02 -0.46243829780E+02  0.20522351452E+04  0.20588257617E+04  0.12499734757E+03 0.  0.
          2    1    1    2  501    0 -0.18834986664E+02  0.27204664030E+02 -0.17132060833E+04  0.17135255861E+04  0.00000000000E+00 0. -1.
          1    1    1    2  502    0 -0.77765206030E+02  0.19039165750E+02  0.71910951347E+03  0.72355263075E+03  0.00000000000E+00 0. -1.
         22    1    3    3    0    0  0.82650129035E+02  0.23803871268E+02  0.81373798441E+03  0.81827084477E+03  0.00000000000E+00 0. -1.
         22    1    3    3    0    0  0.13950063658E+02 -0.70047701048E+02  0.12384971608E+04  0.12405549169E+04  0.00000000000E+00 0. -1.
</event>
<event>
 7    1  0.8278507E-006  0.9446111E+02  0.7818608E-02  0.1319402E+00
          2   -1    0    0  502    0  0.00000000000E+00  0.00000000000E+00  0.39406316734E+03  0.39406316734E+03  0.00000000000E+00 0. -1.
          1   -1    0    0  501    0 -0.00000000000E+00 -0.00000000000E+00 -0.21145755481E+04  0.21145755481E+04  0.00000000000E+00 0. -1.
         25    2    1    2    0    0  0.15347386548E+02  0.63498035187E+02 -0.15767246089E+02  0.14191875204E+03  0.12499913354E+03 0.  0.
          2    1    1    2  501    0  0.57357706866E+02 -0.76227868380E+02 -0.20304836806E+04  0.20327234371E+04  0.00000000000E+00 0. -1.
          1    1    1    2  502    0 -0.72705093414E+02  0.12729833193E+02  0.32573854595E+03  0.33399652630E+03  0.00000000000E+00 0. -1.
         22    1    3    3    0    0  0.20573748673E+02  0.15117271405E+02 -0.66734378566E+02  0.71451300280E+02  0.00000000000E+00 0. -1.
         22    1    3    3    0    0 -0.52263621245E+01  0.48380763782E+02  0.50967132477E+02  0.70467451764E+02  0.00000000000E+00 0. -1.
</event>
<event>
 7    1  0.8278507E-006  0.7726902E+02  0.7818608E-02  0.1374200E+00
          2   -1    0    0  502    0  0.00000000000E+00  0.00000000000E+00  0.11429950761E+04  0.11429950761E+04  0.00000000000E+00 0. -1.
          1   -1    0    0  501    0 -0.00000000000E+00 -0.00000000000E+00 -0.25703631201E+03  0.25703631201E+03  0.00000000000E+00 0. -1.
         25    2    1    2    0    0  0.10050165341E+02  0.22704449040E+02  0.14593288279E+03  0.19374621615E+03  0.12499876864E+03 0.  0.
          2    1    1    2  501    0 -0.76135186913E+01 -0.79048763576E+02 -0.22551980991E+03  0.23909382541E+03  0.00000000000E+00 0. -1.
          1    1    1    2  502    0 -0.24366466497E+01  0.56344314535E+02  0.96554569116E+03  0.96719134650E+03  0.00000000000E+00 0. -1.
         22    1    3    3    0    0  0.41409353967E+02  0.60802520028E+02  0.11147930295E+03  0.13356390240E+03  0.00000000000E+00 0. -1.
         22    1    3    3    0    0 -0.31359188626E+02 -0.38098070987E+02  0.34453579838E+02  0.60182313747E+02  0.00000000000E+00 0. -1.
</event>
<event>
 7    1  0.8278507E-006  0.1183978E+03  0.7818608E-02  0.1332989E+00
          2   -1    0    0  502    0  0.00000000000E+00  0.00000000000E+00  0.11432211884E+04  0.11432211884E+04  0.00000000000E+00 0. -1.
          1   -1    0    0  501    0 -0.00000000000E+00 -0.00000000000E+00 -0.11246946966E+03  0.11246946966E+03  0.00000000000E+00 0. -1.
         25    2    1    2    0    0  0.27189520408E+02  0.75909498866E+02  0.59210071661E+03  0.61049909330E+03  0.12499744908E+03 0.  0.
          2    1    1    2  501    0 -0.76225064920E+02 -0.93858880007E+02 -0.66063585992E+02  0.13778297163E+03  0.00000000000E+00 0. -1.
          1    1    1    2  502    0  0.49035544512E+02  0.17949381140E+02  0.50471458810E+03  0.50740859310E+03  0.00000000000E+00 0. -1.
         22    1    3    3    0    0 -0.97501786096E+01 -0.31356969512E+02  0.91793412733E+02  0.97490287419E+02  0.00000000000E+00 0.  1.
         22    1    3    3    0    0  0.36939699017E+02  0.10726646838E+03  0.50030730388E+03  0.51300880588E+03  0.00000000000E+00 0.  1.
</event>
<event>
 7    1  0.8278507E-006  0.6155026E+02  0.7818608E-02  0.1488967E+00
          2   -1    0    0  502    0  0.00000000000E+00  0.00000000000E+00  0.46040558192E+03  0.46040558192E+03  0.00000000000E+00 0. -1.
          1   -1    0    0  501    0 -0.00000000000E+00 -0.00000000000E+00 -0.12064792991E+04  0.12064792991E+04  0.00000000000E+00 0. -1.
         25    2    1    2    0    0  0.18434119195E+02  0.34814587943E+02  0.85293860667E+01  0.13134023348E+03  0.12500253685E+03 0.  0.
          2    1    1    2  501    0 -0.56408175757E+01 -0.61593341483E+02 -0.11436731171E+04  0.11453443837E+04  0.00000000000E+00 0. -1.
          1    1    1    2  502    0 -0.12793301620E+02  0.26778753540E+02  0.38907001386E+03  0.39020026383E+03  0.00000000000E+00 0. -1.
         22    1    3    3    0    0 -0.36045784697E+02  0.26650986350E+02  0.46378835618E+02  0.64502481046E+02  0.00000000000E+00 0.  1.
         22    1    3    3    0    0  0.54479903893E+02  0.81636015923E+01 -0.37849449551E+02  0.66837752434E+02  0.00000000000E+00 0.  1.
</event>
<event>
 7    1  0.8278507E-006  0.1375837E+03  0.7818608E-02  0.1325346E+00
          2   -1    0    0  502    0  0.00000000000E+00  0.00000000000E+00  0.51816590112E+03  0.51816590112E+03  0.00000000000E+00 0. -1.
          1   -1    0    0  501    0 -0.00000000000E+00 -0.00000000000E+00 -0.49952248787E+03  0.49952248787E+03  0.00000000000E+00 0. -1.
         25    2    1    2    0    0  0.98710684972E+01  0.92848205066E+02 -0.12502959548E+03  0.19994823309E+03  0.12501467512E+03 0.  0.
          2    1    1    2  501    0  0.16984154326E+02  0.44964386706E+02 -0.32497573261E+03  0.32851101101E+03  0.00000000000E+00 0. -1.
          1    1    1    2  502    0 -0.26855222823E+02 -0.13781259177E+03  0.46864874134E+03  0.48922914488E+03  0.00000000000E+00 0. -1.
         22    1    3    3    0    0  0.26013243020E+02  0.19853491993E+02 -0.12070810522E+03  0.12506516950E+03  0.00000000000E+00 0.  1.
         22    1    3    3    0    0 -0.16142174523E+02  0.72994713073E+02 -0.43214902559E+01  0.74883063592E+02  0.00000000000E+00 0.  1.
</event>
<event>
 7    1  0.8278507E-006  0.1238659E+03  0.7818608E-02  0.1359273E+00
          2   -1    0    0  502    0  0.00000000000E+00  0.00000000000E+00  0.16445764114E+04  0.16445764114E+04  0.00000000000E+00 0. -1.
          1   -1    0    0  501    0 -0.00000000000E+00 -0.00000000000E+00 -0.53258850934E+03  0.53258850934E+03  0.00000000000E+00 0. -1.
         25    2    1    2    0    0 -0.67316776106E+02 -0.90139794262E+02 -0.87583517123E+02  0.18961028315E+03  0.12499782458E+03 0.  0.
          2    1    1    2  501    0 -0.34760905157E+02  0.19450095510E+02 -0.39055846516E+03  0.39258443862E+03  0.00000000000E+00 0. -1.
          1    1    1    2  502    0  0.10207768126E+03  0.70689698752E+02  0.15901298844E+04  0.15949701990E+04  0.00000000000E+00 0. -1.
         22    1    3    3    0    0 -0.16083575770E+02  0.26947600659E+02  0.50210975343E+01  0.31781535697E+02  0.00000000000E+00 0.  1.
         22    1    3    3    0    0 -0.51233200336E+02 -0.11708739492E+03 -0.92604614657E+02  0.15782874745E+03  0.00000000000E+00 0.  1.
</event>
<event>
 7    1  0.8278507E-006  0.1004253E+03  0.7818608E-02  0.1332568E+00
          2   -1    0    0  502    0  0.00000000000E+00  0.00000000000E+00  0.47452610783E+03  0.47452610783E+03  0.00000000000E+00 0. -1.
          1   -1    0    0  501    0 -0.00000000000E+00 -0.00000000000E+00 -0.27870139580E+03  0.27870139580E+03  0.00000000000E+00 0. -1.
         25    2    1    2    0    0 -0.11440244172E+01 -0.15626933262E+03  0.85028478002E+02  0.21743354793E+03  0.12500437025E+03 0.  0.
          2    1    1    2  501    0 -0.10852763584E+01  0.61780839315E+02 -0.20084530556E+03  0.21013540086E+03  0.00000000000E+00 0. -1.
          1    1    1    2  502    0  0.22293007756E+01  0.94488493309E+02  0.31164153958E+03  0.32565855484E+03  0.00000000000E+00 0. -1.
         22    1    3    3    0    0  0.43286469769E+02 -0.14422724587E+03  0.81603767838E+02  0.17127285787E+03  0.00000000000E+00 0.  1.
         22    1    3    3    0    0 -0.44430494186E+02 -0.12042086753E+02  0.34247101645E+01  0.46160690059E+02  0.00000000000E+00 0.  1.
</event>
<event>
 7    1  0.8278507E-006  0.6548485E+02  0.7818608E-02  0.1464417E+00
          2   -1    0    0  502    0  0.00000000000E+00  0.00000000000E+00  0.63528584475E+02  0.63528584475E+02  0.00000000000E+00 0. -1.
          1   -1    0    0  501    0 -0.00000000000E+00 -0.00000000000E+00 -0.18613546865E+04  0.18613546865E+04  0.00000000000E+00 0. -1.
         25    2    1    2    0    0 -0.39022116455E+02 -0.41255096614E+01 -0.49550595849E+03  0.51253397792E+03  0.12500071289E+03 0.  0.
          2    1    1    2  501    0  0.66891716622E+02 -0.13923273069E+02 -0.13513818796E+04  0.13531080311E+04  0.00000000000E+00 0. -1.
          1    1    1    2  502    0 -0.27869600167E+02  0.18048782730E+02  0.49061736074E+02  0.59241261955E+02  0.00000000000E+00 0. -1.
         22    1    3    3    0    0 -0.41554921479E+02  0.10607227234E+02 -0.46419749546E+02  0.63199034144E+02  0.00000000000E+00 0. -1.
         22    1    3    3    0    0  0.25328050237E+01 -0.14732736896E+02 -0.44908620894E+03  0.44933494378E+03  0.00000000000E+00 0. -1.
</event>
<event>
 7    1  0.8278507E-006  0.6482826E+02  0.7818608E-02  0.1401371E+00
          2   -1    0    0  502    0  0.00000000000E+00  0.00000000000E+00  0.26082272756E+04  0.26082272756E+04  0.00000000000E+00 0. -1.
          1   -1    0    0  501    0 -0.00000000000E+00 -0.00000000000E+00 -0.27093681934E+03  0.27093681934E+03  0.00000000000E+00 0. -1.
         25    2    1    2    0    0 -0.23088273512E+02 -0.60131286181E+02 -0.63158902605E+02  0.15415146908E+03  0.12499915396E+03 0.  0.
          2    1    1    2  501    0 -0.38049538186E+02  0.38311935861E+02 -0.15736687593E+03  0.16637279052E+03  0.00000000000E+00 0. -1.
          1    1    1    2  502    0  0.61137811698E+02  0.21819350320E+02  0.25578162348E+04  0.25586398353E+04  0.00000000000E+00 0. -1.
         22    1    3    3    0    0 -0.33063176041E+02 -0.95323232294E+02 -0.31282925527E+02  0.10563291937E+03  0.00000000000E+00 0. -1.
         22    1    3    3    0    0  0.99749025294E+01  0.35191946113E+02 -0.31875977079E+02  0.48518549715E+02  0.00000000000E+00 0. -1.
</event>
<event>
 7    1  0.8278507E-006  0.1300660E+03  0.7818608E-02  0.1327589E+00
          2   -1    0    0  502    0  0.00000000000E+00  0.00000000000E+00  0.20885497971E+04  0.20885497971E+04  0.00000000000E+00 0. -1.
          1   -1    0    0  501    0 -0.00000000000E+00 -0.00000000000E+00 -0.56081063601E+03  0.56081063601E+03  0.00000000000E+00 0. -1.
         25    2    1    2    0    0  0.86880730280E+02 -0.13088958040E+03  0.26183198462E+03  0.32993939967E+03  0.12499470281E+03 0.  0.
          2    1    1    2  501    0 -0.49216971304E+02  0.78858145594E+01 -0.52326325698E+03  0.52563193628E+03  0.00000000000E+00 0. -1.
          1    1    1    2  502    0 -0.37663758976E+02  0.12300376584E+03  0.17891704334E+04  0.17937890971E+04  0.00000000000E+00 0. -1.
         22    1    3    3    0    0  0.13586074010E+02 -0.12319102360E+03  0.13510636380E+03  0.18334213712E+03  0.00000000000E+00 0.  1.
         22    1    3    3    0    0  0.73294656270E+02 -0.76985567941E+01  0.12672562082E+03  0.14659726255E+03  0.00000000000E+00 0.  1.
</event>
<event>
 7    1  0.8278507E-006  0.3325427E+02  0.7818608E-02  0.1605797E+00
          2   -1    0    0  502    0  0.00000000000E+00  0.00000000000E+00  0.10705527834E+02  0.10705527834E+02  0.00000000000E+00 0. -1.
          1   -1    0    0  501    0 -0.00000000000E+00 -0.00000000000E+00 -0.15022762940E+04  0.15022762940E+04  0.00000000000E+00 0. -1.
         25    2    1    2    0    0  0.51460445230E+02 -0.48522031788E+00 -0.64061945480E+03  0.65472628691E+03  0.12499924820E+03 0.  0.
          2    1    1    2  501    0 -0.29704191309E+02 -0.13457755529E+02 -0.80401508019E+03  0.80467614563E+03  0.00000000000E+00 0. -1.
          1    1    1    2  502    0 -0.21756253921E+02  0.13942975846E+02 -0.46936231190E+02  0.53579389306E+02  0.00000000000E+00 0. -1.
         22    1    3    3    0    0  0.67212326980E+02 -0.21358790078E+02 -0.17937262159E+03  0.19273876669E+03  0.00000000000E+00 0.  1.
         22    1    3    3    0    0 -0.15751881750E+02  0.20873569760E+02 -0.46124683321E+03  0.46198752022E+03  0.00000000000E+00 0.  1.
</event>
<event>
 7    1  0.8278507E-006  0.9586779E+02  0.7818608E-02  0.1340695E+00
          2   -1    0    0  502    0  0.00000000000E+00  0.00000000000E+00  0.21506151720E+04  0.21506151720E+04  0.00000000000E+00 0. -1.
          1   -1    0    0  501    0 -0.00000000000E+00 -0.00000000000E+00 -0.27153747961E+02  0.27153747961E+02  0.00000000000E+00 0. -1.
         25    2    1    2    0    0  0.13461599429E+03 -0.19956457456E+02  0.15002830861E+04  0.15116195015E+04  0.12499781139E+03 0.  0.
          2    1    1    2  501    0 -0.56465628489E+02  0.21174337260E+02  0.29113600138E+02  0.66965076510E+02  0.00000000000E+00 0. -1.
          1    1    1    2  502    0 -0.78150365797E+02 -0.12178798045E+01  0.59406473785E+03  0.59918434197E+03  0.00000000000E+00 0. -1.
         22    1    3    3    0    0 -0.60274521124E+01 -0.13499612227E+02  0.21172764101E+02  0.25823548341E+02  0.00000000000E+00 0. -1.
         22    1    3    3    0    0  0.14064344640E+03 -0.64568452286E+01  0.14791103220E+04  0.14857959531E+04  0.00000000000E+00 0. -1.
</event>
<event>
 7    1  0.8278507E-006  0.5554270E+02  0.7818608E-02  0.1529516E+00
          2   -1    0    0  502    0  0.00000000000E+00  0.00000000000E+00  0.14053748746E+03  0.14053748746E+03  0.00000000000E+00 0. -1.
          1   -1    0    0  501    0 -0.00000000000E+00 -0.00000000000E+00 -0.16312047241E+04  0.16312047241E+04  0.00000000000E+00 0. -1.
         25    2    1    2    0    0  0.13796098384E+02  0.32424250262E+02 -0.27872903449E+03  0.30749720786E+03  0.12499197509E+03 0.  0.
          2    1    1    2  501    0 -0.36326602844E+02 -0.43203457405E+02 -0.13362536796E+04  0.13374453473E+04  0.00000000000E+00 0. -1.
          1    1    1    2  502    0  0.22530504460E+02  0.10779207142E+02  0.12431547743E+03  0.12679965641E+03  0.00000000000E+00 0. -1.
         22    1    3    3    0    0 -0.19813409933E+02 -0.32187238065E+02 -0.29795890202E+02  0.48128833150E+02  0.00000000000E+00 0.  1.
         22    1    3    3    0    0  0.33609508317E+02  0.64611488328E+02 -0.24893314429E+03  0.25936837471E+03  0.00000000000E+00 0.  1.
</event>
<event>
 7    1  0.8278507E-006  0.8331015E+02  0.7818608E-02  0.1325305E+00
          2   -1    0    0  502    0  0.00000000000E+00  0.00000000000E+00  0.20174927532E+04  0.20174927532E+04  0.00000000000E+00 0. -1.
          1   -1    0    0  501    0 -0.00000000000E+00 -0.00000000000E+00 -0.10009454618E+04  0.10009454618E+04  0.00000000000E+00 0. -1.
         25    2    1    2    0    0 -0.29752679706E+01  0.90914600577E+01  0.37344815470E+03  0.39392973594E+03  0.12500242295E+03 0.  0.
          2    1    1    2  501    0  0.82040662528E+02 -0.16444049771E+02 -0.98797037648E+03  0.99150720718E+03  0.00000000000E+00 0. -1.
          1    1    1    2  502    0 -0.79065394557E+02  0.73525897130E+01  0.16310695132E+04  0.16330012719E+04  0.00000000000E+00 0. -1.
         22    1    3    3    0    0 -0.56011416074E+02 -0.25945303880E+02  0.19080166993E+03  0.20053856181E+03  0.00000000000E+00 0.  1.
         22    1    3    3    0    0  0.53036148103E+02  0.35036763937E+02  0.18264648477E+03  0.19339117413E+03  0.00000000000E+00 0.  1.
</event>
<event>
 7    1  0.8278507E-006  0.4659482E+02  0.7818608E-02  0.1557113E+00
          2   -1    0    0  502    0  0.00000000000E+00  0.00000000000E+00  0.12036224336E+04  0.12036224336E+04  0.00000000000E+00 0. -1.
          1   -1    0    0  501    0 -0.00000000000E+00 -0.00000000000E+00 -0.44424965870E+03  0.44424965870E+03  0.00000000000E+00 0. -1.
         25    2    1    2    0    0 -0.49022925432E+02  0.30971127625E+02 -0.17638257952E+03  0.22382968391E+03  0.12500582017E+03 0.  0.
          2    1    1    2  501    0  0.45543756368E+02 -0.63186772477E+01 -0.24184590960E+03  0.24617799133E+03  0.00000000000E+00 0. -1.
          1    1    1    2  502    0  0.34791690642E+01 -0.24652450377E+02  0.11776012640E+04  0.11778644170E+04  0.00000000000E+00 0. -1.
         22    1    3    3    0    0 -0.40051361027E+01 -0.21960720628E+02 -0.14649848720E+03  0.14818947708E+03  0.00000000000E+00 0. -1.
         22    1    3    3    0    0 -0.45017789330E+02  0.52931848252E+02 -0.29884092322E+02  0.75640206831E+02  0.00000000000E+00 0. -1.
</event>
<event>
 7    1  0.8278507E-006  0.2397958E+03  0.7818608E-02  0.1163506E+00
          2   -1    0    0  502    0  0.00000000000E+00  0.00000000000E+00  0.75845198718E+03  0.75845198718E+03  0.00000000000E+00 0. -1.
          1   -1    0    0  501    0 -0.00000000000E+00 -0.00000000000E+00 -0.80150122774E+03  0.80150122774E+03  0.00000000000E+00 0. -1.
         25    2    1    2    0    0 -0.22080050770E+03  0.25720833045E+03  0.20942453918E+03  0.41760330967E+03  0.12499958873E+03 0.  0.
          2    1    1    2  501    0  0.12786198848E+03 -0.61710203859E+02 -0.66311758579E+03  0.67814583235E+03  0.00000000000E+00 0. -1.
          1    1    1    2  502    0  0.92938519217E+02 -0.19549812660E+03  0.41064380604E+03  0.46420407290E+03  0.00000000000E+00 0. -1.
         22    1    3    3    0    0 -0.17748864953E+03  0.11399636099E+03  0.10935305512E+03  0.23760362307E+03  0.00000000000E+00 0. -1.
         22    1    3    3    0    0 -0.43311858168E+02  0.14321196946E+03  0.10007148406E+03  0.17999968661E+03  0.00000000000E+00 0. -1.
</event>
<event>
 7    1  0.8278507E-006  0.1015915E+03  0.7818608E-02  0.1337590E+00
          2   -1    0    0  502    0  0.00000000000E+00  0.00000000000E+00  0.21377081168E+04  0.21377081168E+04  0.00000000000E+00 0. -1.
          1   -1    0    0  501    0 -0.00000000000E+00 -0.00000000000E+00 -0.54776173165E+03  0.54776173165E+03  0.00000000000E+00 0. -1.
         25    2    1    2    0    0  0.33349240416E+02 -0.35008694603E+02  0.14035866008E+03  0.19406965220E+03  0.12499878364E+03 0.  0.
          2    1    1    2  501    0  0.54246560406E+02 -0.21795647257E+02 -0.51787755403E+03  0.52116686437E+03  0.00000000000E+00 0. -1.
          1    1    1    2  502    0 -0.87595800822E+02  0.56804341860E+02  0.19674652791E+04  0.19702333318E+04  0.00000000000E+00 0. -1.
         22    1    3    3    0    0  0.44673332117E+02  0.26697791176E+02  0.15445146618E+02  0.54286565651E+02  0.00000000000E+00 0. -1.
         22    1    3    3    0    0 -0.11324091701E+02 -0.61706485779E+02  0.12491351346E+03  0.13978308655E+03  0.00000000000E+00 0. -1.
</event>
<event>
 7    1  0.8278507E-006  0.3714451E+02  0.7818608E-02  0.1565752E+00
          2   -1    0    0  502    0  0.00000000000E+00  0.00000000000E+00  0.37007301186E+02  0.37007301186E+02  0.00000000000E+00 0. -1.
          1   -1    0    0  501    0 -0.00000000000E+00 -0.00000000000E+00 -0.63769681887E+03  0.63769681887E+03  0.00000000000E+00 0. -1.
         25    2    1    2    0    0 -0.32228433057E+02 -0.90616629347E+01 -0.47335783448E+03  0.49072625613E+03  0.12499533336E+03 0.  0.
          2    1    1    2  501    0  0.19815411425E+02  0.35899949370E+02 -0.14421237017E+03  0.14992886515E+03  0.00000000000E+00 0. -1.
          1    1    1    2  502    0  0.12413021632E+02 -0.26838286435E+02  0.16880686969E+02  0.34048998772E+02  0.00000000000E+00 0. -1.
         22    1    3    3    0    0  0.89193179055E+01 -0.20206331473E+02 -0.42766448585E+03  0.42823447143E+03  0.00000000000E+00 0. -1.
         22    1    3    3    0    0 -0.41147750962E+02  0.11144668538E+02 -0.45693348623E+02  0.62491784696E+02  0.00000000000E+00 0. -1.
</event>
<event>
 7    1  0.8278507E-006  0.4979927E+02  0.7818608E-02  0.1461564E+00
          2   -1    0    0  502    0  0.00000000000E+00  0.00000000000E+00  0.52476029774E+03  0.52476029774E+03  0.00000000000E+00 0. -1.
          1   -1    0    0  501    0 -0.00000000000E+00 -0.00000000000E+00 -0.16606751986E+03  0.16606751986E+03  0.00000000000E+00 0. -1.
         25    2    1    2    0    0 -0.12090749233E+02  0.75857536999E+02  0.10279406568E+03  0.17914311327E+03  0.12500033182E+03 0.  0.
          2    1    1    2  501    0  0.33077390663E+02 -0.36535354346E+02 -0.12178534731E+03  0.13137966627E+03  0.00000000000E+00 0. -1.
          1    1    1    2  502    0 -0.20986641430E+02 -0.39322182653E+02  0.37768405951E+03  0.38030503806E+03  0.00000000000E+00 0. -1.
         22    1    3    3    0    0  0.46545417644E+02  0.14028382451E+02  0.75256020158E+02  0.89592075475E+02  0.00000000000E+00 0.  1.
         22    1    3    3    0    0 -0.58636166877E+02  0.61829154548E+02  0.27538045525E+02  0.89551037791E+02  0.00000000000E+00 0.  1.
</event>
<event>
 7    1  0.8278507E-006  0.4248903E+02  0.7818608E-02  0.1566675E+00
          2   -1    0    0  502    0  0.00000000000E+00  0.00000000000E+00  0.19904989085E+04  0.19904989085E+04  0.00000000000E+00 0. -1.
          1   -1    0    0  501    0 -0.00000000000E+00 -0.00000000000E+00 -0.41403348215E+02  0.41403348215E+02  0.00000000000E+00 0. -1.
         25    2    1    2    0    0 -0.11942769928E+02 -0.17320167725E+02  0.96406289291E+03  0.97236045507E+03  0.12499990055E+03 0.  0.
          2    1    1    2  501    0  0.37411048672E+02  0.20770512697E+02 -0.24749804546E+02  0.49432313171E+02  0.00000000000E+00 0. -1.
          1    1    1    2  502    0 -0.25468278744E+02 -0.34503449717E+01  0.10097824720E+04  0.10101094885E+04  0.00000000000E+00 0. -1.
         22    1    3    3    0    0 -0.34724133579E+02  0.46703544329E+02  0.39783060479E+03  0.40206489105E+03  0.00000000000E+00 0. -1.
         22    1    3    3    0    0  0.22781363651E+02 -0.64023712054E+02  0.56623228811E+03  0.57029556402E+03  0.00000000000E+00 0. -1.
</event>
<event>
 7    1  0.8278507E-006  0.1002859E+03  0.7818608E-02  0.1332409E+00
          2   -1    0    0  502    0  0.00000000000E+00  0.00000000000E+00  0.66662285515E+03  0.66662285515E+03  0.00000000000E+00 0. -1.
          1   -1    0    0  501    0 -0.00000000000E+00 -0.00000000000E+00 -0.78538495266E+03  0.78538495266E+03  0.00000000000E+00 0. -1.
         25    2    1    2    0    0 -0.59749955092E+02 -0.14656471257E+03 -0.72478016304E+02  0.21431440804E+03  0.12500532206E+03 0.  0.
          2    1    1    2  501    0  0.44547805542E+02  0.86496123364E+02 -0.63667185380E+03  0.64406299052E+03  0.00000000000E+00 0. -1.
          1    1    1    2  502    0  0.15202149549E+02  0.60068589210E+02  0.59038777260E+03  0.59363040925E+03  0.00000000000E+00 0. -1.
         22    1    3    3    0    0 -0.43030155918E+01 -0.13982319901E+03 -0.27421687012E+02  0.14255171638E+03  0.00000000000E+00 0.  1.
         22    1    3    3    0    0 -0.55446939500E+02 -0.67415135608E+01 -0.45056329292E+02  0.71762691660E+02  0.00000000000E+00 0.  1.
</event>
<event>
 7    1  0.8278507E-006  0.7246167E+02  0.7818608E-02  0.1436595E+00
          2   -1    0    0  502    0  0.00000000000E+00  0.00000000000E+00  0.13430803602E+03  0.13430803602E+03  0.00000000000E+00 0. -1.
          1   -1    0    0  501    0 -0.00000000000E+00 -0.00000000000E+00 -0.18564591237E+04  0.18564591237E+04  0.00000000000E+00 0. -1.
         25    2    1    2    0    0 -0.61252252713E+02  0.44194481978E+02 -0.38738569643E+03  0.41400165993E+03  0.12499882372E+03 0.  0.
          2    1    1    2  501    0  0.31383835321E+02 -0.65739347441E+02 -0.14520287798E+04  0.14538549393E+04  0.00000000000E+00 0. -1.
          1    1    1    2  502    0  0.29868417392E+02  0.21544865463E+02  0.11726338859E+03  0.12291056053E+03  0.00000000000E+00 0. -1.
         22    1    3    3    0    0 -0.66096249573E+02  0.33997241987E+02 -0.39397842162E+03  0.40092832698E+03  0.00000000000E+00 0. -1.
         22    1    3    3    0    0  0.48439968602E+01  0.10197239991E+02  0.65927251946E+01  0.13073332954E+02  0.00000000000E+00 0. -1.
</event>
<event>
 7    1  0.8278507E-006  0.1222905E+03  0.7818608E-02  0.1356953E+00
          2   -1    0    0  502    0  0.00000000000E+00  0.00000000000E+00  0.10783351172E+03  0.10783351172E+03  0.00000000000E+00 0. -1.
          1   -1    0    0  501    0 -0.00000000000E+00 -0.00000000000E+00 -0.22251029371E+04  0.22251029371E+04  0.00000000000E+00 0. -1.
         25    2    1    2    0    0  0.11792155481E+03 -0.53360509964E+02 -0.34666808263E+03  0.39058574954E+03  0.12500252444E+03 0.  0.
          2    1    1    2  501    0 -0.28408993725E+02 -0.29759240604E+02 -0.18126847655E+04  0.18131516049E+04  0.00000000000E+00 0. -1.
          1    1    1    2  502    0 -0.89512561088E+02  0.83119750568E+02  0.42083422710E+02  0.12919909440E+03  0.00000000000E+00 0. -1.
         22    1    3    3    0    0  0.10675208800E+03 -0.87533365437E+02 -0.30940784088E+03  0.33880866334E+03  0.00000000000E+00 0. -1.
         22    1    3    3    0    0  0.11169466815E+02  0.34172855473E+02 -0.37260241746E+02  0.51777086197E+02  0.00000000000E+00 0. -1.
</event>
<event>
 7    1  0.8278507E-006  0.1132664E+03  0.7818608E-02  0.1270866E+00
          2   -1    0    0  502    0  0.00000000000E+00  0.00000000000E+00  0.23727887737E+04  0.23727887737E+04  0.00000000000E+00 0. -1.
          1   -1    0    0  501    0 -0.00000000000E+00 -0.00000000000E+00 -0.60837825094E+03  0.60837825094E+03  0.00000000000E+00 0. -1.
         25    2    1    2    0    0  0.25506593116E+02  0.35091694719E+02  0.52736046294E+03  0.54370706572E+03  0.12500520835E+03 0.  0.
          2    1    1    2  501    0  0.38522464518E+02 -0.10747291052E+03 -0.59348972463E+03  0.60437112771E+03  0.00000000000E+00 0. -1.
          1    1    1    2  502    0 -0.64029057634E+02  0.72381215797E+02  0.18305397845E+04  0.18330888312E+04  0.00000000000E+00 0. -1.
         22    1    3    3    0    0  0.62922539967E+02  0.47840771328E+02  0.21909469939E+03  0.23291730880E+03  0.00000000000E+00 0. -1.
         22    1    3    3    0    0 -0.37415946851E+02 -0.12749076609E+02  0.30826576355E+03  0.31078975692E+03  0.00000000000E+00 0. -1.
</event>
<event>
 7    1  0.8278507E-006  0.4989667E+02  0.7818608E-02  0.1470019E+00
          2   -1    0    0  502    0  0.00000000000E+00  0.00000000000E+00  0.20971977437E+03  0.20971977437E+03  0.00000000000E+00 0. -1.
          1   -1    0    0  501    0 -0.00000000000E+00 -0.00000000000E+00 -0.65981056260E+03  0.65981056260E+03  0.00000000000E+00 0. -1.
         25    2    1    2    0    0 -0.14990666949E+02  0.29457043880E+02 -0.23852409218E+03  0.27131316058E+03  0.12499860410E+03 0.  0.
          2    1    1    2  501    0 -0.34905302278E+02 -0.23098651049E+02 -0.40051105050E+03  0.40269222662E+03  0.00000000000E+00 0. -1.
          1    1    1    2  502    0  0.49895969227E+02 -0.63583928314E+01  0.18894435444E+03  0.19552494977E+03  0.00000000000E+00 0. -1.
         22    1    3    3    0    0  0.71055014709E+00 -0.36269936811E+01 -0.23443573994E+03  0.23446487183E+03  0.00000000000E+00 0. -1.
         22    1    3    3    0    0 -0.15701217097E+02  0.33084037562E+02 -0.40883522384E+01  0.36848288749E+02  0.00000000000E+00 0. -1.
</event>
<event>
 7    1  0.8278507E-006  0.6131931E+02  0.7818608E-02  0.1528796E+00
          2   -1    0    0  502    0  0.00000000000E+00  0.00000000000E+00  0.12622511453E+03  0.12622511453E+03  0.00000000000E+00 0. -1.
          1   -1    0    0  501    0 -0.00000000000E+00 -0.00000000000E+00 -0.23580552950E+03  0.23580552950E+03  0.00000000000E+00 0. -1.
         25    2    1    2    0    0 -0.74621541199E+02  0.66764228779E+01  0.31375926428E+02  0.14910221465E+03  0.12503628522E+03 0.  0.
          2    1    1    2  501    0  0.56927571869E+02 -0.20946463253E+02 -0.16740368867E+03  0.17805476051E+03  0.00000000000E+00 0. -1.
          1    1    1    2  502    0  0.17693969331E+02  0.14270040375E+02  0.26447347270E+02  0.34873668872E+02  0.00000000000E+00 0. -1.
         22    1    3    3    0    0 -0.89774922145E+02 -0.26372748388E+02  0.52259965747E+02  0.10717351596E+03  0.00000000000E+00 0. -1.
         22    1    3    3    0    0  0.15153380945E+02  0.33049171266E+02 -0.20884039319E+02  0.41928698688E+02  0.00000000000E+00 0. -1.
</event>
<event>
 7    1  0.8278507E-006  0.6425157E+02  0.7818608E-02  0.1405545E+00
          2   -1    0    0  502    0  0.00000000000E+00  0.00000000000E+00  0.16602975629E+04  0.16602975629E+04  0.00000000000E+00 0. -1.
          1   -1    0    0  501    0 -0.00000000000E+00 -0.00000000000E+00 -0.70338364006E+03  0.70338364006E+03  0.00000000000E+00 0. -1.
         25    2    1    2    0    0 -0.30644727293E+02 -0.46474233014E+02  0.18799154838E+03  0.23251791527E+03  0.12499922007E+03 0.  0.
          2    1    1    2  501    0  0.64202373631E+02  0.58157737586E+01 -0.67911437147E+03  0.68216720644E+03  0.00000000000E+00 0. -1.
          1    1    1    2  502    0 -0.33557646338E+02  0.40658459256E+02  0.14480367460E+04  0.14489960813E+04  0.00000000000E+00 0. -1.
         22    1    3    3    0    0 -0.11124976791E+02 -0.87528164797E+02  0.14624117965E+03  0.17079645010E+03  0.00000000000E+00 0.  1.
         22    1    3    3    0    0 -0.19519750503E+02  0.41053931783E+02  0.41750368728E+02  0.61721465176E+02  0.00000000000E+00 0.  1.
</event>
<event>
 7    1  0.8278507E-006  0.1169056E+03  0.7818608E-02  0.1293844E+00
          2   -1    0    0  502    0  0.00000000000E+00  0.00000000000E+00  0.57185149047E+03  0.57185149047E+03  0.00000000000E+00 0. -1.
          1   -1    0    0  501    0 -0.00000000000E+00 -0.00000000000E+00 -0.33798822746E+03  0.33798822746E+03  0.00000000000E+00 0. -1.
         25    2    1    2    0    0  0.78374779633E+02  0.13235249117E+03  0.61690728299E+02  0.20758516311E+03  0.12500426385E+03 0.  0.
          2    1    1    2  501    0 -0.51363086414E+01 -0.11484611865E+03 -0.24907723391E+03  0.27432732472E+03  0.00000000000E+00 0. -1.
          1    1    1    2  502    0 -0.73238470992E+02 -0.17506372524E+02  0.42124976862E+03  0.42792723011E+03  0.00000000000E+00 0. -1.
         22    1    3    3    0    0 -0.47989747162E+01  0.10252082798E+03  0.60656619583E+02  0.11921734701E+03  0.00000000000E+00 0. -1.
         22    1    3    3    0    0  0.83173754349E+02  0.29831663193E+02  0.10341087165E+01  0.88367816100E+02  0.00000000000E+00 0. -1.
</event>
<event>
 7    1  0.8278507E-006  0.3483391E+02  0.7818608E-02  0.1551506E+00
          2   -1    0    0  502    0  0.00000000000E+00  0.00000000000E+00  0.16570292703E+03  0.16570292703E+03  0.00000000000E+00 0. -1.
          1   -1    0    0  501    0 -0.00000000000E+00 -0.00000000000E+00 -0.30530422746E+03  0.30530422746E+03  0.00000000000E+00 0. -1.
         25    2    1    2    0    0  0.31472963556E+00  0.20259337479E+02 -0.14443498577E+03  0.19208373931E+03  0.12499663190E+03 0.  0.
          2    1    1    2  501    0 -0.33507209484E+02 -0.95219726183E+01 -0.13261654929E+03  0.13711509835E+03  0.00000000000E+00 0. -1.
          1    1    1    2  502    0  0.33192479849E+02 -0.10737364861E+02  0.13745023462E+03  0.14180831683E+03  0.00000000000E+00 0. -1.
         22    1    3    3    0    0 -0.57344260036E+02  0.33867456287E+02 -0.87056456203E+02  0.10960928483E+03  0.00000000000E+00 0.  1.
         22    1    3    3    0    0  0.57658989671E+02 -0.13608118808E+02 -0.57378529563E+02  0.82474454483E+02  0.00000000000E+00 0.  1.
</event>
<event>
 7    1  0.8278507E-006  0.1052885E+03  0.7818608E-02  0.1278261E+00
          2   -1    0    0  502    0  0.00000000000E+00  0.00000000000E+00  0.11039356948E+04  0.11039356948E+04  0.00000000000E+00 0. -1.
          1   -1    0    0  501    0 -0.00000000000E+00 -0.00000000000E+00 -0.68552413969E+03  0.68552413969E+03  0.00000000000E+00 0. -1.
         25    2    1    2    0    0 -0.12400770093E+03 -0.86486487245E+02  0.58241617383E+03  0.61456597967E+03  0.12499968586E+03 0.  0.
          2    1    1    2  501    0  0.96493037929E+02 -0.81449283553E+01 -0.66108436565E+03  0.66813904596E+03  0.00000000000E+00 0. -1.
          1    1    1    2  502    0  0.27514663001E+02  0.94631415600E+02  0.49707974698E+03  0.50675480891E+03  0.00000000000E+00 0. -1.
         22    1    3    3    0    0 -0.10250325016E+03 -0.13573850689E+02  0.20534022852E+03  0.22990383895E+03  0.00000000000E+00 0. -1.
         22    1    3    3    0    0 -0.21504450770E+02 -0.72912636556E+02  0.37707594532E+03  0.38466214073E+03  0.00000000000E+00 0. -1.
</event>
<event>
 7    1  0.8278507E-006  0.1587478E+03  0.7818608E-02  0.1305545E+00
          2   -1    0    0  502    0  0.00000000000E+00  0.00000000000E+00  0.50847936167E+03  0.50847936167E+03  0.00000000000E+00 0. -1.
          1   -1    0    0  501    0 -0.00000000000E+00 -0.00000000000E+00 -0.39989287096E+03  0.39989287096E+03  0.00000000000E+00 0. -1.
         25    2    1    2    0    0 -0.10693461740E+03  0.37919885967E+02  0.37702478667E+03  0.41309156046E+03  0.12499606959E+03 0.  0.
          2    1    1    2  501    0  0.15667768905E+03 -0.35963721267E+02 -0.35821187616E+03  0.39262836845E+03  0.00000000000E+00 0. -1.
          1    1    1    2  502    0 -0.49743071654E+02 -0.19561646992E+01  0.89773580197E+02  0.10265230372E+03  0.00000000000E+00 0. -1.
         22    1    3    3    0    0 -0.11705292426E+02  0.40966101964E+02  0.27255872650E+02  0.50577840749E+02  0.00000000000E+00 0. -1.
         22    1    3    3    0    0 -0.95229324970E+02 -0.30462159978E+01  0.34976891402E+03  0.36251371971E+03  0.00000000000E+00 0. -1.
</event>
<event>
 7    1  0.8278507E-006  0.1523091E+03  0.7818608E-02  0.1234111E+00
          2   -1    0    0  502    0  0.00000000000E+00  0.00000000000E+00  0.18331863440E+04  0.18331863440E+04  0.00000000000E+00 0. -1.
          1   -1    0    0  501    0 -0.00000000000E+00 -0.00000000000E+00 -0.16830410917E+03  0.16830410917E+03  0.00000000000E+00 0. -1.
         25    2    1    2    0    0 -0.24093382583E+03 -0.34253797194E+02  0.28677841628E+03  0.39634544616E+03  0.12500168637E+03 0.  0.
          2    1    1    2  501    0  0.13744189161E+03  0.29533243621E+02 -0.67422412418E+02  0.15591108923E+03  0.00000000000E+00 0. -1.
          1    1    1    2  502    0  0.10349193422E+03  0.47205535728E+01  0.14455262310E+04  0.14492339178E+04  0.00000000000E+00 0. -1.
         22    1    3    3    0    0 -0.13222693285E+03 -0.77395850055E+02  0.19309847200E+03  0.24649766584E+03  0.00000000000E+00 0.  1.
         22    1    3    3    0    0 -0.10870689297E+03  0.43142052861E+02  0.93679944284E+02  0.14984778032E+03  0.00000000000E+00 0.  1.
</event>
<event>
 7    1  0.8278507E-006  0.1272038E+03  0.7818608E-02  0.1251125E+00
          2   -1    0    0  502    0  0.00000000000E+00  0.00000000000E+00  0.25003371745E+04  0.25003371745E+04  0.00000000000E+00 0. -1.
          1   -1    0    0  501    0 -0.00000000000E+00 -0.00000000000E+00 -0.91831990758E+02  0.91831990758E+02  0.00000000000E+00 0. -1.
         25    2    1    2    0    0  0.99257434980E+02 -0.18401426474E+03  0.37084492409E+03  0.44369652702E+03  0.12500944900E+03 0.  0.
          2    1    1    2  501    0 -0.84634740352E+02  0.61194133201E+02 -0.25941845011E+01  0.10447244137E+03  0.00000000000E+00 0. -1.
          1    1    1    2  502    0 -0.14622694628E+02  0.12282013153E+03  0.20402544442E+04  0.20440001969E+04  0.00000000000E+00 0. -1.
         22    1    3    3    0    0  0.55769579527E+02 -0.93099822231E+02  0.77047162990E+02  0.13309428322E+03  0.00000000000E+00 0.  1.
         22    1    3    3    0    0  0.43487855452E+02 -0.90914442505E+02  0.29379776110E+03  0.31060224380E+03  0.00000000000E+00 0.  1.
</event>
<event>
 7    1  0.1234513E-005  0.5083136E+02  0.7818608E-02  0.1455363E+00
          2   -1    0    0  502    0  0.00000000000E+00  0.00000000000E+00  0.11022425754E+04  0.11022425754E+04  0.00000000000E+00 0. -1.
          1   -1    0    0  501    0 -0.00000000000E+00 -0.00000000000E+00 -0.91730691194E+03  0.91730691194E+03  0.00000000000E+00 0. -1.
         25    2    1    2    0    0  0.61357796326E+01  0.18497822361E+01 -0.49069555345E+03  0.50640851279E+03  0.12500554454E+03 0.  0.
          2    1    1    2  501    0  0.42578971394E+02 -0.16553400434E+02 -0.41691499190E+03  0.41941041278E+03  0.00000000000E+00 0. -1.
          1    1    1    2  502    0 -0.48714751026E+02  0.14703618198E+02  0.10925462088E+04  0.10937305618E+04  0.00000000000E+00 0. -1.
         22    1    3    3    0    0 -0.55430460710E+02  0.37843870681E+01 -0.32331066004E+03  0.32804975301E+03  0.00000000000E+00 0.  1.
         22    1    3    3    0    0  0.61566240342E+02 -0.19346048320E+01 -0.16738489342E+03  0.17835875978E+03  0.00000000000E+00 0.  1.
</event>
<event>
 7    1  0.8278507E-006  0.1425003E+03  0.7818608E-02  0.1270687E+00
          2   -1    0    0  502    0  0.00000000000E+00  0.00000000000E+00  0.22281939286E+04  0.22281939286E+04  0.00000000000E+00 0. -1.
          1   -1    0    0  501    0 -0.00000000000E+00 -0.00000000000E+00 -0.27419680328E+03  0.27419680328E+03  0.00000000000E+00 0. -1.
         25    2    1    2    0    0 -0.12454748211E+03  0.80526159002E+02  0.17868670505E+03  0.26372266855E+03  0.12499667901E+03 0.  0.
          2    1    1    2  501    0  0.64435821274E+02 -0.12855901846E+03 -0.20854621746E+03  0.25331980007E+03  0.00000000000E+00 0. -1.
          1    1    1    2  502    0  0.60111660836E+02  0.48032859461E+02  0.19838566378E+04  0.19853482633E+04  0.00000000000E+00 0. -1.
         22    1    3    3    0    0 -0.19202207543E+02 -0.25264689238E+02  0.11482459397E+01  0.31754492053E+02  0.00000000000E+00 0.  1.
         22    1    3    3    0    0 -0.10534527457E+03  0.10579084824E+03  0.17753845911E+03  0.23196817650E+03  0.00000000000E+00 0.  1.
</event>
<event>
 7    1  0.8278507E-006  0.6437678E+02  0.7818608E-02  0.1467467E+00
          2   -1    0    0  502    0  0.00000000000E+00  0.00000000000E+00  0.29962937954E+03  0.29962937954E+03  0.00000000000E+00 0. -1.
          1   -1    0    0  501    0 -0.00000000000E+00 -0.00000000000E+00 -0.26966480622E+03  0.26966480622E+03  0.00000000000E+00 0. -1.
         25    2    1    2    0    0 -0.62508410475E+02  0.20165108034E+01  0.45711337684E+02  0.14705752964E+03  0.12500009174E+03 0.  0.
          2    1    1    2  501    0  0.68916189097E+01  0.32314429141E+02 -0.21242679880E+03  0.21498107263E+03  0.00000000000E+00 0. -1.
          1    1    1    2  502    0  0.55616791565E+02 -0.34330939944E+02  0.19668003443E+03  0.20725558349E+03  0.00000000000E+00 0. -1.
         22    1    3    3    0    0 -0.23401215841E+02  0.46589536387E+02  0.66249765202E+02  0.84304407909E+02  0.00000000000E+00 0.  1.
         22    1    3    3    0    0 -0.39107194634E+02 -0.44573025584E+02 -0.20538427517E+02  0.62753121729E+02  0.00000000000E+00 0.  1.
</event>
<event>
 7    1  0.8278507E-006  0.2461106E+03  0.7818608E-02  0.1326310E+00
          2   -1    0    0  502    0  0.00000000000E+00  0.00000000000E+00  0.57262942465E+03  0.57262942465E+03  0.00000000000E+00 0. -1.
          1   -1    0    0  501    0 -0.00000000000E+00 -0.00000000000E+00 -0.10269420338E+04  0.10269420338E+04  0.00000000000E+00 0. -1.
         25    2    1    2    0    0  0.26631402388E+03  0.30582062404E+02  0.28993442732E+03  0.41418343795E+03  0.12501010469E+03 0.  0.
          2    1    1    2  501    0 -0.24469439081E+03 -0.15013782113E+02 -0.94836479875E+03  0.97953894770E+03  0.00000000000E+00 0. -1.
          1    1    1    2  502    0 -0.21619633072E+02 -0.15568280292E+02  0.20411776229E+03  0.20584907279E+03  0.00000000000E+00 0. -1.
         22    1    3    3    0    0  0.80951730603E+02 -0.48282500563E+02  0.96977385202E+02  0.13523681373E+03  0.00000000000E+00 0.  1.
         22    1    3    3    0    0  0.18536229328E+03  0.78864562967E+02  0.19295704212E+03  0.27894662422E+03  0.00000000000E+00 0.  1.
</event>
<event>
 7    1  0.8278507E-006  0.1305445E+03  0.7818608E-02  0.1252836E+00
          2   -1    0    0  502    0  0.00000000000E+00  0.00000000000E+00  0.22816147494E+04  0.22816147494E+04  0.00000000000E+00 0. -1.
          1   -1    0    0  501    0 -0.00000000000E+00 -0.00000000000E+00 -0.39356894842E+03  0.39356894842E+03  0.00000000000E+00 0. -1.
         25    2    1    2    0    0 -0.29564410276E+02 -0.28716141646E+02  0.61573239922E+03  0.62964321787E+03  0.12500209285E+03 0.  0.
          2    1    1    2  501    0  0.30355268841E+02  0.12876237268E+03 -0.37373303381E+03  0.39645626685E+03  0.00000000000E+00 0. -1.
          1    1    1    2  502    0 -0.79085856442E+00 -0.10004623103E+03  0.16460464356E+04  0.16490842131E+04  0.00000000000E+00 0. -1.
         22    1    3    3    0    0 -0.63658560937E+02 -0.34799370786E+02  0.55506826657E+03  0.55978941500E+03  0.00000000000E+00 0. -1.
         22    1    3    3    0    0  0.34094150660E+02  0.60832291406E+01  0.60664132647E+02  0.69853802873E+02  0.00000000000E+00 0. -1.
</event>
<event>
 7    1  0.8278507E-006  0.7865146E+02  0.7818608E-02  0.1387551E+00
          2   -1    0    0  502    0  0.00000000000E+00  0.00000000000E+00  0.73179806926E+03  0.73179806926E+03  0.00000000000E+00 0. -1.
          1   -1    0    0  501    0 -0.00000000000E+00 -0.00000000000E+00 -0.57367485920E+03  0.57367485920E+03  0.00000000000E+00 0. -1.
         25    2    1    2    0    0 -0.50135528724E+02 -0.81954725262E+02  0.14171594939E+03  0.21198864894E+03  0.12500251492E+03 0.  0.
          2    1    1    2  501    0 -0.19287844586E+02  0.45801504362E+02 -0.53462029228E+03  0.53692518628E+03  0.00000000000E+00 0. -1.
          1    1    1    2  502    0  0.69423373311E+02  0.36153220900E+02  0.55102755295E+03  0.55655909323E+03  0.00000000000E+00 0. -1.
         22    1    3    3    0    0  0.37252701661E+02 -0.54018174357E+02  0.52755913796E+02  0.84195685058E+02  0.00000000000E+00 0. -1.
         22    1    3    3    0    0 -0.87388230385E+02 -0.27936550904E+02  0.88960035590E+02  0.12779296389E+03  0.00000000000E+00 0. -1.
</event>
<event>
 7    1  0.8278507E-006  0.1614756E+03  0.7818608E-02  0.1231698E+00
          2   -1    0    0  502    0  0.00000000000E+00  0.00000000000E+00  0.31298716917E+04  0.31298716917E+04  0.00000000000E+00 0. -1.
          1   -1    0    0  501    0 -0.00000000000E+00 -0.00000000000E+00 -0.19921976446E+03  0.19921976446E+03  0.00000000000E+00 0. -1.
         25    2    1    2    0    0 -0.10093269231E+01  0.69617167076E+02  0.81547476433E+01  0.14331666898E+03  0.12500239600E+03 0.  0.
          2    1    1    2  501    0 -0.49642177616E+02  0.87005791122E+02 -0.11002131791E+03  0.14879194831E+03  0.00000000000E+00 0. -1.
          1    1    1    2  502    0  0.50651504539E+02 -0.15662295820E+03  0.30325184975E+04  0.30369828389E+04  0.00000000000E+00 0. -1.
         22    1    3    3    0    0  0.24089158731E+02 -0.26393450072E+02 -0.18946120389E+02  0.40445732196E+02  0.00000000000E+00 0. -1.
         22    1    3    3    0    0 -0.25098485654E+02  0.96010617148E+02  0.27100868032E+02  0.10287093679E+03  0.00000000000E+00 0. -1.
</event>
<event>
 7    1  0.8278507E-006  0.1014889E+03  0.7818608E-02  0.1427484E+00
          2   -1    0    0  502    0  0.00000000000E+00  0.00000000000E+00  0.30400382282E+04  0.30400382282E+04  0.00000000000E+00 0. -1.
          1   -1    0    0  501    0 -0.00000000000E+00 -0.00000000000E+00 -0.38609143598E+03  0.38609143598E+03  0.00000000000E+00 0. -1.
         25    2    1    2    0    0 -0.11239569399E+03  0.41249164000E+02  0.13284091333E+03  0.21819051490E+03  0.12500442784E+03 0.  0.
          2    1    1    2  501    0  0.12518953307E+02 -0.25234459081E+02 -0.34194431666E+03  0.34310263452E+03  0.00000000000E+00 0. -1.
          1    1    1    2  502    0  0.99876740686E+02 -0.16014704919E+02  0.28630501956E+04  0.28648365148E+04  0.00000000000E+00 0. -1.
         22    1    3    3    0    0 -0.12094338593E+03  0.15934532217E+02  0.14444127575E+03  0.18906214337E+03  0.00000000000E+00 0. -1.
         22    1    3    3    0    0  0.85476919345E+01  0.25314631783E+02 -0.11600362416E+02  0.29128371528E+02  0.00000000000E+00 0. -1.
</event>
<event>
 7    1  0.8278507E-006  0.4674513E+02  0.7818608E-02  0.1488430E+00
          2   -1    0    0  502    0  0.00000000000E+00  0.00000000000E+00  0.20768321007E+04  0.20768321007E+04  0.00000000000E+00 0. -1.
          1   -1    0    0  501    0 -0.00000000000E+00 -0.00000000000E+00 -0.44159408847E+02  0.44159408847E+02  0.00000000000E+00 0. -1.
         25    2    1    2    0    0  0.59769001364E+02  0.29610414791E+02  0.26172532912E+03  0.29761325093E+03  0.12499755612E+03 0.  0.
          2    1    1    2  501    0 -0.45564707054E+02  0.69514304260E+01 -0.55706046258E+01  0.46427325465E+02  0.00000000000E+00 0. -1.
          1    1    1    2  502    0 -0.14204294309E+02 -0.36561845217E+02  0.17765179673E+04  0.17769509331E+04  0.00000000000E+00 0. -1.
         22    1    3    3    0    0  0.96802434428E+02  0.46464809497E+01  0.17375665865E+03  0.19895647142E+03  0.00000000000E+00 0. -1.
         22    1    3    3    0    0 -0.37033433064E+02  0.24963933841E+02  0.87968670476E+02  0.98656779507E+02  0.00000000000E+00 0. -1.
</event>
<event>
 7    1  0.8278507E-006  0.1267263E+03  0.7818608E-02  0.1270157E+00
          2   -1    0    0  502    0  0.00000000000E+00  0.00000000000E+00  0.70049421058E+03  0.70049421058E+03  0.00000000000E+00 0. -1.
          1   -1    0    0  501    0 -0.00000000000E+00 -0.00000000000E+00 -0.24612970083E+03  0.24612970083E+03  0.00000000000E+00 0. -1.
         25    2    1    2    0    0 -0.54816366441E+02 -0.49512985315E+02 -0.18166477017E+03  0.23255654078E+03  0.12499634472E+03 0.  0.
          2    1    1    2  501    0  0.37720976418E+02 -0.78360312679E+02  0.26325414932E+02  0.90863843945E+02  0.00000000000E+00 0. -1.
          1    1    1    2  502    0  0.17095390023E+02  0.12787329799E+03  0.60970386498E+03  0.62320352669E+03  0.00000000000E+00 0. -1.
         22    1    3    3    0    0 -0.71112243633E+02 -0.12783607881E+02 -0.17812246474E+03  0.19221858461E+03  0.00000000000E+00 0. -1.
         22    1    3    3    0    0  0.16295877193E+02 -0.36729377433E+02 -0.35423054355E+01  0.40337956169E+02  0.00000000000E+00 0. -1.
</event>
<event>
 7    1  0.8278507E-006  0.1092633E+03  0.7818608E-02  0.1298070E+00
          2   -1    0    0  502    0  0.00000000000E+00  0.00000000000E+00  0.11929271135E+04  0.11929271135E+04  0.00000000000E+00 0. -1.
          1   -1    0    0  501    0 -0.00000000000E+00 -0.00000000000E+00 -0.73651016835E+02  0.73651016835E+02  0.00000000000E+00 0. -1.
         25    2    1    2    0    0  0.48217907148E+01 -0.46003089393E+02  0.30390751854E+03  0.33185062361E+03  0.12500209063E+03 0.  0.
          2    1    1    2  501    0 -0.36741918614E+02  0.11659207561E+03  0.67757827570E+01  0.12243198892E+03  0.00000000000E+00 0. -1.
          1    1    1    2  502    0  0.31920127899E+02 -0.70588986214E+02  0.80859279537E+03  0.81229551781E+03  0.00000000000E+00 0. -1.
         22    1    3    3    0    0  0.66507174347E+01 -0.41763580870E+02  0.31604643393E+03  0.31886325773E+03  0.00000000000E+00 0.  1.
         22    1    3    3    0    0 -0.18289267199E+01 -0.42395085230E+01 -0.12138915392E+02  0.12987365875E+02  0.00000000000E+00 0.  1.
</event>
<event>
 7    1  0.8278507E-006  0.6260092E+02  0.7818608E-02  0.1442268E+00
          2   -1    0    0  502    0  0.00000000000E+00  0.00000000000E+00  0.43056978011E+03  0.43056978011E+03  0.00000000000E+00 0. -1.
          1   -1    0    0  501    0 -0.00000000000E+00 -0.00000000000E+00 -0.14690038845E+04  0.14690038845E+04  0.00000000000E+00 0. -1.
         25    2    1    2    0    0 -0.50568112430E+02  0.88011671193E+01 -0.21151230040E+02  0.13676911192E+03  0.12499528354E+03 0.  0.
          2    1    1    2  501    0  0.40237266202E+02 -0.48331771915E+02 -0.13882100732E+04  0.13896338384E+04  0.00000000000E+00 0. -1.
          1    1    1    2  502    0  0.10330846228E+02  0.39530604795E+02  0.37092719883E+03  0.37317071419E+03  0.00000000000E+00 0. -1.
         22    1    3    3    0    0 -0.45896848363E+02  0.63840519220E+02 -0.32129573314E+01  0.78692157670E+02  0.00000000000E+00 0. -1.
         22    1    3    3    0    0 -0.46712640668E+01 -0.55039352101E+02 -0.17938272709E+02  0.58076954254E+02  0.00000000000E+00 0. -1.
</event>
<event>
 7    1  0.8278507E-006  0.1744377E+03  0.7818608E-02  0.1369724E+00
          2   -1    0    0  502    0  0.00000000000E+00  0.00000000000E+00  0.94278263595E+03  0.94278263595E+03  0.00000000000E+00 0. -1.
          1   -1    0    0  501    0 -0.00000000000E+00 -0.00000000000E+00 -0.20344615190E+03  0.20344615190E+03  0.00000000000E+00 0. -1.
         25    2    1    2    0    0  0.11231867418E+03 -0.16130506565E+03  0.69148917497E+02  0.24298359736E+03  0.12499858808E+03 0.  0.
          2    1    1    2  501    0 -0.20606069201E+02  0.15726728457E+02 -0.10553403063E+03  0.10867093308E+03  0.00000000000E+00 0. -1.
          1    1    1    2  502    0 -0.91712604982E+02  0.14557833719E+03  0.77572159719E+03  0.79457425740E+03  0.00000000000E+00 0. -1.
         22    1    3    3    0    0  0.72453007832E+02 -0.10847784883E+03  0.10523385096E+03  0.16760383474E+03  0.00000000000E+00 0. -1.
         22    1    3    3    0    0  0.39865666351E+02 -0.52827216816E+02 -0.36084933465E+02  0.75379762624E+02  0.00000000000E+00 0. -1.
</event>
<event>
 7    1  0.8278507E-006  0.5147342E+02  0.7818608E-02  0.1464424E+00
          2   -1    0    0  502    0  0.00000000000E+00  0.00000000000E+00  0.71477602285E+03  0.71477602285E+03  0.00000000000E+00 0. -1.
          1   -1    0    0  501    0 -0.00000000000E+00 -0.00000000000E+00 -0.34267885871E+03  0.34267885871E+03  0.00000000000E+00 0. -1.
         25    2    1    2    0    0  0.18971994406E+02  0.59774723112E+02 -0.45865033196E+02  0.14717572218E+03  0.12499655129E+03 0.  0.
          2    1    1    2  501    0  0.25464985588E+02 -0.33700297026E+02 -0.24333704919E+03  0.24697589967E+03  0.00000000000E+00 0. -1.
          1    1    1    2  502    0 -0.44436979994E+02 -0.26074426086E+02  0.66129924652E+03  0.66330325971E+03  0.00000000000E+00 0. -1.
         22    1    3    3    0    0 -0.50551064309E+02  0.31828712474E+02 -0.40259450936E+02  0.72036799139E+02  0.00000000000E+00 0. -1.
         22    1    3    3    0    0  0.69523058715E+02  0.27946010638E+02 -0.56055822600E+01  0.75138923044E+02  0.00000000000E+00 0. -1.
</event>
<event>
 7    1  0.8278507E-006  0.1206977E+03  0.7818608E-02  0.1274290E+00
          2   -1    0    0  502    0  0.00000000000E+00  0.00000000000E+00  0.54179571471E+03  0.54179571471E+03  0.00000000000E+00 0. -1.
          1   -1    0    0  501    0 -0.00000000000E+00 -0.00000000000E+00 -0.16619526687E+04  0.16619526687E+04  0.00000000000E+00 0. -1.
         25    2    1    2    0    0  0.54857766409E+02 -0.16586071063E+02 -0.36222828417E+03  0.38745092328E+03  0.12499766322E+03 0.  0.
          2    1    1    2  501    0 -0.11663414151E+03  0.78900931603E+02 -0.12795864805E+04  0.12873113225E+04  0.00000000000E+00 0. -1.
          1    1    1    2  502    0  0.61776375099E+02 -0.62314860540E+02  0.52165781068E+03  0.52898613763E+03  0.00000000000E+00 0. -1.
         22    1    3    3    0    0  0.72120170768E+02  0.36140707780E+02 -0.18724226087E+03  0.20388019533E+03  0.00000000000E+00 0. -1.
         22    1    3    3    0    0 -0.17262404359E+02 -0.52726778843E+02 -0.17498602330E+03  0.18357072796E+03  0.00000000000E+00 0. -1.
</event>
<event>
 7    1  0.8278507E-006  0.9375984E+02  0.7818608E-02  0.1359569E+00
          2   -1    0    0  502    0  0.00000000000E+00  0.00000000000E+00  0.31635770863E+03  0.31635770863E+03  0.00000000000E+00 0. -1.
          1   -1    0    0  501    0 -0.00000000000E+00 -0.00000000000E+00 -0.16146883697E+04  0.16146883697E+04  0.00000000000E+00 0. -1.
         25    2    1    2    0    0  0.50653273207E+02  0.54131499475E+02  0.11261687363E+03  0.18386091619E+03  0.12500521171E+03 0.  0.
          2    1    1    2  501    0 -0.91618223146E+02 -0.21309351501E+02 -0.15735298979E+04  0.15763388998E+04  0.00000000000E+00 0. -1.
          1    1    1    2  502    0  0.40964949940E+02 -0.32822147974E+02  0.16258236324E+03  0.17084626235E+03  0.00000000000E+00 0. -1.
         22    1    3    3    0    0  0.80785439926E+02  0.58881373335E+02  0.44892907811E+02  0.10958410743E+03  0.00000000000E+00 0. -1.
         22    1    3    3    0    0 -0.30132166720E+02 -0.47498738598E+01  0.67723965821E+02  0.74276808759E+02  0.00000000000E+00 0. -1.
</event>
<event>
 7    1  0.8278507E-006  0.8856433E+02  0.7818608E-02  0.1391020E+00
          2   -1    0    0  502    0  0.00000000000E+00  0.00000000000E+00  0.11136454490E+03  0.11136454490E+03  0.00000000000E+00 0. -1.
          1   -1    0    0  501    0 -0.00000000000E+00 -0.00000000000E+00 -0.18789737229E+04  0.18789737229E+04  0.00000000000E+00 0. -1.
         25    2    1    2    0    0  0.67474013528E+02  0.51138375217E+01 -0.17932735287E+03  0.22882865871E+03  0.12500144688E+03 0.  0.
          2    1    1    2  501    0  0.11766427984E+02  0.41275582545E+02 -0.16502029545E+04  0.16507610104E+04  0.00000000000E+00 0. -1.
          1    1    1    2  502    0 -0.79240441512E+02 -0.46389420067E+02  0.61921129299E+02  0.11074859872E+03  0.00000000000E+00 0. -1.
         22    1    3    3    0    0  0.57080167447E+02 -0.41424172593E+02 -0.38938433595E+02  0.80562455285E+02  0.00000000000E+00 0.  1.
         22    1    3    3    0    0  0.10393846081E+02  0.46538010115E+02 -0.14038891927E+03  0.14826620342E+03  0.00000000000E+00 0.  1.
</event>
<event>
 7    1  0.8278507E-006  0.6931542E+02  0.7818608E-02  0.1365634E+00
          2   -1    0    0  502    0  0.00000000000E+00  0.00000000000E+00  0.12945471799E+03  0.12945471799E+03  0.00000000000E+00 0. -1.
          1   -1    0    0  501    0 -0.00000000000E+00 -0.00000000000E+00 -0.19167411577E+04  0.19167411577E+04  0.00000000000E+00 0. -1.
         25    2    1    2    0    0  0.17549787889E+02 -0.89634604008E+01 -0.16590894835E+03  0.20865829107E+03  0.12499665841E+03 0.  0.
          2    1    1    2  501    0 -0.51987999768E+02 -0.49077145095E+02 -0.17181056630E+04  0.17195925063E+04  0.00000000000E+00 0. -1.
          1    1    1    2  502    0  0.34438211879E+02  0.58040605496E+02  0.96728171638E+02  0.11794507837E+03  0.00000000000E+00 0. -1.
         22    1    3    3    0    0  0.35301291109E+02  0.51823436774E+02 -0.91907935330E+02  0.11126058749E+03  0.00000000000E+00 0.  1.
         22    1    3    3    0    0 -0.17751503219E+02 -0.60786897175E+02 -0.74001013018E+02  0.97397703578E+02  0.00000000000E+00 0.  1.
</event>
<event>
 7    1  0.8278507E-006  0.2263423E+03  0.7818608E-02  0.1183172E+00
          2   -1    0    0  502    0  0.00000000000E+00  0.00000000000E+00  0.19983221705E+04  0.19983221705E+04  0.00000000000E+00 0. -1.
          1   -1    0    0  501    0 -0.00000000000E+00 -0.00000000000E+00 -0.93475285446E+02  0.93475285446E+02  0.00000000000E+00 0. -1.
         25    2    1    2    0    0 -0.23195974905E+03 -0.23270636028E+01  0.19570712473E+03  0.32823326941E+03  0.12500024030E+03 0.  0.
          2    1    1    2  501    0  0.20325330635E+03  0.11912319232E+03  0.55174809203E+03  0.59994016247E+03  0.00000000000E+00 0. -1.
          1    1    1    2  502    0  0.28706442695E+02 -0.11679612872E+03  0.11573916683E+04  0.11636240241E+04  0.00000000000E+00 0. -1.
         22    1    3    3    0    0 -0.22198330779E+03 -0.26892477236E+02  0.20160414454E+03  0.30107146222E+03  0.00000000000E+00 0.  1.
         22    1    3    3    0    0 -0.99764412607E+01  0.24565413634E+02 -0.58970198082E+01  0.27161807190E+02  0.00000000000E+00 0.  1.
</event>
<event>
 7    1  0.8278507E-006  0.4309604E+02  0.7818608E-02  0.1553844E+00
          2   -1    0    0  502    0  0.00000000000E+00  0.00000000000E+00  0.12957444066E+04  0.12957444066E+04  0.00000000000E+00 0. -1.
          1   -1    0    0  501    0 -0.00000000000E+00 -0.00000000000E+00 -0.28544718877E+02  0.28544718877E+02  0.00000000000E+00 0. -1.
         25    2    1    2    0    0  0.50764324348E+02 -0.41314204506E+01  0.32531857391E+03  0.35220499468E+03  0.12498839339E+03 0.  0.
          2    1    1    2  501    0 -0.34238558434E+02  0.26093447639E+02  0.16200685180E+02  0.45995750822E+02  0.00000000000E+00 0. -1.
          1    1    1    2  502    0 -0.16525765914E+02 -0.21962027189E+02  0.92568042861E+03  0.92608837995E+03  0.00000000000E+00 0. -1.
         22    1    3    3    0    0 -0.21088569149E+02  0.26273336300E+02  0.21178182317E+03  0.21444476346E+03  0.00000000000E+00 0. -1.
         22    1    3    3    0    0  0.71852893497E+02 -0.30404756751E+02  0.11353675074E+03  0.13776023122E+03  0.00000000000E+00 0. -1.
</event>
<event>
 7    1  0.8278507E-006  0.2179604E+03  0.7818608E-02  0.1225973E+00
          2   -1    0    0  502    0  0.00000000000E+00  0.00000000000E+00  0.18463524205E+04  0.18463524205E+04  0.00000000000E+00 0. -1.
          1   -1    0    0  501    0 -0.00000000000E+00 -0.00000000000E+00 -0.12463208635E+04  0.12463208635E+04  0.00000000000E+00 0. -1.
         25    2    1    2    0    0 -0.11407202718E+03  0.81908411822E+02  0.10068330926E+04  0.10242363449E+04  0.12500319383E+03 0.  0.
          2    1    1    2  501    0  0.17117042011E+03 -0.13612753091E+03 -0.12260551818E+04  0.12454080963E+04  0.00000000000E+00 0. -1.
          1    1    1    2  502    0 -0.57098392931E+02  0.54219119089E+02  0.81925364618E+03  0.82302884283E+03  0.00000000000E+00 0. -1.
         22    1    3    3    0    0 -0.14136705693E+03  0.72671362075E+02  0.83272675322E+03  0.84776153320E+03  0.00000000000E+00 0.  1.
         22    1    3    3    0    0  0.27295029751E+02  0.92370497470E+01  0.17410633942E+03  0.17647481170E+03  0.00000000000E+00 0.  1.
</event>
<event>
 7    1  0.8278507E-006  0.1064454E+03  0.7818608E-02  0.1449053E+00
          2   -1    0    0  502    0  0.00000000000E+00  0.00000000000E+00  0.55407245714E+03  0.55407245714E+03  0.00000000000E+00 0. -1.
          1   -1    0    0  501    0 -0.00000000000E+00 -0.00000000000E+00 -0.10169290571E+03  0.10169290571E+03  0.00000000000E+00 0. -1.
         25    2    1    2    0    0  0.40369050663E+02 -0.11204035765E+03  0.34256966152E+03  0.38361729317E+03  0.12500221051E+03 0.  0.
          2    1    1    2  501    0 -0.15886604878E+02  0.16423943185E+02 -0.66376080152E+02  0.70199103560E+02  0.00000000000E+00 0. -1.
          1    1    1    2  502    0 -0.24482445785E+02  0.95616414462E+02  0.17618597006E+03  0.20194896611E+03  0.00000000000E+00 0. -1.
         22    1    3    3    0    0  0.19432529552E+02 -0.10658738289E+03  0.12687588849E+03  0.16684119538E+03  0.00000000000E+00 0.  1.
         22    1    3    3    0    0  0.20936521110E+02 -0.54529747586E+01  0.21569377303E+03  0.21677609779E+03  0.00000000000E+00 0.  1.
</event>
<event>
 7    1  0.8278507E-006  0.3312479E+02  0.7818608E-02  0.1644279E+00
          2   -1    0    0  502    0  0.00000000000E+00  0.00000000000E+00  0.58766073531E+02  0.58766073531E+02  0.00000000000E+00 0. -1.
          1   -1    0    0  501    0 -0.00000000000E+00 -0.00000000000E+00 -0.17524410481E+04  0.17524410481E+04  0.00000000000E+00 0. -1.
         25    2    1    2    0    0  0.20787171323E+02  0.42337278316E+01 -0.22015655637E+03  0.25405828110E+03  0.12500667959E+03 0.  0.
          2    1    1    2  501    0 -0.30072100168E+02  0.14300807629E+02 -0.15125697971E+04  0.15129362959E+04  0.00000000000E+00 0. -1.
          1    1    1    2  502    0  0.92849288456E+01 -0.18534535460E+02  0.39051378909E+02  0.44212544635E+02  0.00000000000E+00 0. -1.
         22    1    3    3    0    0 -0.24472957261E+02 -0.37371039247E+02 -0.28999452193E+02  0.53258693553E+02  0.00000000000E+00 0.  1.
         22    1    3    3    0    0  0.45260128584E+02  0.41604767078E+02 -0.19115710418E+03  0.20079958755E+03  0.00000000000E+00 0.  1.
</event>
<event>
 7    1  0.8278507E-006  0.5504540E+02  0.7818608E-02  0.1459689E+00
          2   -1    0    0  502    0  0.00000000000E+00  0.00000000000E+00  0.30878858847E+03  0.30878858847E+03  0.00000000000E+00 0. -1.
          1   -1    0    0  501    0 -0.00000000000E+00 -0.00000000000E+00 -0.42679176357E+03  0.42679176357E+03  0.00000000000E+00 0. -1.
         25    2    1    2    0    0 -0.14914103311E+02  0.51910621266E+01 -0.17373056394E+03  0.21460932547E+03  0.12500190449E+03 0.  0.
          2    1    1    2  501    0 -0.40675604775E+02 -0.40499270025E+01 -0.22810766481E+03  0.23174126408E+03  0.00000000000E+00 0. -1.
          1    1    1    2  502    0  0.55589708086E+02 -0.11411351241E+01  0.28383505364E+03  0.28922976249E+03  0.00000000000E+00 0. -1.
         22    1    3    3    0    0 -0.35526270677E+02  0.21739389865E+02 -0.29053861069E+01  0.41751146671E+02  0.00000000000E+00 0. -1.
         22    1    3    3    0    0  0.20612167367E+02 -0.16548327738E+02 -0.17082517783E+03  0.17285817879E+03  0.00000000000E+00 0. -1.
</event>
<event>
 7    1  0.8278507E-006  0.6512882E+02  0.7818608E-02  0.1443111E+00
          2   -1    0    0  502    0  0.00000000000E+00  0.00000000000E+00  0.13175985505E+03  0.13175985505E+03  0.00000000000E+00 0. -1.
          1   -1    0    0  501    0 -0.00000000000E+00 -0.00000000000E+00 -0.91336193280E+03  0.91336193280E+03  0.00000000000E+00 0. -1.
         25    2    1    2    0    0  0.42326475751E+02 -0.32666075787E+02  0.37792792793E+02  0.14110793538E+03  0.12499820472E+03 0.  0.
          2    1    1    2  501    0 -0.17752985872E+02  0.62984946035E+02 -0.85117344606E+03  0.85368525067E+03  0.00000000000E+00 0. -1.
          1    1    1    2  502    0 -0.24573489879E+02 -0.30318870248E+02  0.31778575508E+02  0.50328601801E+02  0.00000000000E+00 0. -1.
         22    1    3    3    0    0  0.28961302377E+02 -0.76873231486E+02  0.46076536320E+02  0.94187567936E+02  0.00000000000E+00 0.  1.
         22    1    3    3    0    0  0.13365173374E+02  0.44207155700E+02 -0.82837435269E+01  0.46920367445E+02  0.00000000000E+00 0.  1.
</event>
<event>
 7    1  0.8278507E-006  0.6623187E+02  0.7818608E-02  0.1410970E+00
          2   -1    0    0  502    0  0.00000000000E+00  0.00000000000E+00  0.16409992998E+04  0.16409992998E+04  0.00000000000E+00 0. -1.
          1   -1    0    0  501    0 -0.00000000000E+00 -0.00000000000E+00 -0.46131503873E+02  0.46131503873E+02  0.00000000000E+00 0. -1.
         25    2    1    2    0    0  0.23951612613E+02 -0.42502397627E+02  0.33461396968E+03  0.36051616648E+03  0.12500105614E+03 0.  0.
          2    1    1    2  501    0 -0.43170001900E+02 -0.23216893050E+02 -0.13641951349E+02  0.50880015954E+02  0.00000000000E+00 0. -1.
          1    1    1    2  502    0  0.19218389287E+02  0.65719290677E+02  0.12738957776E+04  0.12757346213E+04  0.00000000000E+00 0. -1.
         22    1    3    3    0    0  0.44669248793E+02 -0.29025425986E+02  0.33132818156E+03  0.33558334440E+03  0.00000000000E+00 0. -1.
         22    1    3    3    0    0 -0.20717636180E+02 -0.13476971642E+02  0.32857881250E+01  0.24932822085E+02  0.00000000000E+00 0. -1.
</event>
<event>
 7    1  0.8278507E-006  0.8284470E+02  0.7818608E-02  0.1435058E+00
          2   -1    0    0  502    0  0.00000000000E+00  0.00000000000E+00  0.35151462222E+02  0.35151462222E+02  0.00000000000E+00 0. -1.
          1   -1    0    0  501    0 -0.00000000000E+00 -0.00000000000E+00 -0.77389449475E+03  0.77389449475E+03  0.00000000000E+00 0. -1.
         25    2    1    2    0    0  0.20205198326E+02 -0.76937543019E+02 -0.18515072041E+03  0.23713894922E+03  0.12500582548E+03 0.  0.
          2    1    1    2  501    0  0.32308852390E+02  0.42465820808E+01 -0.32061880342E+03  0.32227055793E+03  0.00000000000E+00 0. -1.
          1    1    1    2  502    0 -0.52514050716E+02  0.72690960938E+02 -0.23297350870E+03  0.24963644982E+03  0.00000000000E+00 0. -1.
         22    1    3    3    0    0 -0.20006067240E+02  0.28715431260E+02 -0.47995710718E+02  0.59400395337E+02  0.00000000000E+00 0. -1.
         22    1    3    3    0    0  0.40211265566E+02 -0.10565297428E+03 -0.13715500969E+03  0.17773855388E+03  0.00000000000E+00 0. -1.
</event>
<event>
 7    1  0.8278507E-006  0.5716010E+02  0.7818608E-02  0.1438374E+00
          2   -1    0    0  502    0  0.00000000000E+00  0.00000000000E+00  0.14782255280E+04  0.14782255280E+04  0.00000000000E+00 0. -1.
          1   -1    0    0  501    0 -0.00000000000E+00 -0.00000000000E+00 -0.16327382220E+04  0.16327382220E+04  0.00000000000E+00 0. -1.
         25    2    1    2    0    0 -0.28774605564E+02 -0.33586099162E+02 -0.21517207998E+02  0.13431991248E+03  0.12499137837E+03 0.  0.
          2    1    1    2  501    0 -0.11293785382E+02  0.56319131678E+02 -0.15539157251E+04  0.15549770014E+04  0.00000000000E+00 0. -1.
          1    1    1    2  502    0  0.40068390946E+02 -0.22733032517E+02  0.14209202392E+04  0.14216668361E+04  0.00000000000E+00 0. -1.
         22    1    3    3    0    0  0.72948452101E+01 -0.49414413819E+02  0.38130063624E+02  0.62840280168E+02  0.00000000000E+00 0.  1.
         22    1    3    3    0    0 -0.36069450774E+02  0.15828314657E+02 -0.59647271622E+02  0.71479632316E+02  0.00000000000E+00 0.  1.
</event>
<event>
 7    1  0.8278507E-006  0.7600563E+02  0.7818608E-02  0.1358116E+00
          2   -1    0    0  502    0  0.00000000000E+00  0.00000000000E+00  0.72881712655E+03  0.72881712655E+03  0.00000000000E+00 0. -1.
          1   -1    0    0  501    0 -0.00000000000E+00 -0.00000000000E+00 -0.15907633238E+03  0.15907633238E+03  0.00000000000E+00 0. -1.
         25    2    1    2    0    0 -0.90913431379E+01 -0.15710619240E+02  0.30717437821E+03  0.33212832600E+03  0.12499460078E+03 0.  0.
          2    1    1    2  501    0 -0.15284278186E+02  0.76560235343E+02 -0.13331546596E+03  0.15449301686E+03  0.00000000000E+00 0. -1.
          1    1    1    2  502    0  0.24375621324E+02 -0.60849616102E+02  0.39588188192E+03  0.40127211606E+03  0.00000000000E+00 0. -1.
         22    1    3    3    0    0 -0.26732196821E+02 -0.66772292935E+02  0.16292569429E+03  0.17809528716E+03  0.00000000000E+00 0. -1.
         22    1    3    3    0    0  0.17640853683E+02  0.51061673694E+02  0.14424868392E+03  0.15403303883E+03  0.00000000000E+00 0. -1.
</event>
<event>
 7    1  0.8278507E-006  0.2110306E+03  0.7818608E-02  0.1336423E+00
          2   -1    0    0  502    0  0.00000000000E+00  0.00000000000E+00  0.20375363602E+03  0.20375363602E+03  0.00000000000E+00 0. -1.
          1   -1    0    0  501    0 -0.00000000000E+00 -0.00000000000E+00 -0.11802419697E+04  0.11802419697E+04  0.00000000000E+00 0. -1.
         25    2    1    2    0    0 -0.11384230419E+03  0.17373677872E+03 -0.78724834510E+03  0.82372931887E+03  0.12500198163E+03 0.  0.
          2    1    1    2  501    0 -0.24712135004E+02 -0.14058242760E+02 -0.31366974386E+03  0.31495560325E+03  0.00000000000E+00 0. -1.
          1    1    1    2  502    0  0.13855443919E+03 -0.15967853596E+03  0.12442975531E+03  0.24531068357E+03  0.00000000000E+00 0. -1.
         22    1    3    3    0    0 -0.12932159077E+02 -0.16937487508E+02 -0.13652558802E+03  0.13817870822E+03  0.00000000000E+00 0. -1.
         22    1    3    3    0    0 -0.10091014511E+03  0.19067426623E+03 -0.65072275708E+03  0.68555061066E+03  0.00000000000E+00 0. -1.
</event>
<event>
 7    1  0.8278507E-006  0.5981733E+02  0.7818608E-02  0.1551827E+00
          2   -1    0    0  502    0  0.00000000000E+00  0.00000000000E+00  0.36215335988E+03  0.36215335988E+03  0.00000000000E+00 0. -1.
          1   -1    0    0  501    0 -0.00000000000E+00 -0.00000000000E+00 -0.72635285883E+03  0.72635285883E+03  0.00000000000E+00 0. -1.
         25    2    1    2    0    0 -0.48717279334E+02 -0.59645423950E+02  0.11109061675E+03  0.18410967641E+03  0.12499719162E+03 0.  0.
          2    1    1    2  501    0  0.16492570268E+02  0.11417693706E+02 -0.68577381836E+03  0.68606712394E+03  0.00000000000E+00 0. -1.
          1    1    1    2  502    0  0.32224709066E+02  0.48227730244E+02  0.21048370266E+03  0.21832941837E+03  0.00000000000E+00 0. -1.
         22    1    3    3    0    0 -0.22314826118E+02  0.21869843714E+02  0.90842048333E+02  0.96065182424E+02  0.00000000000E+00 0. -1.
         22    1    3    3    0    0 -0.26402453216E+02 -0.81515267663E+02  0.20248568412E+02  0.88044493984E+02  0.00000000000E+00 0. -1.
</event>
<event>
 7    1  0.8278507E-006  0.9334772E+02  0.7818608E-02  0.1355673E+00
          2   -1    0    0  502    0  0.00000000000E+00  0.00000000000E+00  0.18711799572E+04  0.18711799572E+04  0.00000000000E+00 0. -1.
          1   -1    0    0  501    0 -0.00000000000E+00 -0.00000000000E+00 -0.21038989284E+03  0.21038989284E+03  0.00000000000E+00 0. -1.
         25    2    1    2    0    0 -0.13810598771E+02  0.14086912663E+03  0.12493171263E+04  0.12635084003E+04  0.12500140866E+03 0.  0.
          2    1    1    2  501    0 -0.10921378757E+02 -0.92321301348E+02 -0.19137301321E+03  0.21275838263E+03  0.00000000000E+00 0. -1.
          1    1    1    2  502    0  0.24731977528E+02 -0.48547825282E+02  0.60284595130E+03  0.60530306711E+03  0.00000000000E+00 0. -1.
         22    1    3    3    0    0  0.21681852398E+01  0.16204468548E+03  0.10951044782E+04  0.11070307129E+04  0.00000000000E+00 0. -1.
         22    1    3    3    0    0 -0.15978784011E+02 -0.21175558854E+02  0.15421264805E+03  0.15647768739E+03  0.00000000000E+00 0. -1.
</event>
<event>
 7    1  0.8278507E-006  0.8457186E+02  0.7818608E-02  0.1371898E+00
          2   -1    0    0  502    0  0.00000000000E+00  0.00000000000E+00  0.47761198315E+03  0.47761198315E+03  0.00000000000E+00 0. -1.
          1   -1    0    0  501    0 -0.00000000000E+00 -0.00000000000E+00 -0.55019348712E+03  0.55019348712E+03  0.00000000000E+00 0. -1.
         25    2    1    2    0    0  0.21262693057E+01 -0.64780906822E+02 -0.63403727601E+02  0.15441115863E+03  0.12498674460E+03 0.  0.
          2    1    1    2  501    0  0.52493465203E+02 -0.14717054802E+01 -0.43542722860E+03  0.43858249077E+03  0.00000000000E+00 0. -1.
          1    1    1    2  502    0 -0.54619734509E+02  0.66252612303E+02  0.42624945223E+03  0.43481182086E+03  0.00000000000E+00 0. -1.
         22    1    3    3    0    0 -0.44852987801E+02 -0.61496230831E+02 -0.86094009658E+00  0.76120418673E+02  0.00000000000E+00 0.  1.
         22    1    3    3    0    0  0.46979257107E+02 -0.32846759918E+01 -0.62542787504E+02  0.78290739960E+02  0.00000000000E+00 0.  1.
</event>
<event>
 7    1  0.8278507E-006  0.8436109E+02  0.7818608E-02  0.1414305E+00
          2   -1    0    0  502    0  0.00000000000E+00  0.00000000000E+00  0.22793718408E+04  0.22793718408E+04  0.00000000000E+00 0. -1.
          1   -1    0    0  501    0 -0.00000000000E+00 -0.00000000000E+00 -0.41892258287E+02  0.41892258287E+02  0.00000000000E+00 0. -1.
         25    2    1    2    0    0  0.16981079439E+02  0.54778697744E+02  0.37312679695E+03  0.39766466701E+03  0.12499807199E+03 0.  0.
          2    1    1    2  501    0 -0.26241114629E+01 -0.89419898493E+02  0.38549015792E+02  0.97410629944E+02  0.00000000000E+00 0. -1.
          1    1    1    2  502    0 -0.14356967976E+02  0.34641200750E+02  0.18258037698E+04  0.18261888022E+04  0.00000000000E+00 0. -1.
         22    1    3    3    0    0 -0.48001955484E+02  0.51329185375E+02  0.22870632629E+03  0.23926022797E+03  0.00000000000E+00 0.  1.
         22    1    3    3    0    0  0.64983034923E+02  0.34495123694E+01  0.14442047066E+03  0.15840443905E+03  0.00000000000E+00 0.  1.
</event>
<event>
 7    1  0.8278507E-006  0.5173846E+02  0.7818608E-02  0.1493412E+00
          2   -1    0    0  502    0  0.00000000000E+00  0.00000000000E+00  0.16658209132E+04  0.16658209132E+04  0.00000000000E+00 0. -1.
          1   -1    0    0  501    0 -0.00000000000E+00 -0.00000000000E+00 -0.24298676556E+03  0.24298676556E+03  0.00000000000E+00 0. -1.
         25    2    1    2    0    0 -0.18577628755E+02 -0.63866351325E+01  0.38537462094E+03  0.40561670729E+03  0.12500158947E+03 0.  0.
          2    1    1    2  501    0 -0.34062598210E+02 -0.33921681361E+01 -0.23103996707E+03  0.23356205553E+03  0.00000000000E+00 0. -1.
          1    1    1    2  502    0  0.52640226965E+02  0.97788032686E+01  0.12684994938E+04  0.12696289159E+04  0.00000000000E+00 0. -1.
         22    1    3    3    0    0  0.28577926886E+02  0.29607018883E+02  0.29272038451E+03  0.29559854022E+03  0.00000000000E+00 0.  1.
         22    1    3    3    0    0 -0.47155555641E+02 -0.35993654016E+02  0.92654236437E+02  0.11001816708E+03  0.00000000000E+00 0.  1.
</event>
<event>
 7    1  0.8278507E-006  0.1061090E+03  0.7818608E-02  0.1404781E+00
          2   -1    0    0  502    0  0.00000000000E+00  0.00000000000E+00  0.83334876005E+03  0.83334876005E+03  0.00000000000E+00 0. -1.
          1   -1    0    0  501    0 -0.00000000000E+00 -0.00000000000E+00 -0.19131415898E+04  0.19131415898E+04  0.00000000000E+00 0. -1.
         25    2    1    2    0    0 -0.82277939575E+02 -0.10706997670E+03 -0.21354187084E+03  0.28188533120E+03  0.12500228036E+03 0.  0.
          2    1    1    2  501    0  0.71002595000E+02  0.76999970668E+02 -0.16634575990E+04  0.16667517955E+04  0.00000000000E+00 0. -1.
          1    1    1    2  502    0  0.11275344576E+02  0.30070006036E+02  0.79720664012E+03  0.79785322316E+03  0.00000000000E+00 0. -1.
         22    1    3    3    0    0 -0.25006580020E+02 -0.37758736093E+02 -0.18049991851E+03  0.18609479246E+03  0.00000000000E+00 0. -1.
         22    1    3    3    0    0 -0.57271359555E+02 -0.69311240611E+02 -0.33041952324E+02  0.95790538749E+02  0.00000000000E+00 0. -1.
</event>
<event>
 7    1  0.8278507E-006  0.1612252E+03  0.7818608E-02  0.1280934E+00
          2   -1    0    0  502    0  0.00000000000E+00  0.00000000000E+00  0.88173578865E+03  0.88173578865E+03  0.00000000000E+00 0. -1.
          1   -1    0    0  501    0 -0.00000000000E+00 -0.00000000000E+00 -0.11902505491E+04  0.11902505491E+04  0.00000000000E+00 0. -1.
         25    2    1    2    0    0 -0.16894891647E+03  0.64830965976E+02  0.14681834257E+03  0.26443430477E+03  0.12499234097E+03 0.  0.
          2    1    1    2  501    0  0.12208968473E+03 -0.10489279283E+03 -0.11242933645E+04  0.11357569981E+04  0.00000000000E+00 0. -1.
          1    1    1    2  502    0  0.46859231737E+02  0.40061826859E+02  0.66896026148E+03  0.67179503497E+03  0.00000000000E+00 0. -1.
         22    1    3    3    0    0 -0.28250238966E+02 -0.36640712384E+02  0.35498838644E+02  0.58316252886E+02  0.00000000000E+00 0.  1.
         22    1    3    3    0    0 -0.14069867750E+03  0.10147167836E+03  0.11131950392E+03  0.20611805188E+03  0.00000000000E+00 0.  1.
</event>
<event>
 7    1  0.8278507E-006  0.5252864E+02  0.7818608E-02  0.1516003E+00
          2   -1    0    0  502    0  0.00000000000E+00  0.00000000000E+00  0.81709033472E+03  0.81709033472E+03  0.00000000000E+00 0. -1.
          1   -1    0    0  501    0 -0.00000000000E+00 -0.00000000000E+00 -0.16668584225E+03  0.16668584225E+03  0.00000000000E+00 0. -1.
         25    2    1    2    0    0 -0.41369073841E+02 -0.45876262453E+02 -0.70763552364E+02  0.15636016642E+03  0.12499995829E+03 0.  0.
          2    1    1    2  501    0  0.48195569434E+02  0.17797055423E+02 -0.40363900391E+02  0.65335997349E+02  0.00000000000E+00 0. -1.
          1    1    1    2  502    0 -0.68264955926E+01  0.28079207030E+02  0.76153194523E+03  0.76208001320E+03  0.00000000000E+00 0. -1.
         22    1    3    3    0    0 -0.82613836443E+02 -0.15921754407E+02 -0.62296618649E+02  0.10468723385E+03  0.00000000000E+00 0. -1.
         22    1    3    3    0    0  0.41244762602E+02 -0.29954508046E+02 -0.84669337151E+01  0.51672932575E+02  0.00000000000E+00 0. -1.
</event>
<event>
 7    1  0.8278507E-006  0.5141804E+02  0.7818608E-02  0.1543316E+00
          2   -1    0    0  502    0  0.00000000000E+00  0.00000000000E+00  0.71819825244E+03  0.71819825244E+03  0.00000000000E+00 0. -1.
          1   -1    0    0  501    0 -0.00000000000E+00 -0.00000000000E+00 -0.17333757738E+02  0.17333757738E+02  0.00000000000E+00 0. -1.
         25    2    1    2    0    0 -0.27552880834E+02  0.48993810464E+02  0.33768882532E+03  0.36444200190E+03  0.12499870120E+03 0.  0.
          2    1    1    2  501    0 -0.14735814593E+02 -0.19762318062E+02  0.10634180121E+03  0.10916167886E+03  0.00000000000E+00 0. -1.
          1    1    1    2  502    0  0.42288695427E+02 -0.29231492402E+02  0.25683386818E+03  0.26192832942E+03  0.00000000000E+00 0. -1.
         22    1    3    3    0    0 -0.17676219263E+02  0.91329676692E+02  0.24496106228E+03  0.26202954148E+03  0.00000000000E+00 0. -1.
         22    1    3    3    0    0 -0.98766615705E+01 -0.42335866228E+02  0.92727763031E+02  0.10241246042E+03  0.00000000000E+00 0. -1.
</event>
<event>
 7    1  0.8278507E-006  0.5179381E+02  0.7818608E-02  0.1444264E+00
          2   -1    0    0  502    0  0.00000000000E+00  0.00000000000E+00  0.78254297343E+02  0.78254297343E+02  0.00000000000E+00 0. -1.
          1   -1    0    0  501    0 -0.00000000000E+00 -0.00000000000E+00 -0.64802830447E+03  0.64802830447E+03  0.00000000000E+00 0. -1.
         25    2    1    2    0    0 -0.34090049914E+02  0.22310943616E+02 -0.40011291641E+03  0.42115835364E+03  0.12499641296E+03 0.  0.
          2    1    1    2  501    0  0.50878935686E+02  0.26686319530E+02 -0.22329292667E+03  0.23056573216E+03  0.00000000000E+00 0. -1.
          1    1    1    2  502    0 -0.16788885772E+02 -0.48997263146E+02  0.53631835957E+02  0.74558516009E+02  0.00000000000E+00 0. -1.
         22    1    3    3    0    0  0.49311056257E+01 -0.10308097324E+02  0.52798971027E+01  0.12587691868E+02  0.00000000000E+00 0. -1.
         22    1    3    3    0    0 -0.39021155540E+02  0.32619040941E+02 -0.40539281351E+03  0.40857066177E+03  0.00000000000E+00 0. -1.
</event>
<event>
 7    1  0.8278507E-006  0.7939552E+02  0.7818608E-02  0.1387495E+00
          2   -1    0    0  502    0  0.00000000000E+00  0.00000000000E+00  0.48735507643E+04  0.48735507643E+04  0.00000000000E+00 0. -1.
          1   -1    0    0  501    0 -0.00000000000E+00 -0.00000000000E+00 -0.25643975128E+04  0.25643975128E+04  0.00000000000E+00 0. -1.
         25    2    1    2    0    0  0.10185893859E+02 -0.30718938247E+02 -0.35749137681E+02  0.13397991367E+03  0.12500084328E+03 0.  0.
          2    1    1    2  501    0  0.34561638637E+02 -0.35091249811E+02 -0.24789601556E+04  0.24794494057E+04  0.00000000000E+00 0. -1.
          1    1    1    2  502    0 -0.44747532496E+02  0.65810188058E+02  0.48238625447E+04  0.48245189577E+04  0.00000000000E+00 0. -1.
         22    1    3    3    0    0 -0.55697339027E+01  0.48252479027E+02 -0.14645195955E+02  0.50732686037E+02  0.00000000000E+00 0. -1.
         22    1    3    3    0    0  0.15755627762E+02 -0.78971417274E+02 -0.21103941726E+02  0.83247227634E+02  0.00000000000E+00 0. -1.
</event>
<event>
 7    1  0.8278507E-006  0.1941250E+03  0.7818608E-02  0.1203130E+00
          2   -1    0    0  502    0  0.00000000000E+00  0.00000000000E+00  0.39902506556E+03  0.39902506556E+03  0.00000000000E+00 0. -1.
          1   -1    0    0  501    0 -0.00000000000E+00 -0.00000000000E+00 -0.42187800812E+03  0.42187800812E+03  0.00000000000E+00 0. -1.
         25    2    1    2    0    0 -0.27657745117E+03 -0.66046181758E+02 -0.12146924816E+02  0.31085182024E+03  0.12499648692E+03 0.  0.
          2    1    1    2  501    0  0.17462013998E+03  0.18218236932E+02 -0.21451240563E+03  0.27719969267E+03  0.00000000000E+00 0. -1.
          1    1    1    2  502    0  0.10195731119E+03  0.47827944826E+02  0.20380638789E+03  0.23285156077E+03  0.00000000000E+00 0. -1.
         22    1    3    3    0    0 -0.17666025078E+03 -0.35795228688E+01  0.41302491444E+02  0.18145950785E+03  0.00000000000E+00 0.  1.
         22    1    3    3    0    0 -0.99917200392E+02 -0.62466658889E+02 -0.53449416260E+02  0.12939231239E+03  0.00000000000E+00 0.  1.
</event>
<event>
 7    1  0.8278507E-006  0.1108313E+03  0.7818608E-02  0.1385439E+00
          2   -1    0    0  502    0  0.00000000000E+00  0.00000000000E+00  0.53843960897E+03  0.53843960897E+03  0.00000000000E+00 0. -1.
          1   -1    0    0  501    0 -0.00000000000E+00 -0.00000000000E+00 -0.11524485783E+03  0.11524485783E+03  0.00000000000E+00 0. -1.
         25    2    1    2    0    0  0.57115972997E+02  0.12170390791E+03  0.14831808347E+03  0.23600252915E+03  0.12499945724E+03 0.  0.
          2    1    1    2  501    0 -0.62189787252E+02 -0.86190253817E+02 -0.30209297375E+02  0.11049403214E+03  0.00000000000E+00 0. -1.
          1    1    1    2  502    0  0.50738142555E+01 -0.35513654089E+02  0.30508596505E+03  0.30718790550E+03  0.00000000000E+00 0. -1.
         22    1    3    3    0    0  0.42718726268E+02  0.38419711961E+02  0.13968990503E+03  0.15104381288E+03  0.00000000000E+00 0. -1.
         22    1    3    3    0    0  0.14397246729E+02  0.83284195945E+02  0.86281784404E+01  0.84958716273E+02  0.00000000000E+00 0. -1.
</event>
<event>
 7    1  0.8278507E-006  0.6057305E+02  0.7818608E-02  0.1446590E+00
          2   -1    0    0  502    0  0.00000000000E+00  0.00000000000E+00  0.19325266577E+04  0.19325266577E+04  0.00000000000E+00 0. -1.
          1   -1    0    0  501    0 -0.00000000000E+00 -0.00000000000E+00 -0.15062068357E+03  0.15062068357E+03  0.00000000000E+00 0. -1.
         25    2    1    2    0    0  0.27487782035E+02 -0.32820274353E+02  0.13675479087E+03  0.19015593332E+03  0.12499863032E+03 0.  0.
          2    1    1    2  501    0  0.12743054750E+01  0.61888070791E+02 -0.11593763189E+03  0.13142789524E+03  0.00000000000E+00 0. -1.
          1    1    1    2  502    0 -0.28762087510E+02 -0.29067796439E+02  0.17610888152E+04  0.17615635127E+04  0.00000000000E+00 0. -1.
         22    1    3    3    0    0  0.12405316843E+02  0.19540905962E+02 -0.15890974633E+02  0.28076003394E+02  0.00000000000E+00 0.  1.
         22    1    3    3    0    0  0.15082465191E+02 -0.52361180315E+02  0.15264576550E+03  0.16207992993E+03  0.00000000000E+00 0.  1.
</event>
<event>
 7    1  0.8278507E-006  0.2007181E+03  0.7818608E-02  0.1274129E+00
          2   -1    0    0  502    0  0.00000000000E+00  0.00000000000E+00  0.46021421536E+03  0.46021421536E+03  0.00000000000E+00 0. -1.
          1   -1    0    0  501    0 -0.00000000000E+00 -0.00000000000E+00 -0.61768865765E+03  0.61768865765E+03  0.00000000000E+00 0. -1.
         25    2    1    2    0    0  0.15411031971E+03  0.39611395550E+02 -0.25108273498E+03  0.32246920031E+03  0.12499916817E+03 0.  0.
          2    1    1    2  501    0  0.34021399224E+02  0.40438214281E+02 -0.30388247963E+03  0.30844329496E+03  0.00000000000E+00 0. -1.
          1    1    1    2  502    0 -0.18813171893E+03 -0.80049609831E+02  0.39749077233E+03  0.44699037774E+03  0.00000000000E+00 0. -1.
         22    1    3    3    0    0  0.17082625047E+03  0.40132503315E+02 -0.18784061808E+03  0.25705315301E+03  0.00000000000E+00 0.  1.
         22    1    3    3    0    0 -0.16715930756E+02 -0.52110776478E+00 -0.63242116903E+02  0.65416047302E+02  0.00000000000E+00 0.  1.
</event>
<event>
 7    1  0.8278507E-006  0.7378321E+02  0.7818608E-02  0.1415729E+00
          2   -1    0    0  502    0  0.00000000000E+00  0.00000000000E+00  0.16465036484E+04  0.16465036484E+04  0.00000000000E+00 0. -1.
          1   -1    0    0  501    0 -0.00000000000E+00 -0.00000000000E+00 -0.35987059139E+03  0.35987059139E+03  0.00000000000E+00 0. -1.
         25    2    1    2    0    0 -0.31485824723E+02 -0.32450364041E+02  0.25531176706E+02  0.13535645608E+03  0.12500058373E+03 0.  0.
          2    1    1    2  501    0  0.14366545865E+02 -0.39896227510E+02 -0.30259644998E+03  0.30555313475E+03  0.00000000000E+00 0. -1.
          1    1    1    2  502    0  0.17119278858E+02  0.72346591551E+02  0.15636983303E+04  0.15654646490E+04  0.00000000000E+00 0. -1.
         22    1    3    3    0    0 -0.14318494225E+01 -0.59786027644E+02 -0.29716648446E+02  0.66779476556E+02  0.00000000000E+00 0. -1.
         22    1    3    3    0    0 -0.30053975301E+02  0.27335663603E+02  0.55247825152E+02  0.68576979520E+02  0.00000000000E+00 0. -1.
</event>
<event>
 7    1  0.8278507E-006  0.5480681E+02  0.7818608E-02  0.1445347E+00
          2   -1    0    0  502    0  0.00000000000E+00  0.00000000000E+00  0.20463526234E+04  0.20463526234E+04  0.00000000000E+00 0. -1.
          1   -1    0    0  501    0 -0.00000000000E+00 -0.00000000000E+00 -0.68162571050E+03  0.68162571050E+03  0.00000000000E+00 0. -1.
         25    2    1    2    0    0  0.76653737224E+02  0.63225798800E+02  0.20822983939E+03  0.26240914723E+03  0.12500238989E+03 0.  0.
          2    1    1    2  501    0 -0.37711409843E+02 -0.39476695070E+02 -0.65310974979E+03  0.65538759917E+03  0.00000000000E+00 0. -1.
          1    1    1    2  502    0 -0.38942327381E+02 -0.23749103729E+02  0.18096068233E+04  0.18101815875E+04  0.00000000000E+00 0. -1.
         22    1    3    3    0    0  0.18981898528E+02  0.82964511244E+02  0.66108312945E+02  0.10776702482E+03  0.00000000000E+00 0. -1.
         22    1    3    3    0    0  0.57671838696E+02 -0.19738712444E+02  0.14212152644E+03  0.15464212242E+03  0.00000000000E+00 0. -1.
</event>
<event>
 7    1  0.8278507E-006  0.1051759E+03  0.7818608E-02  0.1346858E+00
          2   -1    0    0  502    0  0.00000000000E+00  0.00000000000E+00  0.22441382565E+04  0.22441382565E+04  0.00000000000E+00 0. -1.
          1   -1    0    0  501    0 -0.00000000000E+00 -0.00000000000E+00 -0.43387433377E+02  0.43387433377E+02  0.00000000000E+00 0. -1.
         25    2    1    2    0    0 -0.29155190226E+02  0.10873376894E+03  0.13487711737E+04  0.13592209336E+04  0.12499923859E+03 0.  0.
          2    1    1    2  501    0 -0.41952513081E+02 -0.30938284714E+02 -0.15549677091E+02  0.54396537321E+02  0.00000000000E+00 0. -1.
          1    1    1    2  502    0  0.71107703307E+02 -0.77795484229E+02  0.86752932654E+03  0.87390821900E+03  0.00000000000E+00 0. -1.
         22    1    3    3    0    0 -0.78088903342E+01  0.11180911908E+03  0.13105574063E+04  0.13153413904E+04  0.00000000000E+00 0.  1.
         22    1    3    3    0    0 -0.21346299892E+02 -0.30753501376E+01  0.38213767382E+02  0.43879543241E+02  0.00000000000E+00 0.  1.
</event>
<event>
 7    1  0.8278507E-006  0.3594265E+02  0.7818608E-02  0.1583135E+00
          2   -1    0    0  502    0  0.00000000000E+00  0.00000000000E+00  0.41000851548E+03  0.41000851548E+03  0.00000000000E+00 0. -1.
          1   -1    0    0  501    0 -0.00000000000E+00 -0.00000000000E+00 -0.11514561962E+03  0.11514561962E+03  0.00000000000E+00 0. -1.
         25    2    1    2    0    0 -0.33007667691E+02  0.12225427813E+01  0.18796754425E+03  0.22813922062E+03  0.12499882223E+03 0.  0.
          2    1    1    2  501    0  0.23934653290E+02 -0.27105583278E+02 -0.90638815699E+02  0.97585732483E+02  0.00000000000E+00 0. -1.
          1    1    1    2  502    0  0.90730144007E+01  0.25883040496E+02  0.19753416732E+03  0.19942918200E+03  0.00000000000E+00 0. -1.
         22    1    3    3    0    0 -0.32680802646E+02 -0.79783593127E+01 -0.58138227817E+01  0.34139267922E+02  0.00000000000E+00 0.  1.
         22    1    3    3    0    0 -0.32686504495E+00  0.92009020941E+01  0.19378136703E+03  0.19399995270E+03  0.00000000000E+00 0.  1.
</event>
<event>
 7    1  0.8278507E-006  0.2536309E+03  0.7818608E-02  0.1280275E+00
          2   -1    0    0  502    0  0.00000000000E+00  0.00000000000E+00  0.19239677649E+04  0.19239677649E+04  0.00000000000E+00 0. -1.
          1   -1    0    0  501    0 -0.00000000000E+00 -0.00000000000E+00 -0.11074317937E+04  0.11074317937E+04  0.00000000000E+00 0. -1.
         25    2    1    2    0    0 -0.43474788355E+02  0.23366026525E+03  0.26387275936E+03  0.37648572465E+03  0.12500196381E+03 0.  0.
          2    1    1    2  501    0 -0.38164090120E+02  0.99320137186E+01 -0.10404609140E+04  0.10412079793E+04  0.00000000000E+00 0. -1.
          1    1    1    2  502    0  0.81638878475E+02 -0.24359227897E+03  0.15931241258E+04  0.16137058546E+04  0.00000000000E+00 0. -1.
         22    1    3    3    0    0 -0.93366137704E+01  0.14623769938E+03  0.23738137232E+03  0.27896693890E+03  0.00000000000E+00 0.  1.
         22    1    3    3    0    0 -0.34138174585E+02  0.87422565871E+02  0.26491387042E+02  0.97518785754E+02  0.00000000000E+00 0.  1.
</event>
<event>
 7    1  0.8278507E-006  0.4250711E+02  0.7818608E-02  0.1530496E+00
          2   -1    0    0  502    0  0.00000000000E+00  0.00000000000E+00  0.16719807243E+03  0.16719807243E+03  0.00000000000E+00 0. -1.
          1   -1    0    0  501    0 -0.00000000000E+00 -0.00000000000E+00 -0.88528789521E+02  0.88528789521E+02  0.00000000000E+00 0. -1.
         25    2    1    2    0    0 -0.14175976858E+02 -0.83821246291E+01  0.34980759971E+02  0.13084723222E+03  0.12500450504E+03 0.  0.
          2    1    1    2  501    0  0.30475517771E+02  0.36413054356E+02 -0.21460178401E+02  0.52107647884E+02  0.00000000000E+00 0. -1.
          1    1    1    2  502    0 -0.16299540913E+02 -0.28030929727E+02  0.65148701337E+02  0.72771981842E+02  0.00000000000E+00 0. -1.
         22    1    3    3    0    0 -0.56141986632E+02  0.34317201283E+02  0.13010130831E+02  0.67073515423E+02  0.00000000000E+00 0.  1.
         22    1    3    3    0    0  0.41966009774E+02 -0.42699325912E+02  0.21970629140E+02  0.63773716801E+02  0.00000000000E+00 0.  1.
</event>
<event>
 7    1  0.8278507E-006  0.1003535E+03  0.7818608E-02  0.1324503E+00
          2   -1    0    0  502    0  0.00000000000E+00  0.00000000000E+00  0.24904630890E+04  0.24904630890E+04  0.00000000000E+00 0. -1.
          1   -1    0    0  501    0 -0.00000000000E+00 -0.00000000000E+00 -0.34635662062E+02  0.34635662062E+02  0.00000000000E+00 0. -1.
         25    2    1    2    0    0  0.14624717858E+03  0.62941460053E+02  0.50533063326E+03  0.54436553632E+03  0.12499969435E+03 0.  0.
          2    1    1    2  501    0 -0.51918249629E+02 -0.41379960540E+02  0.65529803013E+02  0.93284301261E+02  0.00000000000E+00 0. -1.
          1    1    1    2  502    0 -0.94328928952E+02 -0.21561499514E+02  0.18849669907E+04  0.18874489135E+04  0.00000000000E+00 0. -1.
         22    1    3    3    0    0  0.35722782610E+02  0.63016570820E+02  0.95329382035E+02  0.11972842801E+03  0.00000000000E+00 0.  1.
         22    1    3    3    0    0  0.11052439597E+03 -0.75110766974E-01  0.41000125122E+03  0.42463710831E+03  0.00000000000E+00 0.  1.
</event>
<event>
 7    1  0.8278507E-006  0.4707898E+02  0.7818608E-02  0.1487103E+00
          2   -1    0    0  502    0  0.00000000000E+00  0.00000000000E+00  0.35762292575E+02  0.35762292575E+02  0.00000000000E+00 0. -1.
          1   -1    0    0  501    0 -0.00000000000E+00 -0.00000000000E+00 -0.39927061449E+04  0.39927061449E+04  0.00000000000E+00 0. -1.
         25    2    1    2    0    0  0.42737705959E+02  0.40202774060E+01 -0.13585507282E+04  0.13649642104E+04  0.12499816223E+03 0.  0.
          2    1    1    2  501    0 -0.27123054493E+02 -0.40094803587E+02 -0.26187771220E+04  0.26192244784E+04  0.00000000000E+00 0. -1.
          1    1    1    2  502    0 -0.15614651466E+02  0.36074526181E+02  0.20383997820E+02  0.44279748720E+02  0.00000000000E+00 0. -1.
         22    1    3    3    0    0 -0.34199411501E+02 -0.14944872200E+02 -0.18419544566E+03  0.18793858347E+03  0.00000000000E+00 0. -1.
         22    1    3    3    0    0  0.76937117460E+02  0.18965149606E+02 -0.11743552825E+04  0.11770256270E+04  0.00000000000E+00 0. -1.
</event>
<event>
 7    1  0.8278507E-006  0.1573997E+03  0.7818608E-02  0.1298771E+00
          2   -1    0    0  502    0  0.00000000000E+00  0.00000000000E+00  0.10263352761E+04  0.10263352761E+04  0.00000000000E+00 0. -1.
          1   -1    0    0  501    0 -0.00000000000E+00 -0.00000000000E+00 -0.62168531386E+03  0.62168531386E+03  0.00000000000E+00 0. -1.
         25    2    1    2    0    0 -0.11223373843E+03  0.17390560566E+03  0.73721086077E+02  0.25278250661E+03  0.12499850157E+03 0.  0.
          2    1    1    2  501    0  0.88599569887E+02 -0.12598550946E+03 -0.52015481862E+03  0.54247881775E+03  0.00000000000E+00 0. -1.
          1    1    1    2  502    0  0.23634168538E+02 -0.47920096207E+02  0.85108369476E+03  0.85275926558E+03  0.00000000000E+00 0. -1.
         22    1    3    3    0    0  0.13380638207E+02 -0.11550877161E+02  0.75312343940E+01  0.19214154510E+02  0.00000000000E+00 0.  1.
         22    1    3    3    0    0 -0.12561437663E+03  0.18545648283E+03  0.66189851683E+02  0.23356835210E+03  0.00000000000E+00 0.  1.
</event>
<event>
 7    1  0.8278507E-006  0.2109270E+03  0.7818608E-02  0.1237740E+00
          2   -1    0    0  502    0  0.00000000000E+00  0.00000000000E+00  0.76598469603E+03  0.76598469603E+03  0.00000000000E+00 0. -1.
          1   -1    0    0  501    0 -0.00000000000E+00 -0.00000000000E+00 -0.56518814634E+03  0.56518814634E+03  0.00000000000E+00 0. -1.
         25    2    1    2    0    0  0.60320384782E+02 -0.17771321041E+03  0.42218817592E+03  0.47863018187E+03  0.12499384436E+03 0.  0.
          2    1    1    2  501    0  0.50096451769E+02 -0.51830769599E+02 -0.48244959395E+03  0.48780497523E+03  0.00000000000E+00 0. -1.
          1    1    1    2  502    0 -0.11041683655E+03  0.22954398001E+03  0.26105796771E+03  0.36473768527E+03  0.00000000000E+00 0. -1.
         22    1    3    3    0    0  0.15535227891E+02 -0.53862268242E+02  0.27285772841E+02  0.62345814978E+02  0.00000000000E+00 0. -1.
         22    1    3    3    0    0  0.44785156891E+02 -0.12385094217E+03  0.39490240308E+03  0.41628436689E+03  0.00000000000E+00 0. -1.
</event>
<event>
 7    1  0.8278507E-006  0.6296862E+02  0.7818608E-02  0.1536404E+00
          2   -1    0    0  502    0  0.00000000000E+00  0.00000000000E+00  0.38787223600E+03  0.38787223600E+03  0.00000000000E+00 0. -1.
          1   -1    0    0  501    0 -0.00000000000E+00 -0.00000000000E+00 -0.12075465895E+04  0.12075465895E+04  0.00000000000E+00 0. -1.
         25    2    1    2    0    0 -0.25064024719E+02  0.34954142075E+02  0.73661413204E+01  0.13240531601E+03  0.12500764091E+03 0.  0.
          2    1    1    2  501    0 -0.10513990180E+02  0.18243062576E+02 -0.11417088898E+04  0.11419030355E+04  0.00000000000E+00 0. -1.
          1    1    1    2  502    0  0.35578014898E+02 -0.53197204651E+02  0.31466839499E+03  0.32111047403E+03  0.00000000000E+00 0. -1.
         22    1    3    3    0    0 -0.41325171067E+02  0.75827013320E+02  0.15314191969E+02  0.87704219901E+02  0.00000000000E+00 0.  1.
         22    1    3    3    0    0  0.16261146348E+02 -0.40872871245E+02 -0.79480506491E+01  0.44701096110E+02  0.00000000000E+00 0.  1.
</event>
<event>
 7    1  0.8278507E-006  0.8483178E+02  0.7818608E-02  0.1362619E+00
          2   -1    0    0  502    0  0.00000000000E+00  0.00000000000E+00  0.20464750759E+04  0.20464750759E+04  0.00000000000E+00 0. -1.
          1   -1    0    0  501    0 -0.00000000000E+00 -0.00000000000E+00 -0.40619034708E+02  0.40619034708E+02  0.00000000000E+00 0. -1.
         25    2    1    2    0    0 -0.33132586200E+02  0.62854429925E+02  0.34372237831E+03  0.37258813354E+03  0.12501358438E+03 0.  0.
          2    1    1    2  501    0  0.51977639938E+02  0.22278417878E+02  0.68919682309E+01  0.56969309130E+02  0.00000000000E+00 0. -1.
          1    1    1    2  502    0 -0.18845053738E+02 -0.85132847804E+02  0.16552416946E+04  0.16575366679E+04  0.00000000000E+00 0. -1.
         22    1    3    3    0    0 -0.21986451742E+02  0.31935409058E+02  0.33676944911E+03  0.33899400624E+03  0.00000000000E+00 0. -1.
         22    1    3    3    0    0 -0.11146134458E+02  0.30919020867E+02  0.69529291931E+01  0.33594127301E+02  0.00000000000E+00 0. -1.
</event>
<event>
 7    1  0.8278507E-006  0.7678961E+02  0.7818608E-02  0.1360025E+00
          2   -1    0    0  502    0  0.00000000000E+00  0.00000000000E+00  0.14371885057E+04  0.14371885057E+04  0.00000000000E+00 0. -1.
          1   -1    0    0  501    0 -0.00000000000E+00 -0.00000000000E+00 -0.25583144317E+02  0.25583144317E+02  0.00000000000E+00 0. -1.
         25    2    1    2    0    0 -0.33390490174E+02  0.56905258505E+01  0.37303115165E+03  0.39487406796E+03  0.12500393006E+03 0.  0.
          2    1    1    2  501    0  0.96157774773E+02  0.60016716491E+01  0.15832019347E+03  0.18533111280E+03  0.00000000000E+00 0. -1.
          1    1    1    2  502    0 -0.62767284599E+02 -0.11692197500E+02  0.88025401623E+03  0.88256646921E+03  0.00000000000E+00 0. -1.
         22    1    3    3    0    0 -0.63679741081E+02 -0.36043730734E+02  0.16412953913E+03  0.17970187969E+03  0.00000000000E+00 0.  1.
         22    1    3    3    0    0  0.30289250907E+02  0.41734256585E+02  0.20890161252E+03  0.21517218827E+03  0.00000000000E+00 0.  1.
</event>
<event>
 7    1  0.8278507E-006  0.2852760E+03  0.7818608E-02  0.1129110E+00
          2   -1    0    0  502    0  0.00000000000E+00  0.00000000000E+00  0.26652985607E+04  0.26652985607E+04  0.00000000000E+00 0. -1.
          1   -1    0    0  501    0 -0.00000000000E+00 -0.00000000000E+00 -0.28864066888E+03  0.28864066888E+03  0.00000000000E+00 0. -1.
         25    2    1    2    0    0  0.66579319759E+02  0.29378075943E+03  0.31217187476E+03  0.45146100657E+03  0.12500328248E+03 0.  0.
          2    1    1    2  501    0  0.14922394311E+03 -0.10043006165E+03 -0.17106493148E+03  0.24822810732E+03  0.00000000000E+00 0. -1.
          1    1    1    2  502    0 -0.21580326287E+03 -0.19335069777E+03  0.22355509485E+04  0.22542501157E+04  0.00000000000E+00 0. -1.
         22    1    3    3    0    0  0.16586407324E+02  0.26049574535E+02 -0.72158713134E+01  0.31713688530E+02  0.00000000000E+00 0. -1.
         22    1    3    3    0    0  0.49992912435E+02  0.26773118489E+03  0.31938774607E+03  0.41974731804E+03  0.00000000000E+00 0. -1.
</event>
<event>
 7    1  0.8278507E-006  0.1424167E+03  0.7818608E-02  0.1388623E+00
          2   -1    0    0  502    0  0.00000000000E+00  0.00000000000E+00  0.54483465008E+02  0.54483465008E+02  0.00000000000E+00 0. -1.
          1   -1    0    0  501    0 -0.00000000000E+00 -0.00000000000E+00 -0.14646456180E+04  0.14646456180E+04  0.00000000000E+00 0. -1.
         25    2    1    2    0    0  0.10665655648E+03  0.61743560490E+02 -0.51486603674E+03  0.54396613486E+03  0.12499692707E+03 0.  0.
          2    1    1    2  501    0 -0.12976533366E+03 -0.76108799446E+02 -0.92367583750E+03  0.93584648525E+03  0.00000000000E+00 0. -1.
          1    1    1    2  502    0  0.23108777183E+02  0.14365238956E+02  0.28379721278E+02  0.39316462874E+02  0.00000000000E+00 0. -1.
         22    1    3    3    0    0  0.48709253921E+02  0.43721244729E+02 -0.73384281046E+02  0.98333063427E+02  0.00000000000E+00 0. -1.
         22    1    3    3    0    0  0.57947302556E+02  0.18022315761E+02 -0.44148175570E+03  0.44563307143E+03  0.00000000000E+00 0. -1.
</event>
<event>
 7    1  0.8278507E-006  0.1377732E+03  0.7818608E-02  0.1241315E+00
          2   -1    0    0  502    0  0.00000000000E+00  0.00000000000E+00  0.24785465801E+04  0.24785465801E+04  0.00000000000E+00 0. -1.
          1   -1    0    0  501    0 -0.00000000000E+00 -0.00000000000E+00 -0.32156030165E+02  0.32156030165E+02  0.00000000000E+00 0. -1.
         25    2    1    2    0    0  0.13192499040E+03  0.70510527794E+02  0.49169817865E+03  0.52893056917E+03  0.12499804196E+03 0.  0.
          2    1    1    2  501    0 -0.14154181058E+03  0.35475784340E+02  0.44458237798E+03  0.46791677276E+03  0.00000000000E+00 0. -1.
          1    1    1    2  502    0  0.96168201778E+01 -0.10598631213E+03  0.15101099933E+04  0.15138552683E+04  0.00000000000E+00 0. -1.
         22    1    3    3    0    0  0.28030442402E+01  0.42933421097E+01 -0.74909786665E+01  0.90776982141E+01  0.00000000000E+00 0. -1.
         22    1    3    3    0    0  0.12912194616E+03  0.66217185684E+02  0.49918915731E+03  0.51985287095E+03  0.00000000000E+00 0. -1.
</event>
<event>
 7    1  0.8278507E-006  0.1259436E+03  0.7818608E-02  0.1309503E+00
          2   -1    0    0  502    0  0.00000000000E+00  0.00000000000E+00  0.33400378348E+03  0.33400378348E+03  0.00000000000E+00 0. -1.
          1   -1    0    0  501    0 -0.00000000000E+00 -0.00000000000E+00 -0.17366884696E+04  0.17366884696E+04  0.00000000000E+00 0. -1.
         25    2    1    2    0    0 -0.41528376408E+01  0.98889021916E+02  0.94759374037E+02  0.18547419739E+03  0.12500021685E+03 0.  0.
          2    1    1    2  501    0 -0.54372348069E+02 -0.11432124308E+03 -0.16841733858E+04  0.16889244188E+04  0.00000000000E+00 0. -1.
          1    1    1    2  502    0  0.58525185710E+02  0.15432221164E+02  0.18672932569E+03  0.19629363689E+03  0.00000000000E+00 0. -1.
         22    1    3    3    0    0 -0.19322056026E+02  0.10220216123E+03  0.11814292634E+03  0.15740512906E+03  0.00000000000E+00 0.  1.
         22    1    3    3    0    0  0.15169218385E+02 -0.33131393148E+01 -0.23383552303E+02  0.28069068329E+02  0.00000000000E+00 0.  1.
</event>
<event>
 7    1  0.8278507E-006  0.7601046E+02  0.7818608E-02  0.1341510E+00
          2   -1    0    0  502    0  0.00000000000E+00  0.00000000000E+00  0.63290459865E+03  0.63290459865E+03  0.00000000000E+00 0. -1.
          1   -1    0    0  501    0 -0.00000000000E+00 -0.00000000000E+00 -0.23076882743E+03  0.23076882743E+03  0.00000000000E+00 0. -1.
         25    2    1    2    0    0  0.19192696343E+02 -0.37114745681E+02  0.73801512028E+02  0.15105551733E+03  0.12500096879E+03 0.  0.
          2    1    1    2  501    0  0.61424461266E+02  0.43944904331E+02 -0.18140436305E+03  0.19649850379E+03  0.00000000000E+00 0. -1.
          1    1    1    2  502    0 -0.80617157609E+02 -0.68301586501E+01  0.50973862224E+03  0.51611940495E+03  0.00000000000E+00 0. -1.
         22    1    3    3    0    0  0.43752112857E+01  0.45239784347E+02  0.11935347145E+02  0.46991840494E+02  0.00000000000E+00 0.  1.
         22    1    3    3    0    0  0.14817485057E+02 -0.82354530028E+02  0.61866164882E+02  0.10406367684E+03  0.00000000000E+00 0.  1.
</event>
<event>
 7    1  0.8278507E-006  0.6019480E+02  0.7818608E-02  0.1418613E+00
          2   -1    0    0  502    0  0.00000000000E+00  0.00000000000E+00  0.75983141223E+03  0.75983141223E+03  0.00000000000E+00 0. -1.
          1   -1    0    0  501    0 -0.00000000000E+00 -0.00000000000E+00 -0.43913612094E+03  0.43913612094E+03  0.00000000000E+00 0. -1.
         25    2    1    2    0    0 -0.13765931208E+01  0.32811718621E+02  0.12347697534E+03  0.17874637848E+03  0.12500080197E+03 0.  0.
          2    1    1    2  501    0 -0.50803044387E+02  0.17066917929E+01 -0.40831372818E+03  0.41146562765E+03  0.00000000000E+00 0. -1.
          1    1    1    2  502    0  0.52179637508E+02 -0.34518410414E+02  0.60553204413E+03  0.60875552704E+03  0.00000000000E+00 0. -1.
         22    1    3    3    0    0 -0.36627819167E+02  0.67948012906E+02  0.58273866076E+02  0.96718007953E+02  0.00000000000E+00 0. -1.
         22    1    3    3    0    0  0.35251226046E+02 -0.35136294285E+02  0.65203109260E+02  0.82028370525E+02  0.00000000000E+00 0. -1.
</event>
<event>
 7    1  0.8278507E-006  0.3904542E+02  0.7818608E-02  0.1564723E+00
          2   -1    0    0  502    0  0.00000000000E+00  0.00000000000E+00  0.17368411303E+04  0.17368411303E+04  0.00000000000E+00 0. -1.
          1   -1    0    0  501    0 -0.00000000000E+00 -0.00000000000E+00 -0.35094042484E+02  0.35094042484E+02  0.00000000000E+00 0. -1.
         25    2    1    2    0    0  0.13198397990E+02 -0.65443878907E+02  0.81697527507E+03  0.82917458004E+03  0.12499914049E+03 0.  0.
          2    1    1    2  501    0 -0.53617620317E+01  0.38236946229E+02 -0.15818202923E+02  0.41725628727E+02  0.00000000000E+00 0. -1.
          1    1    1    2  502    0 -0.78366359588E+01  0.27206932678E+02  0.90059001568E+03  0.90103496402E+03  0.00000000000E+00 0. -1.
         22    1    3    3    0    0 -0.20601405933E+02  0.29943825216E+02  0.13832435394E+03  0.14301984998E+03  0.00000000000E+00 0. -1.
         22    1    3    3    0    0  0.33799803923E+02 -0.95387704123E+02  0.67865092112E+03  0.68615473006E+03  0.00000000000E+00 0. -1.
</event>
<event>
 7    1  0.8278507E-006  0.3246579E+02  0.7818608E-02  0.1623955E+00
          2   -1    0    0  502    0  0.00000000000E+00  0.00000000000E+00  0.12084115832E+04  0.12084115832E+04  0.00000000000E+00 0. -1.
          1   -1    0    0  501    0 -0.00000000000E+00 -0.00000000000E+00 -0.10595719124E+04  0.10595719124E+04  0.00000000000E+00 0. -1.
         25    2    1    2    0    0  0.29983800631E+02 -0.97928688367E+01  0.19900912453E+03  0.23711827597E+03  0.12500206627E+03 0.  0.
          2    1    1    2  501    0 -0.53398796390E+00  0.23772092543E+02 -0.10401131527E+04  0.10403849133E+04  0.00000000000E+00 0. -1.
          1    1    1    2  502    0 -0.29449812667E+02 -0.13979223707E+02  0.98994369897E+03  0.99048030636E+03  0.00000000000E+00 0. -1.
         22    1    3    3    0    0  0.47948819533E+02 -0.15492901699E+02  0.15608486491E+02  0.52751721756E+02  0.00000000000E+00 0. -1.
         22    1    3    3    0    0 -0.17965018902E+02  0.57000328623E+01  0.18340063804E+03  0.18436655421E+03  0.00000000000E+00 0. -1.
</event>
<event>
 7    1  0.8278507E-006  0.8557318E+02  0.7818608E-02  0.1447228E+00
          2   -1    0    0  502    0  0.00000000000E+00  0.00000000000E+00  0.25756201745E+04  0.25756201745E+04  0.00000000000E+00 0. -1.
          1   -1    0    0  501    0 -0.00000000000E+00 -0.00000000000E+00 -0.18699487939E+02  0.18699487939E+02  0.00000000000E+00 0. -1.
         25    2    1    2    0    0  0.64786953255E+02 -0.12967194865E+02  0.76444851103E+03  0.77741336462E+03  0.12499806406E+03 0.  0.
          2    1    1    2  501    0 -0.90078301709E+02 -0.82903455015E+00  0.15570514035E+03  0.17988573726E+03  0.00000000000E+00 0. -1.
          1    1    1    2  502    0  0.25291348454E+02  0.13796229415E+02  0.16367670352E+04  0.16370205606E+04  0.00000000000E+00 0. -1.
         22    1    3    3    0    0  0.39198609794E+01  0.52092151598E+02  0.27227623257E+03  0.27724232070E+03  0.00000000000E+00 0. -1.
         22    1    3    3    0    0  0.60867092276E+02 -0.65059346463E+02  0.49217227847E+03  0.50017104392E+03  0.00000000000E+00 0. -1.
</event>
<event>
 7    1  0.8278507E-006  0.6937293E+02  0.7818608E-02  0.1480994E+00
          2   -1    0    0  502    0  0.00000000000E+00  0.00000000000E+00  0.28844564236E+04  0.28844564236E+04  0.00000000000E+00 0. -1.
          1   -1    0    0  501    0 -0.00000000000E+00 -0.00000000000E+00 -0.87854828435E+03  0.87854828435E+03  0.00000000000E+00 0. -1.
         25    2    1    2    0    0 -0.32465689864E+02 -0.80138607670E+02 -0.13695339184E+03  0.20458955358E+03  0.12499774574E+03 0.  0.
          2    1    1    2  501    0  0.25516812309E+02  0.11148397755E+02 -0.70708106967E+03  0.70762916388E+03  0.00000000000E+00 0. -1.
          1    1    1    2  502    0  0.69488775550E+01  0.68990209915E+02  0.28499426008E+04  0.28507859905E+04  0.00000000000E+00 0. -1.
         22    1    3    3    0    0 -0.60152282862E+01 -0.10963890379E+03 -0.11615698274E+03  0.15984153664E+03  0.00000000000E+00 0. -1.
         22    1    3    3    0    0 -0.26450461578E+02  0.29500296119E+02 -0.20796409099E+02  0.44748016941E+02  0.00000000000E+00 0. -1.
</event>
<event>
 7    1  0.8278507E-006  0.2341501E+02  0.7818608E-02  0.1699193E+00
          2   -1    0    0  502    0  0.00000000000E+00  0.00000000000E+00  0.48865889772E+03  0.48865889772E+03  0.00000000000E+00 0. -1.
          1   -1    0    0  501    0 -0.00000000000E+00 -0.00000000000E+00 -0.50892024343E+03  0.50892024343E+03  0.00000000000E+00 0. -1.
         25    2    1    2    0    0  0.11561860146E+00  0.21982820998E+01 -0.14400961850E+03  0.19071811471E+03  0.12501913152E+03 0.  0.
          2    1    1    2  501    0  0.53024348759E+01 -0.23194800122E+02 -0.34088884550E+03  0.34171818733E+03  0.00000000000E+00 0. -1.
          1    1    1    2  502    0 -0.54180534773E+01  0.20996518022E+02  0.46463711830E+03  0.46514283910E+03  0.00000000000E+00 0. -1.
         22    1    3    3    0    0  0.30006963216E+02 -0.38381694966E+02 -0.12936210640E+03  0.13823214866E+03  0.00000000000E+00 0.  1.
         22    1    3    3    0    0 -0.29891344615E+02  0.40579977066E+02 -0.14647512100E+02  0.52485966050E+02  0.00000000000E+00 0.  1.
</event>
<event>
 7    1  0.8278507E-006  0.1244725E+03  0.7818608E-02  0.1380670E+00
          2   -1    0    0  502    0  0.00000000000E+00  0.00000000000E+00  0.23756497307E+04  0.23756497307E+04  0.00000000000E+00 0. -1.
          1   -1    0    0  501    0 -0.00000000000E+00 -0.00000000000E+00 -0.19148732578E+03  0.19148732578E+03  0.00000000000E+00 0. -1.
         25    2    1    2    0    0  0.72473788883E+02 -0.84961930384E+02  0.15983472634E+03  0.23160952117E+03  0.12499940345E+03 0.  0.
          2    1    1    2  501    0 -0.55732949572E+02  0.11363655194E+03 -0.12971263154E+03  0.18123132837E+03  0.00000000000E+00 0. -1.
          1    1    1    2  502    0 -0.16740839310E+02 -0.28674621552E+02  0.21540403102E+04  0.21542962070E+04  0.00000000000E+00 0. -1.
         22    1    3    3    0    0 -0.27013166372E+02 -0.58541094162E+02  0.55967104950E+02  0.85376154163E+02  0.00000000000E+00 0. -1.
         22    1    3    3    0    0  0.99486955255E+02 -0.26420836222E+02  0.10386762139E+03  0.14623336701E+03  0.00000000000E+00 0. -1.
</event>
<event>
 7    1  0.8278507E-006  0.6109035E+02  0.7818608E-02  0.1424483E+00
          2   -1    0    0  502    0  0.00000000000E+00  0.00000000000E+00  0.54179729977E+03  0.54179729977E+03  0.00000000000E+00 0. -1.
          1   -1    0    0  501    0 -0.00000000000E+00 -0.00000000000E+00 -0.10714130104E+03  0.10714130104E+03  0.00000000000E+00 0. -1.
         25    2    1    2    0    0  0.71885081816E+01  0.92061224150E+02 -0.71611689261E+01  0.15557381975E+03  0.12499994964E+03 0.  0.
          2    1    1    2  501    0 -0.21515755606E+02 -0.46374595826E+02  0.22232878944E+01  0.51171025849E+02  0.00000000000E+00 0. -1.
          1    1    1    2  502    0  0.14327247425E+02 -0.45686628324E+02  0.43959387976E+03  0.44219375522E+03  0.00000000000E+00 0. -1.
         22    1    3    3    0    0  0.77102135907E+01  0.11899899569E+03  0.15650343490E+02  0.12027111715E+03  0.00000000000E+00 0. -1.
         22    1    3    3    0    0 -0.52170540912E+00 -0.26937771541E+02 -0.22811512416E+02  0.35302702599E+02  0.00000000000E+00 0. -1.
</event>
<event>
 7    1  0.8278507E-006  0.1400789E+03  0.7818608E-02  0.1261113E+00
          2   -1    0    0  502    0  0.00000000000E+00  0.00000000000E+00  0.10815462371E+04  0.10815462371E+04  0.00000000000E+00 0. -1.
          1   -1    0    0  501    0 -0.00000000000E+00 -0.00000000000E+00 -0.10267543485E+04  0.10267543485E+04  0.00000000000E+00 0. -1.
         25    2    1    2    0    0  0.57126426218E+02  0.20915464956E+03  0.19987030292E+03  0.32028612477E+03  0.12500387085E+03 0.  0.
          2    1    1    2  501    0 -0.70411266766E+01 -0.85631535122E+02 -0.95920660418E+03  0.96304706363E+03  0.00000000000E+00 0. -1.
          1    1    1    2  502    0 -0.50085299542E+02 -0.12352311444E+03  0.81412818984E+03  0.82496739725E+03  0.00000000000E+00 0. -1.
         22    1    3    3    0    0  0.49538374955E+02  0.21552152608E+03  0.21081357112E+03  0.30552567906E+03  0.00000000000E+00 0.  1.
         22    1    3    3    0    0  0.75880512629E+01 -0.63668765237E+01 -0.10943268200E+02  0.14760445709E+02  0.00000000000E+00 0.  1.
</event>
<event>
 7    1  0.8278507E-006  0.2141610E+03  0.7818608E-02  0.1222903E+00
          2   -1    0    0  502    0  0.00000000000E+00  0.00000000000E+00  0.19165760643E+04  0.19165760643E+04  0.00000000000E+00 0. -1.
          1   -1    0    0  501    0 -0.00000000000E+00 -0.00000000000E+00 -0.77972722480E+03  0.77972722480E+03  0.00000000000E+00 0. -1.
         25    2    1    2    0    0  0.28174116558E+02 -0.13475882131E+03  0.26492817267E+03  0.32367548092E+03  0.12500063803E+03 0.  0.
          2    1    1    2  501    0 -0.67117453264E+02  0.20776331616E+03 -0.73338287349E+03  0.76519330055E+03  0.00000000000E+00 0. -1.
          1    1    1    2  502    0  0.38943336706E+02 -0.73004494854E+02  0.16053035403E+04  0.16074345076E+04  0.00000000000E+00 0. -1.
         22    1    3    3    0    0  0.64735180642E+02 -0.71558099660E+02  0.81702194133E+02  0.12643754888E+03  0.00000000000E+00 0.  1.
         22    1    3    3    0    0 -0.36561064085E+02 -0.63200721648E+02  0.18322597854E+03  0.19723793204E+03  0.00000000000E+00 0.  1.
</event>
<event>
 7    1  0.8278507E-006  0.1214479E+03  0.7818608E-02  0.1390683E+00
          2   -1    0    0  502    0  0.00000000000E+00  0.00000000000E+00  0.27562896717E+04  0.27562896717E+04  0.00000000000E+00 0. -1.
          1   -1    0    0  501    0 -0.00000000000E+00 -0.00000000000E+00 -0.59795215818E+02  0.59795215818E+02  0.00000000000E+00 0. -1.
         25    2    1    2    0    0  0.11524382306E+03  0.44858114469E+02  0.12925771040E+04  0.13044819284E+04  0.12499657060E+03 0.  0.
          2    1    1    2  501    0 -0.16703613356E+02  0.26569302280E+02 -0.46493766565E+02  0.56094641921E+02  0.00000000000E+00 0. -1.
          1    1    1    2  502    0 -0.98540209706E+02 -0.71427416749E+02  0.14504111185E+04  0.14555083172E+04  0.00000000000E+00 0. -1.
         22    1    3    3    0    0  0.10047513835E+03 -0.25728002550E+02  0.75910012854E+03  0.76615284943E+03  0.00000000000E+00 0. -1.
         22    1    3    3    0    0  0.14768684714E+02  0.70586117019E+02  0.53347697546E+03  0.53832907901E+03  0.00000000000E+00 0. -1.
</event>
<event>
 7    1  0.8278507E-006  0.9674385E+02  0.7818608E-02  0.1335993E+00
          2   -1    0    0  502    0  0.00000000000E+00  0.00000000000E+00  0.13658075299E+04  0.13658075299E+04  0.00000000000E+00 0. -1.
          1   -1    0    0  501    0 -0.00000000000E+00 -0.00000000000E+00 -0.69650865318E+03  0.69650865318E+03  0.00000000000E+00 0. -1.
         25    2    1    2    0    0 -0.25271078255E+02 -0.13401565657E+03 -0.21816564479E+03  0.28604217758E+03  0.12500022075E+03 0.  0.
          2    1    1    2  501    0  0.47623415460E+02  0.40088741251E+02 -0.44046351774E+03  0.44484065387E+03  0.00000000000E+00 0. -1.
          1    1    1    2  502    0 -0.22352337205E+02  0.93926915319E+02  0.13279280393E+04  0.13314333516E+04  0.00000000000E+00 0. -1.
         22    1    3    3    0    0  0.14824478892E+02 -0.14126534563E+03 -0.14965365566E+03  0.20632954151E+03  0.00000000000E+00 0.  1.
         22    1    3    3    0    0 -0.40095557148E+02  0.72496890554E+01 -0.68511989135E+02  0.79712636073E+02  0.00000000000E+00 0.  1.
</event>
<event>
 7    1  0.8278507E-006  0.8962146E+02  0.7818608E-02  0.1447686E+00
          2   -1    0    0  502    0  0.00000000000E+00  0.00000000000E+00  0.34024087641E+03  0.34024087641E+03  0.00000000000E+00 0. -1.
          1   -1    0    0  501    0 -0.00000000000E+00 -0.00000000000E+00 -0.23683359840E+04  0.23683359840E+04  0.00000000000E+00 0. -1.
         25    2    1    2    0    0 -0.69123161663E+02 -0.67864991159E+02 -0.32598199331E+03  0.36231628499E+03  0.12500064761E+03 0.  0.
          2    1    1    2  501    0 -0.98316671821E+01  0.25591587355E+02 -0.20178659460E+04  0.20180521716E+04  0.00000000000E+00 0. -1.
          1    1    1    2  502    0  0.78954828845E+02  0.42273403804E+02  0.31575283170E+03  0.32820840391E+03  0.00000000000E+00 0. -1.
         22    1    3    3    0    0 -0.12219723105E+02 -0.18841875341E+02 -0.26394981875E+03  0.26490346301E+03  0.00000000000E+00 0.  1.
         22    1    3    3    0    0 -0.56903438558E+02 -0.49023115818E+02 -0.62032174562E+02  0.97412821975E+02  0.00000000000E+00 0.  1.
</event>
<event>
 7    1  0.8278507E-006  0.1397797E+03  0.7818608E-02  0.1255710E+00
          2   -1    0    0  502    0  0.00000000000E+00  0.00000000000E+00  0.35773203094E+03  0.35773203094E+03  0.00000000000E+00 0. -1.
          1   -1    0    0  501    0 -0.00000000000E+00 -0.00000000000E+00 -0.85589081477E+03  0.85589081477E+03  0.00000000000E+00 0. -1.
         25    2    1    2    0    0  0.52708294043E+02 -0.11626786002E+02  0.81732278788E+02  0.15880174570E+03  0.12499793049E+03 0.  0.
          2    1    1    2  501    0 -0.14333386436E+03  0.17453721813E+02 -0.80198406102E+03  0.81487892549E+03  0.00000000000E+00 0. -1.
          1    1    1    2  502    0  0.90625570314E+02 -0.58269358110E+01  0.22209299840E+03  0.23994217453E+03  0.00000000000E+00 0. -1.
         22    1    3    3    0    0  0.56804146566E+02 -0.95292311850E+01 -0.16928206266E+02  0.60034002710E+02  0.00000000000E+00 0. -1.
         22    1    3    3    0    0 -0.40958525232E+01 -0.20975548170E+01  0.98660485054E+02  0.98767742990E+02  0.00000000000E+00 0. -1.
</event>
<event>
 7    1  0.8278507E-006  0.3178184E+02  0.7818608E-02  0.1621340E+00
          2   -1    0    0  502    0  0.00000000000E+00  0.00000000000E+00  0.30246115565E+03  0.30246115565E+03  0.00000000000E+00 0. -1.
          1   -1    0    0  501    0 -0.00000000000E+00 -0.00000000000E+00 -0.82462883916E+02  0.82462883916E+02  0.00000000000E+00 0. -1.
         25    2    1    2    0    0  0.12576148535E+02 -0.46832531731E+02  0.59836935491E+02  0.14682361519E+03  0.12500107835E+03 0.  0.
          2    1    1    2  501    0  0.58813191088E+01  0.30473219966E+02 -0.31873994497E+02  0.44487735105E+02  0.00000000000E+00 0. -1.
          1    1    1    2  502    0 -0.18457467644E+02  0.16359311765E+02  0.19203533074E+03  0.19361268927E+03  0.00000000000E+00 0. -1.
         22    1    3    3    0    0  0.14302433360E+02  0.41870288223E+02  0.11175759284E+02  0.45635273983E+02  0.00000000000E+00 0.  1.
         22    1    3    3    0    0 -0.17262848256E+01 -0.88702819954E+02  0.48661176206E+02  0.10118834121E+03  0.00000000000E+00 0.  1.
</event>
<event>
 7    1  0.8278507E-006  0.2310605E+03  0.7818608E-02  0.1171060E+00
          2   -1    0    0  502    0  0.00000000000E+00  0.00000000000E+00  0.18039142707E+04  0.18039142707E+04  0.00000000000E+00 0. -1.
          1   -1    0    0  501    0 -0.00000000000E+00 -0.00000000000E+00 -0.64815718492E+03  0.64815718492E+03  0.00000000000E+00 0. -1.
         25    2    1    2    0    0 -0.11157422391E+03 -0.51350769396E+02 -0.58992130622E+02  0.18490743064E+03  0.12499990989E+03 0.  0.
          2    1    1    2  501    0 -0.12737088898E+03  0.45015691852E+02 -0.50915269751E+03  0.52676961307E+03  0.00000000000E+00 0. -1.
          1    1    1    2  502    0  0.23894511289E+03  0.63350775441E+01  0.17239019139E+04  0.17403944119E+04  0.00000000000E+00 0. -1.
         22    1    3    3    0    0 -0.52262101285E+02  0.15781960408E+02  0.26848232999E+02  0.60837694896E+02  0.00000000000E+00 0. -1.
         22    1    3    3    0    0 -0.59312122626E+02 -0.67132729804E+02 -0.85840363621E+02  0.12406973575E+03  0.00000000000E+00 0. -1.
</event>
<event>
 7    1  0.8278507E-006  0.2940113E+02  0.7818608E-02  0.1647441E+00
          2   -1    0    0  502    0  0.00000000000E+00  0.00000000000E+00  0.11642219584E+04  0.11642219584E+04  0.00000000000E+00 0. -1.
          1   -1    0    0  501    0 -0.00000000000E+00 -0.00000000000E+00 -0.11583888911E+04  0.11583888911E+04  0.00000000000E+00 0. -1.
         25    2    1    2    0    0  0.84033916831E+00  0.89980330415E+01 -0.64417670141E+03  0.65625465135E+03  0.12499949607E+03 0.  0.
          2    1    1    2  501    0  0.90044247849E+01 -0.29718411687E+02 -0.50758509002E+03  0.50853405714E+03  0.00000000000E+00 0. -1.
          1    1    1    2  502    0 -0.98447639533E+01  0.20720378645E+02  0.11575948587E+04  0.11578221411E+04  0.00000000000E+00 0. -1.
         22    1    3    3    0    0 -0.53017637753E+02 -0.24583859085E+02 -0.23348872636E+03  0.24069113273E+03  0.00000000000E+00 0. -1.
         22    1    3    3    0    0  0.53857976921E+02  0.33581892127E+02 -0.41068797505E+03  0.41556351862E+03  0.00000000000E+00 0. -1.
</event>
<event>
 7    1  0.8278507E-006  0.1043659E+03  0.7818608E-02  0.1343481E+00
          2   -1    0    0  502    0  0.00000000000E+00  0.00000000000E+00  0.16985303578E+04  0.16985303578E+04  0.00000000000E+00 0. -1.
          1   -1    0    0  501    0 -0.00000000000E+00 -0.00000000000E+00 -0.38187557550E+03  0.38187557550E+03  0.00000000000E+00 0. -1.
         25    2    1    2    0    0  0.15168433636E+03  0.35091880146E+02  0.19386724559E+03  0.27829721832E+03  0.12500101945E+03 0.  0.
          2    1    1    2  501    0 -0.10165660956E+03 -0.14556703173E+02 -0.33138435438E+03  0.34693162756E+03  0.00000000000E+00 0. -1.
          1    1    1    2  502    0 -0.50027726795E+02 -0.20535176974E+02  0.14541718911E+04  0.14551770874E+04  0.00000000000E+00 0. -1.
         22    1    3    3    0    0  0.10458360832E+03 -0.38410579334E+02  0.12203601958E+03  0.16524495094E+03  0.00000000000E+00 0.  1.
         22    1    3    3    0    0  0.47100728032E+02  0.73502459481E+02  0.71831226013E+02  0.11305226739E+03  0.00000000000E+00 0.  1.
</event>
<event>
 7    1  0.8278507E-006  0.7679557E+02  0.7818608E-02  0.1346707E+00
          2   -1    0    0  502    0  0.00000000000E+00  0.00000000000E+00  0.69611779987E+02  0.69611779987E+02  0.00000000000E+00 0. -1.
          1   -1    0    0  501    0 -0.00000000000E+00 -0.00000000000E+00 -0.13435424185E+04  0.13435424185E+04  0.00000000000E+00 0. -1.
         25    2    1    2    0    0  0.48089154717E+02  0.12515370950E+03 -0.46200495737E+03  0.49703936151E+03  0.12499411368E+03 0.  0.
          2    1    1    2  501    0  0.29097533037E+01 -0.71423712405E+02 -0.83536310815E+03  0.83841596825E+03  0.00000000000E+00 0. -1.
          1    1    1    2  502    0 -0.50998908021E+02 -0.53729997098E+02  0.23437427051E+02  0.77698868680E+02  0.00000000000E+00 0. -1.
         22    1    3    3    0    0  0.26350497433E+02  0.39667621559E+02 -0.35583961034E+03  0.35901211289E+03  0.00000000000E+00 0. -1.
         22    1    3    3    0    0  0.21738657284E+02  0.85486087943E+02 -0.10616534703E+03  0.13802724862E+03  0.00000000000E+00 0. -1.
</event>
<event>
 7    1  0.8278507E-006  0.9536499E+02  0.7818608E-02  0.1427447E+00
          2   -1    0    0  502    0  0.00000000000E+00  0.00000000000E+00  0.89510750865E+03  0.89510750865E+03  0.00000000000E+00 0. -1.
          1   -1    0    0  501    0 -0.00000000000E+00 -0.00000000000E+00 -0.35264866877E+03  0.35264866877E+03  0.00000000000E+00 0. -1.
         25    2    1    2    0    0 -0.42852641624E+02 -0.54751024473E+02  0.46088134107E+03  0.48256760310E+03  0.12500342972E+03 0.  0.
          2    1    1    2  501    0  0.44685410856E+02  0.84681599948E+02 -0.33455002728E+03  0.34798201113E+03  0.00000000000E+00 0. -1.
          1    1    1    2  502    0 -0.18327692321E+01 -0.29930575475E+02  0.41612752610E+03  0.41720656319E+03  0.00000000000E+00 0. -1.
         22    1    3    3    0    0 -0.54913174569E+02  0.25279185929E+02  0.23401071143E+03  0.24169300165E+03  0.00000000000E+00 0. -1.
         22    1    3    3    0    0  0.12060532945E+02 -0.80030210402E+02  0.22687062964E+03  0.24087460145E+03  0.00000000000E+00 0. -1.
</event>
<event>
 7    1  0.8278507E-006  0.1855756E+03  0.7818608E-02  0.1186832E+00
          2   -1    0    0  502    0  0.00000000000E+00  0.00000000000E+00  0.13799771256E+04  0.13799771256E+04  0.00000000000E+00 0. -1.
          1   -1    0    0  501    0 -0.00000000000E+00 -0.00000000000E+00 -0.14491132430E+03  0.14491132430E+03  0.00000000000E+00 0. -1.
         25    2    1    2    0    0  0.14475713843E+03 -0.26597299055E+03  0.54300058569E+03  0.63416969122E+03  0.12500120148E+03 0.  0.
          2    1    1    2  501    0 -0.75472967813E+02  0.11889985275E+03 -0.35479165375E+02  0.14523124674E+03  0.00000000000E+00 0. -1.
          1    1    1    2  502    0 -0.69284170615E+02  0.14707313780E+03  0.72754438097E+03  0.74548751192E+03  0.00000000000E+00 0. -1.
         22    1    3    3    0    0  0.49808483185E+02 -0.20298728779E+03  0.40011606534E+03  0.45141731219E+03  0.00000000000E+00 0. -1.
         22    1    3    3    0    0  0.94948655244E+02 -0.62985702761E+02  0.14288452036E+03  0.18275237903E+03  0.00000000000E+00 0. -1.
</event>
<event>
 7    1  0.8278507E-006  0.1084674E+03  0.7818608E-02  0.1368010E+00
          2   -1    0    0  502    0  0.00000000000E+00  0.00000000000E+00  0.40078736166E+03  0.40078736166E+03  0.00000000000E+00 0. -1.
          1   -1    0    0  501    0 -0.00000000000E+00 -0.00000000000E+00 -0.14986138625E+04  0.14986138625E+04  0.00000000000E+00 0. -1.
         25    2    1    2    0    0 -0.57856065050E+02  0.13718138935E+03 -0.41103039226E+02  0.19869640244E+03  0.12499897064E+03 0.  0.
          2    1    1    2  501    0  0.48064341837E+02 -0.96046392124E+02 -0.13752230821E+04  0.13794106045E+04  0.00000000000E+00 0. -1.
          1    1    1    2  502    0  0.97917232128E+01 -0.41134997230E+02  0.31849962040E+03  0.32129421725E+03  0.00000000000E+00 0. -1.
         22    1    3    3    0    0  0.88605167185E+01  0.45348600787E+01  0.31773656749E+02  0.33296230652E+02  0.00000000000E+00 0.  1.
         22    1    3    3    0    0 -0.66716581769E+02  0.13264652928E+03 -0.72876695975E+02  0.16540017179E+03  0.00000000000E+00 0.  1.
</event>
<event>
 7    1  0.8278507E-006  0.1579748E+03  0.7818608E-02  0.1214770E+00
          2   -1    0    0  502    0  0.00000000000E+00  0.00000000000E+00  0.43578626515E+04  0.43578626515E+04  0.00000000000E+00 0. -1.
          1   -1    0    0  501    0 -0.00000000000E+00 -0.00000000000E+00 -0.36690169306E+02  0.36690169306E+02  0.00000000000E+00 0. -1.
         25    2    1    2    0    0  0.77860559563E+02 -0.13895338396E+03  0.14285045440E+04  0.14427825410E+04  0.12500367456E+03 0.  0.
          2    1    1    2  501    0  0.42714501209E+02  0.15874536169E+03  0.21176376077E+03  0.26808302603E+03  0.00000000000E+00 0. -1.
          1    1    1    2  502    0 -0.12057506077E+03 -0.19791977733E+02  0.26809041774E+04  0.26836872538E+04  0.00000000000E+00 0. -1.
         22    1    3    3    0    0  0.21618242400E+02  0.11755197327E+02  0.59909880215E+02  0.64766710709E+02  0.00000000000E+00 0.  1.
         22    1    3    3    0    0  0.56242317163E+02 -0.15070858129E+03  0.13685946638E+04  0.13780158303E+04  0.00000000000E+00 0.  1.
</event>
<event>
 7    1  0.8278507E-006  0.4063829E+02  0.7818608E-02  0.1549146E+00
          2   -1    0    0  502    0  0.00000000000E+00  0.00000000000E+00  0.40815315768E+02  0.40815315768E+02  0.00000000000E+00 0. -1.
          1   -1    0    0  501    0 -0.00000000000E+00 -0.00000000000E+00 -0.17577537770E+04  0.17577537770E+04  0.00000000000E+00 0. -1.
         25    2    1    2    0    0 -0.40804151558E+02 -0.67942470764E+01 -0.43392636017E+03  0.45346459047E+03  0.12500763247E+03 0.  0.
          2    1    1    2  501    0  0.25082386154E+02  0.32389736349E+02 -0.13063954901E+04  0.13070376420E+04  0.00000000000E+00 0. -1.
          1    1    1    2  502    0  0.15721765404E+02 -0.25595489273E+02  0.23383388957E+02  0.38066860360E+02  0.00000000000E+00 0. -1.
         22    1    3    3    0    0 -0.57757999437E+02 -0.40192150788E+02 -0.38738480702E+03  0.39372374095E+03  0.00000000000E+00 0.  1.
         22    1    3    3    0    0  0.16953847879E+02  0.33397903711E+02 -0.46541553157E+02  0.59740849513E+02  0.00000000000E+00 0.  1.
</event>
<event>
 7    1  0.8278507E-006  0.1255303E+03  0.7818608E-02  0.1296903E+00
          2   -1    0    0  502    0  0.00000000000E+00  0.00000000000E+00  0.49871815681E+03  0.49871815681E+03  0.00000000000E+00 0. -1.
          1   -1    0    0  501    0 -0.00000000000E+00 -0.00000000000E+00 -0.32263039863E+03  0.32263039863E+03  0.00000000000E+00 0. -1.
         25    2    1    2    0    0 -0.10388281820E+03  0.81719311624E+02  0.65822579809E+02  0.19346156921E+03  0.12500032375E+03 0.  0.
          2    1    1    2  501    0  0.46168258304E+02 -0.11798735737E+03 -0.23981823289E+03  0.27122925617E+03  0.00000000000E+00 0. -1.
          1    1    1    2  502    0  0.57714559899E+02  0.36268045742E+02  0.35008341127E+03  0.35665773007E+03  0.00000000000E+00 0. -1.
         22    1    3    3    0    0 -0.88302446785E+02  0.10471490198E+03  0.83609760052E+02  0.16047780152E+03  0.00000000000E+00 0. -1.
         22    1    3    3    0    0 -0.15580371417E+02 -0.22995590360E+02 -0.17787180243E+02  0.32983767682E+02  0.00000000000E+00 0. -1.
</event>
<event>
 7    1  0.8278507E-006  0.1932633E+03  0.7818608E-02  0.1301560E+00
          2   -1    0    0  502    0  0.00000000000E+00  0.00000000000E+00  0.51336821190E+03  0.51336821190E+03  0.00000000000E+00 0. -1.
          1   -1    0    0  501    0 -0.00000000000E+00 -0.00000000000E+00 -0.17856620036E+04  0.17856620036E+04  0.00000000000E+00 0. -1.
         25    2    1    2    0    0  0.77758827768E+01  0.17209869513E+03 -0.51173324402E+03  0.55422846112E+03  0.12497939377E+03 0.  0.
          2    1    1    2  501    0  0.39164052727E+02  0.16277447706E+02 -0.12331562101E+04  0.12338853337E+04  0.00000000000E+00 0. -1.
          1    1    1    2  502    0 -0.46939935504E+02 -0.18837614284E+03  0.47259566241E+03  0.51091642063E+03  0.00000000000E+00 0. -1.
         22    1    3    3    0    0 -0.50810513575E+02  0.35640914896E+02 -0.11619819616E+03  0.13173459642E+03  0.00000000000E+00 0.  1.
         22    1    3    3    0    0  0.58586396352E+02  0.13645778024E+03 -0.39553504786E+03  0.42249386470E+03  0.00000000000E+00 0.  1.
</event>
<event>
 7    1  0.1877012E-005  0.5885737E+02  0.7818608E-02  0.1435945E+00
          2   -1    0    0  502    0  0.00000000000E+00  0.00000000000E+00  0.71119663474E+03  0.71119663474E+03  0.00000000000E+00 0. -1.
          1   -1    0    0  501    0 -0.00000000000E+00 -0.00000000000E+00 -0.13869380324E+04  0.13869380324E+04  0.00000000000E+00 0. -1.
         25    2    1    2    0    0 -0.37100558097E+02  0.16794499672E+02 -0.67805830469E+03  0.69068583404E+03  0.12500140059E+03 0.  0.
          2    1    1    2  501    0  0.21686601569E+02  0.40070100830E+02 -0.70059356148E+03  0.70207354320E+03  0.00000000000E+00 0. -1.
          1    1    1    2  502    0  0.15413956528E+02 -0.56864600502E+02  0.70291046852E+03  0.70537528990E+03  0.00000000000E+00 0. -1.
         22    1    3    3    0    0 -0.82302730424E+02  0.23048025538E+02 -0.41691943232E+03  0.42558990115E+03  0.00000000000E+00 0.  1.
         22    1    3    3    0    0  0.45202172327E+02 -0.62535258658E+01 -0.26113887237E+03  0.26509593289E+03  0.00000000000E+00 0.  1.
</event>
<event>
 7    1  0.8278507E-006  0.1466636E+03  0.7818608E-02  0.1330330E+00
          2   -1    0    0  502    0  0.00000000000E+00  0.00000000000E+00  0.18547816691E+04  0.18547816691E+04  0.00000000000E+00 0. -1.
          1   -1    0    0  501    0 -0.00000000000E+00 -0.00000000000E+00 -0.48586606516E+03  0.48586606516E+03  0.00000000000E+00 0. -1.
         25    2    1    2    0    0 -0.12561383753E+03 -0.26596031371E+02  0.34340628264E+03  0.38734912212E+03  0.12500112953E+03 0.  0.
          2    1    1    2  501    0  0.14700645615E+03 -0.10876486271E+02 -0.45186149726E+03  0.47529781065E+03  0.00000000000E+00 0. -1.
          1    1    1    2  502    0 -0.21392618625E+02  0.37472517642E+02  0.14773708185E+04  0.14780008015E+04  0.00000000000E+00 0. -1.
         22    1    3    3    0    0 -0.11270625515E+03  0.33330852709E+02  0.23718856290E+03  0.26471127680E+03  0.00000000000E+00 0. -1.
         22    1    3    3    0    0 -0.12907582380E+02 -0.59926884080E+02  0.10621771974E+03  0.12263784532E+03  0.00000000000E+00 0. -1.
</event>
<event>
 7    1  0.8278507E-006  0.5326341E+02  0.7818608E-02  0.1496441E+00
          2   -1    0    0  502    0  0.00000000000E+00  0.00000000000E+00  0.17657818802E+04  0.17657818802E+04  0.00000000000E+00 0. -1.
          1   -1    0    0  501    0 -0.00000000000E+00 -0.00000000000E+00 -0.60862855406E+03  0.60862855406E+03  0.00000000000E+00 0. -1.
         25    2    1    2    0    0 -0.38212566777E+02  0.74876887137E+01 -0.48244174884E+02  0.13952948684E+03  0.12499884617E+03 0.  0.
          2    1    1    2  501    0  0.36204572204E+02 -0.39987201717E+02 -0.51317387179E+03  0.51600113375E+03  0.00000000000E+00 0. -1.
          1    1    1    2  502    0  0.20079945732E+01  0.32499513003E+02  0.17185713728E+04  0.17188798137E+04  0.00000000000E+00 0. -1.
         22    1    3    3    0    0 -0.70247240661E+02 -0.34332741635E+02 -0.30809882359E+02  0.84039638383E+02  0.00000000000E+00 0. -1.
         22    1    3    3    0    0  0.32034673884E+02  0.41820430348E+02 -0.17434292525E+02  0.55489848452E+02  0.00000000000E+00 0. -1.
</event>
<event>
 7    1  0.8278507E-006  0.1386878E+03  0.7818608E-02  0.1343903E+00
          2   -1    0    0  502    0  0.00000000000E+00  0.00000000000E+00  0.50856615805E+03  0.50856615805E+03  0.00000000000E+00 0. -1.
          1   -1    0    0  501    0 -0.00000000000E+00 -0.00000000000E+00 -0.51021860703E+03  0.51021860703E+03  0.00000000000E+00 0. -1.
         25    2    1    2    0    0  0.12259224622E+03 -0.18097068219E+02 -0.20723278208E+00  0.17601569071E+03  0.12500047088E+03 0.  0.
          2    1    1    2  501    0  0.17444885548E+02  0.36603004982E+02 -0.40921885213E+03  0.41122277775E+03  0.00000000000E+00 0. -1.
          1    1    1    2  502    0 -0.14003713177E+03 -0.18505936762E+02  0.40777363592E+03  0.43154629662E+03  0.00000000000E+00 0. -1.
         22    1    3    3    0    0  0.12958300253E+02  0.36104798407E+01  0.51243076191E+02  0.52979297538E+02  0.00000000000E+00 0.  1.
         22    1    3    3    0    0  0.10963394597E+03 -0.21707548060E+02 -0.51450308973E+02  0.12303639317E+03  0.00000000000E+00 0.  1.
</event>
<event>
 7    1  0.8278507E-006  0.9452778E+02  0.7818608E-02  0.1380385E+00
          2   -1    0    0  502    0  0.00000000000E+00  0.00000000000E+00  0.85257901461E+03  0.85257901461E+03  0.00000000000E+00 0. -1.
          1   -1    0    0  501    0 -0.00000000000E+00 -0.00000000000E+00 -0.13823738302E+03  0.13823738302E+03  0.00000000000E+00 0. -1.
         25    2    1    2    0    0  0.67507738520E+02 -0.25652077368E+02  0.21330100307E+03  0.25756087464E+03  0.12499984961E+03 0.  0.
          2    1    1    2  501    0  0.39773835445E+01 -0.43642633745E+02 -0.10777980991E+03  0.11634855600E+03  0.00000000000E+00 0. -1.
          1    1    1    2  502    0 -0.71485122065E+02  0.69294711114E+02  0.60882043843E+03  0.61690696698E+03  0.00000000000E+00 0. -1.
         22    1    3    3    0    0  0.32836103312E+02 -0.38985569044E+02  0.21442180933E+03  0.22039690695E+03  0.00000000000E+00 0.  1.
         22    1    3    3    0    0  0.34671635208E+02  0.13333491675E+02 -0.11208062605E+01  0.37163967696E+02  0.00000000000E+00 0.  1.
</event>
<event>
 7    1  0.8278507E-006  0.5964189E+02  0.7818608E-02  0.1443696E+00
          2   -1    0    0  502    0  0.00000000000E+00  0.00000000000E+00  0.10802875654E+04  0.10802875654E+04  0.00000000000E+00 0. -1.
          1   -1    0    0  501    0 -0.00000000000E+00 -0.00000000000E+00 -0.33372303289E+02  0.33372303289E+02  0.00000000000E+00 0. -1.
         25    2    1    2    0    0 -0.19315423051E+02  0.28234619329E+02  0.38158740066E+03  0.40299497462E+03  0.12500290369E+03 0.  0.
          2    1    1    2  501    0 -0.41675040830E+02 -0.79796163566E+01  0.19300631002E+00  0.42432541249E+02  0.00000000000E+00 0. -1.
          1    1    1    2  502    0  0.60990463881E+02 -0.20255002972E+02  0.66513485515E+03  0.66823235282E+03  0.00000000000E+00 0. -1.
         22    1    3    3    0    0 -0.64824264667E+02  0.36355335575E+02  0.30147903536E+03  0.31050524065E+03  0.00000000000E+00 0.  1.
         22    1    3    3    0    0  0.45508841616E+02 -0.81207162461E+01  0.80108365302E+02  0.92489733965E+02  0.00000000000E+00 0.  1.
</event>
<event>
 7    1  0.8278507E-006  0.3582004E+02  0.7818608E-02  0.1546466E+00
          2   -1    0    0  502    0  0.00000000000E+00  0.00000000000E+00  0.77550600427E+02  0.77550600427E+02  0.00000000000E+00 0. -1.
          1   -1    0    0  501    0 -0.00000000000E+00 -0.00000000000E+00 -0.15335273104E+04  0.15335273104E+04  0.00000000000E+00 0. -1.
         25    2    1    2    0    0  0.32190391786E+02 -0.35491969539E+02 -0.10914094907E+04  0.10995888256E+04  0.12500003099E+03 0.  0.
          2    1    1    2  501    0  0.24810872293E+01  0.35747150992E+02 -0.43315550217E+03  0.43463513855E+03  0.00000000000E+00 0. -1.
          1    1    1    2  502    0 -0.34671479015E+02 -0.25518145309E+00  0.68588282886E+02  0.76853946703E+02  0.00000000000E+00 0. -1.
         22    1    3    3    0    0 -0.46094915172E+02  0.38443995365E+01 -0.37455271242E+03  0.37739800608E+03  0.00000000000E+00 0.  1.
         22    1    3    3    0    0  0.78285306958E+02 -0.39336369075E+02 -0.71685677831E+03  0.72219081954E+03  0.00000000000E+00 0.  1.
</event>
<event>
 7    1  0.8278507E-006  0.9858905E+02  0.7818608E-02  0.1439544E+00
          2   -1    0    0  502    0  0.00000000000E+00  0.00000000000E+00  0.12420269369E+04  0.12420269369E+04  0.00000000000E+00 0. -1.
          1   -1    0    0  501    0 -0.00000000000E+00 -0.00000000000E+00 -0.45070513549E+03  0.45070513549E+03  0.00000000000E+00 0. -1.
         25    2    1    2    0    0  0.11371000004E+03  0.13668841194E+02  0.84208513369E+03  0.85898150066E+03  0.12500017905E+03 0.  0.
          2    1    1    2  501    0 -0.93550555857E+02 -0.30832806521E+02 -0.43631272456E+03  0.44729315004E+03  0.00000000000E+00 0. -1.
          1    1    1    2  502    0 -0.20159444183E+02  0.17163965327E+02  0.38554939227E+03  0.38645742169E+03  0.00000000000E+00 0. -1.
         22    1    3    3    0    0  0.71677032018E+02 -0.50107985925E+02  0.55778384924E+03  0.56459829051E+03  0.00000000000E+00 0.  1.
         22    1    3    3    0    0  0.42032968022E+02  0.63776827119E+02  0.28430128445E+03  0.29438321015E+03  0.00000000000E+00 0.  1.
</event>
<event>
 7    1  0.8278507E-006  0.1254635E+03  0.7818608E-02  0.1416442E+00
          2   -1    0    0  502    0  0.00000000000E+00  0.00000000000E+00  0.19084989487E+03  0.19084989487E+03  0.00000000000E+00 0. -1.
          1   -1    0    0  501    0 -0.00000000000E+00 -0.00000000000E+00 -0.14292042412E+04  0.14292042412E+04  0.00000000000E+00 0. -1.
         25    2    1    2    0    0  0.22364013948E+02  0.98692834112E+02 -0.11598756952E+04  0.11709728542E+04  0.12500148898E+03 0.  0.
          2    1    1    2  501    0  0.76799339151E+01  0.23580932913E+02 -0.24168310123E+03  0.24295218295E+03  0.00000000000E+00 0. -1.
          1    1    1    2  502    0 -0.30043947863E+02 -0.12227376702E+03  0.16320445010E+03  0.20612909896E+03  0.00000000000E+00 0. -1.
         22    1    3    3    0    0 -0.37378888525E+02 -0.11675779388E+01 -0.15818085450E+03  0.16254146325E+03  0.00000000000E+00 0.  1.
         22    1    3    3    0    0  0.59742902473E+02  0.99860412050E+02 -0.10016948407E+04  0.10084313909E+04  0.00000000000E+00 0.  1.
</event>
<event>
 7    1  0.8278507E-006  0.3639169E+02  0.7818608E-02  0.1622085E+00
          2   -1    0    0  502    0  0.00000000000E+00  0.00000000000E+00  0.93516488858E+03  0.93516488858E+03  0.00000000000E+00 0. -1.
          1   -1    0    0  501    0 -0.00000000000E+00 -0.00000000000E+00 -0.10031193208E+04  0.10031193208E+04  0.00000000000E+00 0. -1.
         25    2    1    2    0    0 -0.38540170429E+02 -0.56837481120E+00  0.80608990834E+03  0.81663423876E+03  0.12499948720E+03 0.  0.
          2    1    1    2  501    0  0.67991662898E+01  0.20339526632E+02 -0.99490513606E+03  0.99513624935E+03  0.00000000000E+00 0. -1.
          1    1    1    2  502    0  0.31741004139E+02 -0.19771151821E+02  0.12086079549E+03  0.12651372129E+03  0.00000000000E+00 0. -1.
         22    1    3    3    0    0  0.11273505863E+02  0.23319169072E+02  0.65904745202E+03  0.65955622929E+03  0.00000000000E+00 0.  1.
         22    1    3    3    0    0 -0.49813676292E+02 -0.23887543883E+02  0.14704245632E+03  0.15707800947E+03  0.00000000000E+00 0.  1.
</event>
<event>
 7    1  0.8278507E-006  0.4254064E+02  0.7818608E-02  0.1511748E+00
          2   -1    0    0  502    0  0.00000000000E+00  0.00000000000E+00  0.80455026720E+02  0.80455026720E+02  0.00000000000E+00 0. -1.
          1   -1    0    0  501    0 -0.00000000000E+00 -0.00000000000E+00 -0.27402741066E+03  0.27402741066E+03  0.00000000000E+00 0. -1.
         25    2    1    2    0    0 -0.35217376936E+02  0.39459500487E+02 -0.10205676522E+02  0.13611278673E+03  0.12500087624E+03 0.  0.
          2    1    1    2  501    0 -0.13627151287E+01 -0.42665623868E+02 -0.17576024331E+03  0.18086977520E+03  0.00000000000E+00 0. -1.
          1    1    1    2  502    0  0.36580092065E+02  0.32061233805E+01 -0.76064641056E+01  0.37499875450E+02  0.00000000000E+00 0. -1.
         22    1    3    3    0    0 -0.59488718433E+02  0.66850463387E+02 -0.30155480127E+02  0.94431165712E+02  0.00000000000E+00 0.  1.
         22    1    3    3    0    0  0.24271341497E+02 -0.27390962900E+02  0.19949803605E+02  0.41681621016E+02  0.00000000000E+00 0.  1.
</event>
<event>
 7    1  0.8278507E-006  0.5387543E+02  0.7818608E-02  0.1559351E+00
          2   -1    0    0  502    0  0.00000000000E+00  0.00000000000E+00  0.10376241143E+03  0.10376241143E+03  0.00000000000E+00 0. -1.
          1   -1    0    0  501    0 -0.00000000000E+00 -0.00000000000E+00 -0.14684268358E+04  0.14684268358E+04  0.00000000000E+00 0. -1.
         25    2    1    2    0    0  0.17874855075E+02  0.31443735180E+02 -0.69929102017E+02  0.14772452611E+03  0.12499694949E+03 0.  0.
          2    1    1    2  501    0 -0.13956605402E+02 -0.52307344770E+02 -0.13573089824E+04  0.13583882063E+04  0.00000000000E+00 0. -1.
          1    1    1    2  502    0 -0.39182496730E+01  0.20863609589E+02  0.62573660047E+02  0.66076514869E+02  0.00000000000E+00 0. -1.
         22    1    3    3    0    0  0.55898936283E+02  0.36208452496E+02  0.15516680980E+01  0.66619447488E+02  0.00000000000E+00 0. -1.
         22    1    3    3    0    0 -0.38024081208E+02 -0.47647173152E+01 -0.71480770115E+02  0.81105078627E+02  0.00000000000E+00 0. -1.
</event>
<event>
 7    1  0.8278507E-006  0.1205818E+03  0.7818608E-02  0.1436030E+00
          2   -1    0    0  502    0  0.00000000000E+00  0.00000000000E+00  0.60278914007E+03  0.60278914007E+03  0.00000000000E+00 0. -1.
          1   -1    0    0  501    0 -0.00000000000E+00 -0.00000000000E+00 -0.16800143090E+03  0.16800143090E+03  0.00000000000E+00 0. -1.
         25    2    1    2    0    0 -0.39783421332E+02 -0.10421266515E+03  0.49993524155E+02  0.17483509275E+03  0.12499982804E+03 0.  0.
          2    1    1    2  501    0  0.61787206815E+02  0.10734292120E+03 -0.68891456244E+02  0.14172577183E+03  0.00000000000E+00 0. -1.
          1    1    1    2  502    0 -0.22003785483E+02 -0.31302560478E+01  0.45368564126E+03  0.45422970639E+03  0.00000000000E+00 0. -1.
         22    1    3    3    0    0 -0.57854458551E+02 -0.20248164140E+02 -0.19534434976E+02  0.64332889529E+02  0.00000000000E+00 0.  1.
         22    1    3    3    0    0  0.18071037220E+02 -0.83964501008E+02  0.69527959131E+02  0.11050220322E+03  0.00000000000E+00 0.  1.
</event>
<event>
 7    1  0.8278507E-006  0.2736862E+03  0.7818608E-02  0.1101250E+00
          2   -1    0    0  502    0  0.00000000000E+00  0.00000000000E+00  0.17513595442E+04  0.17513595442E+04  0.00000000000E+00 0. -1.
          1   -1    0    0  501    0 -0.00000000000E+00 -0.00000000000E+00 -0.38569411158E+03  0.38569411158E+03  0.00000000000E+00 0. -1.
         25    2    1    2    0    0  0.12899475084E+03 -0.57731155377E+02  0.52307931915E+01  0.18874528183E+03  0.12499955268E+03 0.  0.
          2    1    1    2  501    0  0.91371794995E+02  0.25798319039E+03 -0.21308932864E+03  0.34685903971E+03  0.00000000000E+00 0. -1.
          1    1    1    2  502    0 -0.22036654583E+03 -0.20025203502E+03  0.15735239681E+04  0.16014493343E+04  0.00000000000E+00 0. -1.
         22    1    3    3    0    0  0.10521815962E+03 -0.21137781915E+02 -0.49965540081E+02  0.11838167989E+03  0.00000000000E+00 0.  1.
         22    1    3    3    0    0  0.23776591218E+02 -0.36593373462E+02  0.55196333272E+02  0.70363601940E+02  0.00000000000E+00 0.  1.
</event>
<event>
 7    1  0.8278507E-006  0.1743948E+03  0.7818608E-02  0.1189905E+00
          2   -1    0    0  502    0  0.00000000000E+00  0.00000000000E+00  0.12439374258E+04  0.12439374258E+04  0.00000000000E+00 0. -1.
          1   -1    0    0  501    0 -0.00000000000E+00 -0.00000000000E+00 -0.68367538756E+03  0.68367538756E+03  0.00000000000E+00 0. -1.
         25    2    1    2    0    0 -0.61757571759E+02  0.28432627414E+03 -0.29083904208E+03  0.42996299866E+03  0.12500161590E+03 0.  0.
          2    1    1    2  501    0  0.36105840625E+02 -0.14177068642E+03 -0.30195670420E+03  0.33553004406E+03  0.00000000000E+00 0. -1.
          1    1    1    2  502    0  0.25651731134E+02 -0.14255558773E+03  0.11530577845E+04  0.11621197707E+04  0.00000000000E+00 0. -1.
         22    1    3    3    0    0 -0.64277791757E+02  0.29040301368E+03 -0.24984117404E+03  0.38844067386E+03  0.00000000000E+00 0.  1.
         22    1    3    3    0    0  0.25202199981E+01 -0.60767395351E+01 -0.40997868044E+02  0.41522324794E+02  0.00000000000E+00 0.  1.
</event>
<event>
 7    1  0.8278507E-006  0.1366423E+03  0.7818608E-02  0.1218917E+00
          2   -1    0    0  502    0  0.00000000000E+00  0.00000000000E+00  0.20376875990E+03  0.20376875990E+03  0.00000000000E+00 0. -1.
          1   -1    0    0  501    0 -0.00000000000E+00 -0.00000000000E+00 -0.57831084827E+03  0.57831084827E+03  0.00000000000E+00 0. -1.
         25    2    1    2    0    0  0.35120506967E+02 -0.98992895041E+02 -0.57062013020E+02  0.17295777232E+03  0.12500109759E+03 0.  0.
          2    1    1    2  501    0  0.12473519541E+03  0.52195444807E+02 -0.40071823803E+03  0.42291646897E+03  0.00000000000E+00 0. -1.
          1    1    1    2  502    0 -0.15985570238E+03  0.46797450234E+02  0.83238162678E+02  0.18620536688E+03  0.00000000000E+00 0. -1.
         22    1    3    3    0    0  0.61519007314E+02 -0.11435586515E+03 -0.32749449602E+02  0.13391929885E+03  0.00000000000E+00 0. -1.
         22    1    3    3    0    0 -0.26398500347E+02  0.15362970107E+02 -0.24312563419E+02  0.39038473473E+02  0.00000000000E+00 0. -1.
</event>
<event>
 7    1  0.8278507E-006  0.1916566E+03  0.7818608E-02  0.1328281E+00
          2   -1    0    0  502    0  0.00000000000E+00  0.00000000000E+00  0.29380731099E+03  0.29380731099E+03  0.00000000000E+00 0. -1.
          1   -1    0    0  501    0 -0.00000000000E+00 -0.00000000000E+00 -0.93235528092E+03  0.93235528092E+03  0.00000000000E+00 0. -1.
         25    2    1    2    0    0 -0.15844010797E+03  0.12506516606E+03 -0.54290830137E+03  0.59254497962E+03  0.12496225670E+03 0.  0.
          2    1    1    2  501    0  0.15869576834E+03 -0.91445638081E+02 -0.34040625476E+03  0.38655280350E+03  0.00000000000E+00 0. -1.
          1    1    1    2  502    0 -0.25566036615E+00 -0.33619527982E+02  0.24476658620E+03  0.24706480879E+03  0.00000000000E+00 0. -1.
         22    1    3    3    0    0 -0.15255861970E+03  0.47747506798E+02 -0.36751546951E+03  0.40077621833E+03  0.00000000000E+00 0. -1.
         22    1    3    3    0    0 -0.58814882700E+01  0.77317659265E+02 -0.17539283186E+03  0.19176876129E+03  0.00000000000E+00 0. -1.
</event>
<event>
 7    1  0.8278507E-006  0.9645896E+02  0.7818608E-02  0.1394655E+00
          2   -1    0    0  502    0  0.00000000000E+00  0.00000000000E+00  0.17264466001E+04  0.17264466001E+04  0.00000000000E+00 0. -1.
          1   -1    0    0  501    0 -0.00000000000E+00 -0.00000000000E+00 -0.41779085549E+02  0.41779085549E+02  0.00000000000E+00 0. -1.
         25    2    1    2    0    0 -0.68389088055E+02 -0.19475738133E+02  0.53503224772E+03  0.55402261526E+03  0.12500072151E+03 0.  0.
          2    1    1    2  501    0 -0.20638535761E+02 -0.32237065364E+02 -0.17816026266E+02  0.42220709771E+02  0.00000000000E+00 0. -1.
          1    1    1    2  502    0  0.89027623816E+02  0.51712803497E+02  0.11674512931E+04  0.11719823606E+04  0.00000000000E+00 0. -1.
         22    1    3    3    0    0 -0.43413190837E+02 -0.89812669200E+01  0.52214289276E+03  0.52402153463E+03  0.00000000000E+00 0. -1.
         22    1    3    3    0    0 -0.24975897217E+02 -0.10494471213E+02  0.12889354961E+02  0.30001080633E+02  0.00000000000E+00 0. -1.
</event>
<event>
 7    1  0.8278507E-006  0.7544295E+02  0.7818608E-02  0.1409844E+00
          2   -1    0    0  502    0  0.00000000000E+00  0.00000000000E+00  0.19196921326E+04  0.19196921326E+04  0.00000000000E+00 0. -1.
          1   -1    0    0  501    0 -0.00000000000E+00 -0.00000000000E+00 -0.12164006354E+04  0.12164006354E+04  0.00000000000E+00 0. -1.
         25    2    1    2    0    0 -0.19020021714E+02  0.39821601439E+02 -0.20446490882E+02  0.13413056941E+03  0.12500171796E+03 0.  0.
          2    1    1    2  501    0 -0.47929219318E+01 -0.76119559160E+02 -0.11375820422E+04  0.11401359841E+04  0.00000000000E+00 0. -1.
          1    1    1    2  502    0  0.23812943645E+02  0.36297957721E+02  0.18613200303E+04  0.18618262145E+04  0.00000000000E+00 0. -1.
         22    1    3    3    0    0 -0.60587303427E+02 -0.85099620003E+01  0.12388102111E+02  0.62423600214E+02  0.00000000000E+00 0. -1.
         22    1    3    3    0    0  0.41567281713E+02  0.48331563439E+02 -0.32834592993E+02  0.71706969191E+02  0.00000000000E+00 0. -1.
</event>
<event>
 7    1  0.8278507E-006  0.4672194E+02  0.7818608E-02  0.1548539E+00
          2   -1    0    0  502    0  0.00000000000E+00  0.00000000000E+00  0.20858724942E+03  0.20858724942E+03  0.00000000000E+00 0. -1.
          1   -1    0    0  501    0 -0.00000000000E+00 -0.00000000000E+00 -0.28382267015E+03  0.28382267015E+03  0.00000000000E+00 0. -1.
         25    2    1    2    0    0 -0.18433555987E+02  0.55249652196E+02 -0.22005462551E+03  0.25969584605E+03  0.12500229674E+03 0.  0.
          2    1    1    2  501    0 -0.42301217709E+01 -0.42045966929E+02 -0.32596870651E+02  0.53369590981E+02  0.00000000000E+00 0. -1.
          1    1    1    2  502    0  0.22663677758E+02 -0.13203685268E+02  0.17741607544E+03  0.17934448254E+03  0.00000000000E+00 0. -1.
         22    1    3    3    0    0  0.42114535637E+02 -0.10415112071E+02 -0.41447747096E+02  0.60000203422E+02  0.00000000000E+00 0. -1.
         22    1    3    3    0    0 -0.60548091623E+02  0.65664764267E+02 -0.17860687842E+03  0.19969564263E+03  0.00000000000E+00 0. -1.
</event>
<event>
 7    1  0.8278507E-006  0.5460033E+02  0.7818608E-02  0.1528159E+00
          2   -1    0    0  502    0  0.00000000000E+00  0.00000000000E+00  0.23448067243E+03  0.23448067243E+03  0.00000000000E+00 0. -1.
          1   -1    0    0  501    0 -0.00000000000E+00 -0.00000000000E+00 -0.12993741836E+04  0.12993741836E+04  0.00000000000E+00 0. -1.
         25    2    1    2    0    0  0.11886863495E+02  0.52417503389E+02 -0.26695172264E+03  0.29962752749E+03  0.12499816327E+03 0.  0.
          2    1    1    2  501    0  0.13738844987E+02 -0.53152500997E+02 -0.10145866809E+04  0.10160709017E+04  0.00000000000E+00 0. -1.
          1    1    1    2  502    0 -0.25625708482E+02  0.73499760811E+00  0.21664489240E+03  0.21815642681E+03  0.00000000000E+00 0. -1.
         22    1    3    3    0    0  0.44040160305E+02 -0.26116621058E+02 -0.99882728618E+02  0.11224158361E+03  0.00000000000E+00 0.  1.
         22    1    3    3    0    0 -0.32153296809E+02  0.78534124447E+02 -0.16706899402E+03  0.18738594388E+03  0.00000000000E+00 0.  1.
</event>
<event>
 7    1  0.8278507E-006  0.6363579E+02  0.7818608E-02  0.1485025E+00
          2   -1    0    0  502    0  0.00000000000E+00  0.00000000000E+00  0.12948400637E+04  0.12948400637E+04  0.00000000000E+00 0. -1.
          1   -1    0    0  501    0 -0.00000000000E+00 -0.00000000000E+00 -0.61913547180E+02  0.61913547180E+02  0.00000000000E+00 0. -1.
         25    2    1    2    0    0 -0.73320650506E+02  0.28221786341E+02  0.25730906014E+03  0.29665586849E+03  0.12499745945E+03 0.  0.
          2    1    1    2  501    0  0.62748764924E+02 -0.67277157728E+00 -0.18593452691E+02  0.65449038221E+02  0.00000000000E+00 0. -1.
          1    1    1    2  502    0  0.10571885581E+02 -0.27549014764E+02  0.99421090902E+03  0.99464870412E+03  0.00000000000E+00 0. -1.
         22    1    3    3    0    0 -0.37396153532E+01 -0.28456726579E+02  0.53559965520E+01  0.29196861298E+02  0.00000000000E+00 0.  1.
         22    1    3    3    0    0 -0.69581035152E+02  0.56678512920E+02  0.25195306359E+03  0.26745900720E+03  0.00000000000E+00 0.  1.
</event>
<event>
 7    1  0.8278507E-006  0.5239041E+02  0.7818608E-02  0.1535791E+00
          2   -1    0    0  502    0  0.00000000000E+00  0.00000000000E+00  0.31507223246E+04  0.31507223246E+04  0.00000000000E+00 0. -1.
          1   -1    0    0  501    0 -0.00000000000E+00 -0.00000000000E+00 -0.16101038518E+03  0.16101038518E+03  0.00000000000E+00 0. -1.
         25    2    1    2    0    0 -0.53671989311E+01 -0.43402175775E+02  0.62797284907E+03  0.64178538734E+03  0.12500411413E+03 0.  0.
          2    1    1    2  501    0  0.24719097720E+02 -0.58815206660E+01 -0.15277614359E+03  0.15487471107E+03  0.00000000000E+00 0. -1.
          1    1    1    2  502    0 -0.19351898789E+02  0.49283696441E+02  0.25145152339E+04  0.25150726113E+04  0.00000000000E+00 0. -1.
         22    1    3    3    0    0  0.27016631183E+02  0.77710325868E+00  0.52009831254E+03  0.52080011228E+03  0.00000000000E+00 0. -1.
         22    1    3    3    0    0 -0.32383830114E+02 -0.44179279033E+02  0.10787453653E+03  0.12098527506E+03  0.00000000000E+00 0. -1.
</event>
<event>
 7    1  0.8278507E-006  0.7781328E+02  0.7818608E-02  0.1443554E+00
          2   -1    0    0  502    0  0.00000000000E+00  0.00000000000E+00  0.55399092742E+02  0.55399092742E+02  0.00000000000E+00 0. -1.
          1   -1    0    0  501    0 -0.00000000000E+00 -0.00000000000E+00 -0.14514680325E+04  0.14514680325E+04  0.00000000000E+00 0. -1.
         25    2    1    2    0    0 -0.22218980350E+02 -0.68498422011E+02 -0.10238398653E+04  0.10339537375E+04  0.12500617826E+03 0.  0.
          2    1    1    2  501    0  0.31243552639E+02 -0.91561096220E+01 -0.39113091442E+03  0.39248361257E+03  0.00000000000E+00 0. -1.
          1    1    1    2  502    0 -0.90245722892E+01  0.77654531633E+02  0.18901839921E+02  0.80429775211E+02  0.00000000000E+00 0. -1.
         22    1    3    3    0    0 -0.44990928057E+02 -0.68308628318E+02 -0.33873320834E+03  0.34846870554E+03  0.00000000000E+00 0. -1.
         22    1    3    3    0    0  0.22771947707E+02 -0.18979369331E+00 -0.68510665695E+03  0.68548503194E+03  0.00000000000E+00 0. -1.
</event>
<event>
 7    1  0.8278507E-006  0.2996447E+02  0.7818608E-02  0.1624919E+00
          2   -1    0    0  502    0  0.00000000000E+00  0.00000000000E+00  0.43013042897E+03  0.43013042897E+03  0.00000000000E+00 0. -1.
          1   -1    0    0  501    0 -0.00000000000E+00 -0.00000000000E+00 -0.99357959413E+03  0.99357959413E+03  0.00000000000E+00 0. -1.
         25    2    1    2    0    0  0.16504976440E+02  0.30636951215E+02  0.14389278496E+03  0.19375590895E+03  0.12500072665E+03 0.  0.
          2    1    1    2  501    0 -0.28834339825E+02 -0.81804958449E+01 -0.96778756078E+03  0.96825156982E+03  0.00000000000E+00 0. -1.
          1    1    1    2  502    0  0.12329363385E+02 -0.22456455371E+02  0.26044561067E+03  0.26170254432E+03  0.00000000000E+00 0. -1.
         22    1    3    3    0    0  0.42023319309E+02  0.69592972346E+02  0.10678671618E+03  0.13421081893E+03  0.00000000000E+00 0.  1.
         22    1    3    3    0    0 -0.25518342869E+02 -0.38956021130E+02  0.37106068777E+02  0.59545090017E+02  0.00000000000E+00 0.  1.
</event>
<event>
 7    1  0.8278507E-006  0.1639721E+03  0.7818608E-02  0.1237953E+00
          2   -1    0    0  502    0  0.00000000000E+00  0.00000000000E+00  0.14508952612E+04  0.14508952612E+04  0.00000000000E+00 0. -1.
          1   -1    0    0  501    0 -0.00000000000E+00 -0.00000000000E+00 -0.16916094202E+04  0.16916094202E+04  0.00000000000E+00 0. -1.
         25    2    1    2    0    0 -0.31609734329E+02  0.24433400842E+03  0.45512854415E+01  0.27630629709E+03  0.12500469047E+03 0.  0.
          2    1    1    2  501    0 -0.17419161470E+02 -0.90870944451E+02 -0.15493951529E+04  0.15521553709E+04  0.00000000000E+00 0. -1.
          1    1    1    2  502    0  0.49028895799E+02 -0.15346306397E+03  0.13041297084E+04  0.13140430133E+04  0.00000000000E+00 0. -1.
         22    1    3    3    0    0 -0.45560505722E+02  0.20109760620E+03  0.49866895051E+02  0.21213843151E+03  0.00000000000E+00 0.  1.
         22    1    3    3    0    0  0.13950771392E+02  0.43236402224E+02 -0.45315609610E+02  0.64167865587E+02  0.00000000000E+00 0.  1.
</event>
<event>
 7    1  0.8278507E-006  0.3941798E+03  0.7818608E-02  0.1139372E+00
          2   -1    0    0  502    0  0.00000000000E+00  0.00000000000E+00  0.21459640007E+04  0.21459640007E+04  0.00000000000E+00 0. -1.
          1   -1    0    0  501    0 -0.00000000000E+00 -0.00000000000E+00 -0.12778643881E+04  0.12778643881E+04  0.00000000000E+00 0. -1.
         25    2    1    2    0    0  0.29621312568E+03 -0.18850355721E+03  0.51291259596E+03  0.63401873334E+03  0.12499846491E+03 0.  0.
          2    1    1    2  501    0 -0.26250361086E+03  0.29832126052E+03 -0.11826831302E+04  0.12476550432E+04  0.00000000000E+00 0. -1.
          1    1    1    2  502    0 -0.33709514817E+02 -0.10981770331E+03  0.15378701469E+04  0.15421546122E+04  0.00000000000E+00 0. -1.
         22    1    3    3    0    0  0.12948851185E+03 -0.70788753018E+02  0.11600115213E+03  0.18770878922E+03  0.00000000000E+00 0. -1.
         22    1    3    3    0    0  0.16672461384E+03 -0.11771480419E+03  0.39691144382E+03  0.44630994412E+03  0.00000000000E+00 0. -1.
</event>
<event>
 7    1  0.8278507E-006  0.2728493E+03  0.7818608E-02  0.1176727E+00
          2   -1    0    0  502    0  0.00000000000E+00  0.00000000000E+00  0.13596377471E+04  0.13596377471E+04  0.00000000000E+00 0. -1.
          1   -1    0    0  501    0 -0.00000000000E+00 -0.00000000000E+00 -0.13830443673E+04  0.13830443673E+04  0.00000000000E+00 0. -1.
         25    2    1    2    0    0 -0.28748662271E+03 -0.20401836764E+03  0.31665312210E+03  0.49006801317E+03  0.12500162090E+03 0.  0.
          2    1    1    2  501    0  0.10494270884E+03  0.22215733718E+02 -0.12766944787E+04  0.12811929218E+04  0.00000000000E+00 0. -1.
          1    1    1    2  502    0  0.18254391387E+03  0.18180263392E+03  0.93663473647E+03  0.97142117938E+03  0.00000000000E+00 0. -1.
         22    1    3    3    0    0 -0.25950590941E+03 -0.22099440605E+03  0.28181724506E+03  0.44227005792E+03  0.00000000000E+00 0.  1.
         22    1    3    3    0    0 -0.27980713293E+02  0.16976038406E+02  0.34835877041E+02  0.47797955245E+02  0.00000000000E+00 0.  1.
</event>
<event>
 7    1  0.8278507E-006  0.1207765E+03  0.7818608E-02  0.1401475E+00
          2   -1    0    0  502    0  0.00000000000E+00  0.00000000000E+00  0.82403673356E+02  0.82403673356E+02  0.00000000000E+00 0. -1.
          1   -1    0    0  501    0 -0.00000000000E+00 -0.00000000000E+00 -0.49331239190E+03  0.49331239190E+03  0.00000000000E+00 0. -1.
         25    2    1    2    0    0  0.26713000426E+02  0.94305860046E+02 -0.43021017493E+02  0.16455658185E+03  0.12498352312E+03 0.  0.
          2    1    1    2  501    0 -0.45819624121E+02 -0.11606741815E+03 -0.36019294602E+03  0.38119554283E+03  0.00000000000E+00 0. -1.
          1    1    1    2  502    0  0.19106623695E+02  0.21761558106E+02 -0.76947550334E+01  0.29963940583E+02  0.00000000000E+00 0. -1.
         22    1    3    3    0    0 -0.21986278309E+01  0.41557422545E+02 -0.82641609992E+02  0.92528314775E+02  0.00000000000E+00 0. -1.
         22    1    3    3    0    0  0.28911628257E+02  0.52748437501E+02  0.39620592499E+02  0.72028267071E+02  0.00000000000E+00 0. -1.
</event>
<event>
 7    1  0.8278507E-006  0.9364066E+02  0.7818608E-02  0.1338933E+00
          2   -1    0    0  502    0  0.00000000000E+00  0.00000000000E+00  0.24031213627E+04  0.24031213627E+04  0.00000000000E+00 0. -1.
          1   -1    0    0  501    0 -0.00000000000E+00 -0.00000000000E+00 -0.48209551898E+03  0.48209551898E+03  0.00000000000E+00 0. -1.
         25    2    1    2    0    0  0.36963977939E+02 -0.31994093389E+02  0.18792120613E+03  0.23093065054E+03  0.12499851186E+03 0.  0.
          2    1    1    2  501    0 -0.13191838300E+02 -0.61285657393E+02 -0.45739574719E+03  0.46167177296E+03  0.00000000000E+00 0. -1.
          1    1    1    2  502    0 -0.23772139638E+02  0.93279750782E+02  0.21905003848E+04  0.21926144582E+04  0.00000000000E+00 0. -1.
         22    1    3    3    0    0 -0.45747930553E+02 -0.21616832907E+02  0.64102666327E+02  0.81665858503E+02  0.00000000000E+00 0. -1.
         22    1    3    3    0    0  0.82711908491E+02 -0.10377260481E+02  0.12381853981E+03  0.14926479203E+03  0.00000000000E+00 0. -1.
</event>
<event>
 7    1  0.8278507E-006  0.2305623E+03  0.7818608E-02  0.1306853E+00
          2   -1    0    0  502    0  0.00000000000E+00  0.00000000000E+00  0.13027672161E+04  0.13027672161E+04  0.00000000000E+00 0. -1.
          1   -1    0    0  501    0 -0.00000000000E+00 -0.00000000000E+00 -0.12172137406E+03  0.12172137406E+03  0.00000000000E+00 0. -1.
         25    2    1    2    0    0 -0.21722584988E+03 -0.30217464257E+02  0.60679753688E+03  0.65721240172E+03  0.12499890083E+03 0.  0.
          2    1    1    2  501    0 -0.23652468992E+02  0.24241613287E+02 -0.70914217677E+02  0.78587030565E+02  0.00000000000E+00 0. -1.
          1    1    1    2  502    0  0.24087831888E+03  0.59758509698E+01  0.64516252286E+03  0.68868915790E+03  0.00000000000E+00 0. -1.
         22    1    3    3    0    0 -0.49881630267E+01  0.30383938414E+02  0.57430927676E+02  0.65164230508E+02  0.00000000000E+00 0.  1.
         22    1    3    3    0    0 -0.21223768686E+03 -0.60601402671E+02  0.54936660920E+03  0.59204817121E+03  0.00000000000E+00 0.  1.
</event>
<event>
 7    1  0.8278507E-006  0.9242708E+02  0.7818608E-02  0.1364763E+00
          2   -1    0    0  502    0  0.00000000000E+00  0.00000000000E+00  0.14113192853E+04  0.14113192853E+04  0.00000000000E+00 0. -1.
          1   -1    0    0  501    0 -0.00000000000E+00 -0.00000000000E+00 -0.56572877672E+02  0.56572877672E+02  0.00000000000E+00 0. -1.
         25    2    1    2    0    0 -0.10793687875E+03  0.57649174996E+02  0.16896987946E+03  0.24320728977E+03  0.12500067384E+03 0.  0.
          2    1    1    2  501    0  0.79760385765E+02 -0.15160956441E+02  0.68442312869E+02  0.10618815343E+03  0.00000000000E+00 0. -1.
          1    1    1    2  502    0  0.28176492980E+02 -0.42488218555E+02  0.11173342152E+04  0.11184967197E+04  0.00000000000E+00 0. -1.
         22    1    3    3    0    0 -0.13093394262E+03  0.59461257331E+02  0.16650536231E+03  0.22000766835E+03  0.00000000000E+00 0.  1.
         22    1    3    3    0    0  0.22997063877E+02 -0.18120823348E+01  0.24645171531E+01  0.23199621422E+02  0.00000000000E+00 0.  1.
</event>
<event>
 7    1  0.8278507E-006  0.1948094E+03  0.7818608E-02  0.1218029E+00
          2   -1    0    0  502    0  0.00000000000E+00  0.00000000000E+00  0.16970135476E+03  0.16970135476E+03  0.00000000000E+00 0. -1.
          1   -1    0    0  501    0 -0.00000000000E+00 -0.00000000000E+00 -0.10224695214E+04  0.10224695214E+04  0.00000000000E+00 0. -1.
         25    2    1    2    0    0 -0.23488971083E+03  0.56620351344E+02 -0.17815510515E+03  0.32518454868E+03  0.12500683489E+03 0.  0.
          2    1    1    2  501    0  0.54290757579E+02 -0.78849250365E+02 -0.67826519230E+03  0.68498785517E+03  0.00000000000E+00 0. -1.
          1    1    1    2  502    0  0.18059895325E+03  0.22228899021E+02  0.36521308041E+01  0.18199847232E+03  0.00000000000E+00 0. -1.
         22    1    3    3    0    0 -0.15045255803E+03  0.33419494168E+01 -0.16687304767E+03  0.22470815490E+03  0.00000000000E+00 0. -1.
         22    1    3    3    0    0 -0.84437152803E+02  0.53278401928E+02 -0.11282057484E+02  0.10047639378E+03  0.00000000000E+00 0. -1.
</event>
<event>
 7    1  0.8278507E-006  0.1177720E+03  0.7818608E-02  0.1442731E+00
          2   -1    0    0  502    0  0.00000000000E+00  0.00000000000E+00  0.27859407274E+03  0.27859407274E+03  0.00000000000E+00 0. -1.
          1   -1    0    0  501    0 -0.00000000000E+00 -0.00000000000E+00 -0.13410181367E+03  0.13410181367E+03  0.00000000000E+00 0. -1.
         25    2    1    2    0    0 -0.92236119011E+02  0.84625008844E+02  0.15891946505E+03  0.23780069724E+03  0.12499952585E+03 0.  0.
          2    1    1    2  501    0  0.71852346001E+02 -0.91900162676E+02 -0.54954233783E+02  0.12895102689E+03  0.00000000000E+00 0. -1.
          1    1    1    2  502    0  0.20383773009E+02  0.72751538322E+01  0.40527027801E+02  0.45944162282E+02  0.00000000000E+00 0. -1.
         22    1    3    3    0    0 -0.64161948775E+02  0.71521257700E+02  0.17738307154E+03  0.20173447907E+03  0.00000000000E+00 0.  1.
         22    1    3    3    0    0 -0.28074170236E+02  0.13103751144E+02 -0.18463606495E+02  0.36066218173E+02  0.00000000000E+00 0.  1.
</event>
<event>
 7    1  0.8278507E-006  0.5887207E+02  0.7818608E-02  0.1486055E+00
          2   -1    0    0  502    0  0.00000000000E+00  0.00000000000E+00  0.16622243851E+03  0.16622243851E+03  0.00000000000E+00 0. -1.
          1   -1    0    0  501    0 -0.00000000000E+00 -0.00000000000E+00 -0.28927112056E+03  0.28927112056E+03  0.00000000000E+00 0. -1.
         25    2    1    2    0    0  0.10555095323E+01 -0.39340375959E+02 -0.59296682097E+02  0.14383977479E+03  0.12500002009E+03 0.  0.
          2    1    1    2  501    0  0.25861865979E+02  0.56019137880E+02 -0.18046505768E+03  0.19072130705E+03  0.00000000000E+00 0. -1.
          1    1    1    2  502    0 -0.26917375512E+02 -0.16678761921E+02  0.11671305772E+03  0.12093247722E+03  0.00000000000E+00 0. -1.
         22    1    3    3    0    0 -0.54209214418E+02 -0.26147835187E+01 -0.55118987426E+02  0.77353595880E+02  0.00000000000E+00 0.  1.
         22    1    3    3    0    0  0.55264723951E+02 -0.36725592440E+02 -0.41776946711E+01  0.66486178911E+02  0.00000000000E+00 0.  1.
</event>
<event>
 7    1  0.8278507E-006  0.1148920E+03  0.7818608E-02  0.1284777E+00
          2   -1    0    0  502    0  0.00000000000E+00  0.00000000000E+00  0.96740266799E+03  0.96740266799E+03  0.00000000000E+00 0. -1.
          1   -1    0    0  501    0 -0.00000000000E+00 -0.00000000000E+00 -0.85769885379E+03  0.85769885379E+03  0.00000000000E+00 0. -1.
         25    2    1    2    0    0  0.24794727400E+01  0.19614435698E+03 -0.40659504702E+02  0.23612793221E+03  0.12499779392E+03 0.  0.
          2    1    1    2  501    0 -0.92975764154E+00 -0.83414667368E+02 -0.71321009939E+03  0.71807208347E+03  0.00000000000E+00 0. -1.
          1    1    1    2  502    0 -0.15497150985E+01 -0.11272968962E+03  0.86357341830E+03  0.87090150610E+03  0.00000000000E+00 0. -1.
         22    1    3    3    0    0 -0.87535717732E+01  0.60481388329E+02  0.44465167663E+02  0.75576282578E+02  0.00000000000E+00 0.  1.
         22    1    3    3    0    0  0.11233044513E+02  0.13566296866E+03 -0.85124672365E+02  0.16055164963E+03  0.00000000000E+00 0.  1.
</event>
<event>
 7    1  0.8278507E-006  0.3545564E+03  0.7818608E-02  0.1287805E+00
          2   -1    0    0  502    0  0.00000000000E+00  0.00000000000E+00  0.21334405769E+04  0.21334405769E+04  0.00000000000E+00 0. -1.
          1   -1    0    0  501    0 -0.00000000000E+00 -0.00000000000E+00 -0.64613987697E+03  0.64613987697E+03  0.00000000000E+00 0. -1.
         25    2    1    2    0    0 -0.16332250037E+03  0.28773783154E+03  0.14209740701E+04  0.14643291203E+04  0.12500066358E+03 0.  0.
          2    1    1    2  501    0  0.16689759112E+03 -0.31376486409E+03 -0.57360622318E+03  0.67477944184E+03  0.00000000000E+00 0. -1.
          1    1    1    2  502    0 -0.35750907481E+01  0.26027032550E+02  0.63993285299E+03  0.64047189168E+03  0.00000000000E+00 0. -1.
         22    1    3    3    0    0 -0.38648137790E+02  0.19355233969E+03  0.80638152236E+03  0.83018512776E+03  0.00000000000E+00 0.  1.
         22    1    3    3    0    0 -0.12467436258E+03  0.94185491848E+02  0.61459254772E+03  0.63414399254E+03  0.00000000000E+00 0.  1.
</event>
<event>
 7    1  0.8499515E-006  0.7360069E+02  0.7818608E-02  0.1379862E+00
          2   -1    0    0  502    0  0.00000000000E+00  0.00000000000E+00  0.21266055682E+04  0.21266055682E+04  0.00000000000E+00 0. -1.
          1   -1    0    0  501    0 -0.00000000000E+00 -0.00000000000E+00 -0.48859873332E+03  0.48859873332E+03  0.00000000000E+00 0. -1.
         25    2    1    2    0    0 -0.35588322697E+02  0.98008996907E+01 -0.54620211594E+02  0.14132002015E+03  0.12500157693E+03 0.  0.
          2    1    1    2  501    0  0.27925111905E+01  0.56455688546E+02 -0.38792383640E+03  0.39202033842E+03  0.00000000000E+00 0. -1.
          1    1    1    2  502    0  0.32795811506E+02 -0.66256588237E+02  0.20805508828E+04  0.20818639429E+04  0.00000000000E+00 0. -1.
         22    1    3    3    0    0  0.18602275967E+02  0.55391449879E+02 -0.33809464001E+02  0.67508053200E+02  0.00000000000E+00 0.  1.
         22    1    3    3    0    0 -0.54190598664E+02 -0.45590550189E+02 -0.20810747593E+02  0.73811966952E+02  0.00000000000E+00 0.  1.
</event>
<event>
 7    1  0.8278507E-006  0.4614370E+02  0.7818608E-02  0.1498409E+00
          2   -1    0    0  502    0  0.00000000000E+00  0.00000000000E+00  0.17116694540E+04  0.17116694540E+04  0.00000000000E+00 0. -1.
          1   -1    0    0  501    0 -0.00000000000E+00 -0.00000000000E+00 -0.20718647819E+02  0.20718647819E+02  0.00000000000E+00 0. -1.
         25    2    1    2    0    0 -0.24501756854E+01 -0.29883828014E+02  0.23713064340E+03  0.26971548674E+03  0.12496581618E+03 0.  0.
          2    1    1    2  501    0  0.46712898808E+02  0.16843397737E+02  0.14939305472E+03  0.15742960256E+03  0.00000000000E+00 0. -1.
          1    1    1    2  502    0 -0.44262723122E+02  0.13040430277E+02  0.13044271081E+04  0.13052430125E+04  0.00000000000E+00 0. -1.
         22    1    3    3    0    0  0.73504683781E+01 -0.59456771812E+02  0.44619323827E+02  0.74699539212E+02  0.00000000000E+00 0. -1.
         22    1    3    3    0    0 -0.98006440635E+01  0.29572943798E+02  0.19251131957E+03  0.19501594753E+03  0.00000000000E+00 0. -1.
</event>
<event>
 7    1  0.8278507E-006  0.6578768E+02  0.7818608E-02  0.1404163E+00
          2   -1    0    0  502    0  0.00000000000E+00  0.00000000000E+00  0.36943616714E+03  0.36943616714E+03  0.00000000000E+00 0. -1.
          1   -1    0    0  501    0 -0.00000000000E+00 -0.00000000000E+00 -0.10081618086E+03  0.10081618086E+03  0.00000000000E+00 0. -1.
         25    2    1    2    0    0 -0.24969165336E+02  0.74018463372E+02  0.95611138047E+02  0.17569190898E+03  0.12499586003E+03 0.  0.
          2    1    1    2  501    0 -0.32447769471E+02 -0.40698070749E+02 -0.43668288258E+02  0.67941961303E+02  0.00000000000E+00 0. -1.
          1    1    1    2  502    0  0.57416934807E+02 -0.33320392623E+02  0.21667713649E+03  0.22661847773E+03  0.00000000000E+00 0. -1.
         22    1    3    3    0    0 -0.21916406124E+02  0.10224149224E+03  0.10256045834E+03  0.14646603431E+03  0.00000000000E+00 0. -1.
         22    1    3    3    0    0 -0.30527592117E+01 -0.28223028868E+02 -0.69493202930E+01  0.29225874663E+02  0.00000000000E+00 0. -1.
</event>
<event>
 7    1  0.8278507E-006  0.2544680E+03  0.7818608E-02  0.1158017E+00
          2   -1    0    0  502    0  0.00000000000E+00  0.00000000000E+00  0.19064820657E+04  0.19064820657E+04  0.00000000000E+00 0. -1.
          1   -1    0    0  501    0 -0.00000000000E+00 -0.00000000000E+00 -0.45886948452E+03  0.45886948452E+03  0.00000000000E+00 0. -1.
         25    2    1    2    0    0 -0.19528537091E+03 -0.14453228471E+03  0.45819058906E+03  0.53346126548E+03  0.12496538899E+03 0.  0.
          2    1    1    2  501    0 -0.71975304369E+02  0.12310650493E+03 -0.39593170396E+03  0.42082962133E+03  0.00000000000E+00 0. -1.
          1    1    1    2  502    0  0.26726067528E+03  0.21425779778E+02  0.13853536961E+04  0.14110606634E+04  0.00000000000E+00 0. -1.
         22    1    3    3    0    0 -0.42453474881E+01 -0.65695889560E+02  0.94873197668E+02  0.11547682242E+03  0.00000000000E+00 0.  1.
         22    1    3    3    0    0 -0.19104002342E+03 -0.78836395150E+02  0.36331739140E+03  0.41798444306E+03  0.00000000000E+00 0.  1.
</event>
<event>
 7    1  0.8278507E-006  0.2950395E+02  0.7818608E-02  0.1629570E+00
          2   -1    0    0  502    0  0.00000000000E+00  0.00000000000E+00  0.37192589392E+04  0.37192589392E+04  0.00000000000E+00 0. -1.
          1   -1    0    0  501    0 -0.00000000000E+00 -0.00000000000E+00 -0.14856595792E+04  0.14856595792E+04  0.00000000000E+00 0. -1.
         25    2    1    2    0    0 -0.33311424766E+02  0.38178100723E+02  0.22356988802E+04  0.22397636879E+04  0.12499870635E+03 0.  0.
          2    1    1    2  501    0  0.10276622654E+02 -0.27655102609E+02 -0.14833722620E+04  0.14836656231E+04  0.00000000000E+00 0. -1.
          1    1    1    2  502    0  0.23034802112E+02 -0.10522998115E+02  0.14812727419E+04  0.14814892073E+04  0.00000000000E+00 0. -1.
         22    1    3    3    0    0 -0.14635284539E+02  0.11045016964E+02  0.42123105032E+02  0.45940613087E+02  0.00000000000E+00 0.  1.
         22    1    3    3    0    0 -0.18676140227E+02  0.27133083759E+02  0.21935757751E+04  0.21938230749E+04  0.00000000000E+00 0.  1.
</event>
<event>
 7    1  0.8278507E-006  0.6867506E+02  0.7818608E-02  0.1373251E+00
          2   -1    0    0  502    0  0.00000000000E+00  0.00000000000E+00  0.82133247296E+02  0.82133247296E+02  0.00000000000E+00 0. -1.
          1   -1    0    0  501    0 -0.00000000000E+00 -0.00000000000E+00 -0.74800326721E+03  0.74800326721E+03  0.00000000000E+00 0. -1.
         25    2    1    2    0    0 -0.13914308115E+02  0.58949121748E+02 -0.16010168457E+03  0.21195882599E+03  0.12500155033E+03 0.  0.
          2    1    1    2  501    0  0.67599592121E+02 -0.24196297491E+02 -0.54060547710E+03  0.54535259011E+03  0.00000000000E+00 0. -1.
          1    1    1    2  502    0 -0.53685284006E+02 -0.34752824257E+02  0.34837141760E+02  0.72825098411E+02  0.00000000000E+00 0. -1.
         22    1    3    3    0    0 -0.49130676520E+02  0.21773220223E+02 -0.15056861365E+03  0.15987121038E+03  0.00000000000E+00 0.  1.
         22    1    3    3    0    0  0.35216368405E+02  0.37175901525E+02 -0.95330709269E+01  0.52087615603E+02  0.00000000000E+00 0.  1.
</event>
<event>
 7    1  0.8278507E-006  0.7715135E+02  0.7818608E-02  0.1367060E+00
          2   -1    0    0  502    0  0.00000000000E+00  0.00000000000E+00  0.16562803585E+04  0.16562803585E+04  0.00000000000E+00 0. -1.
          1   -1    0    0  501    0 -0.00000000000E+00 -0.00000000000E+00 -0.28655382764E+03  0.28655382764E+03  0.00000000000E+00 0. -1.
         25    2    1    2    0    0 -0.26059655428E+02  0.13642626617E+02  0.38414587614E+03  0.40504920404E+03  0.12502630379E+03 0.  0.
          2    1    1    2  501    0 -0.20490072693E+02  0.56306391612E+02 -0.27143222258E+03  0.27796709206E+03  0.00000000000E+00 0. -1.
          1    1    1    2  502    0  0.46549728121E+02 -0.69949018228E+02  0.12570128773E+04  0.12598178901E+04  0.00000000000E+00 0. -1.
         22    1    3    3    0    0 -0.43487588344E+02 -0.22696088649E+02  0.56036575567E+02  0.74474026219E+02  0.00000000000E+00 0.  1.
         22    1    3    3    0    0  0.17427932916E+02  0.36338715265E+02  0.32810930057E+03  0.33057517783E+03  0.00000000000E+00 0.  1.
</event>
<event>
 7    1  0.8278507E-006  0.4258778E+02  0.7818608E-02  0.1533711E+00
          2   -1    0    0  502    0  0.00000000000E+00  0.00000000000E+00  0.23087100536E+04  0.23087100536E+04  0.00000000000E+00 0. -1.
          1   -1    0    0  501    0 -0.00000000000E+00 -0.00000000000E+00 -0.39209658361E+02  0.39209658361E+02  0.00000000000E+00 0. -1.
         25    2    1    2    0    0 -0.53343779386E+02  0.39257770392E+01  0.18816716884E+03  0.23214726829E+03  0.12499800086E+03 0.  0.
          2    1    1    2  501    0  0.20979638475E+02  0.23746539084E+02 -0.22385296978E+01  0.31765616068E+02  0.00000000000E+00 0. -1.
          1    1    1    2  502    0  0.32364140911E+02 -0.27672316123E+02  0.20835717561E+04  0.20840068276E+04  0.00000000000E+00 0. -1.
         22    1    3    3    0    0 -0.35020091401E+02 -0.49321723608E+02  0.37184698035E+02  0.71005218044E+02  0.00000000000E+00 0.  1.
         22    1    3    3    0    0 -0.18323687984E+02  0.53247500648E+02  0.15098247081E+03  0.16114205024E+03  0.00000000000E+00 0.  1.
</event>
<event>
 7    1  0.8278507E-006  0.7613524E+02  0.7818608E-02  0.1373533E+00
          2   -1    0    0  502    0  0.00000000000E+00  0.00000000000E+00  0.27739536381E+04  0.27739536381E+04  0.00000000000E+00 0. -1.
          1   -1    0    0  501    0 -0.00000000000E+00 -0.00000000000E+00 -0.80202718912E+03  0.80202718912E+03  0.00000000000E+00 0. -1.
         25    2    1    2    0    0 -0.47345931326E+02  0.75861957672E+02  0.11936844482E+04  0.12035362189E+04  0.12498077607E+03 0.  0.
          2    1    1    2  501    0 -0.10204760118E+02 -0.75459381103E+02 -0.79475531200E+03  0.79839480288E+03  0.00000000000E+00 0. -1.
          1    1    1    2  502    0  0.57550691443E+02 -0.40257656903E+00  0.15729973128E+04  0.15740498055E+04  0.00000000000E+00 0. -1.
         22    1    3    3    0    0 -0.72561653325E+02  0.71541958438E+02  0.11343987800E+04  0.11389662143E+04  0.00000000000E+00 0. -1.
         22    1    3    3    0    0  0.25215722000E+02  0.43199992339E+01  0.59285668259E+02  0.64570004571E+02  0.00000000000E+00 0. -1.
</event>
<event>
 7    1  0.8278507E-006  0.4283256E+02  0.7818608E-02  0.1495500E+00
          2   -1    0    0  502    0  0.00000000000E+00  0.00000000000E+00  0.15444538343E+04  0.15444538343E+04  0.00000000000E+00 0. -1.
          1   -1    0    0  501    0 -0.00000000000E+00 -0.00000000000E+00 -0.19834652318E+04  0.19834652318E+04  0.00000000000E+00 0. -1.
         25    2    1    2    0    0  0.32512330483E+02  0.21265255398E+01  0.96146409841E+03  0.97010372295E+03  0.12500578788E+03 0.  0.
          2    1    1    2  501    0 -0.86640614204E+01  0.39823687934E+02 -0.19779291392E+04  0.19783489762E+04  0.00000000000E+00 0. -1.
          1    1    1    2  502    0 -0.23848269062E+02 -0.41950213474E+02  0.57745364327E+03  0.57946636699E+03  0.00000000000E+00 0. -1.
         22    1    3    3    0    0 -0.22989110683E+02  0.17885337499E+02  0.59007995242E+02  0.65805227831E+02  0.00000000000E+00 0. -1.
         22    1    3    3    0    0  0.55501441166E+02 -0.15758811959E+02  0.90245610317E+03  0.90429849511E+03  0.00000000000E+00 0. -1.
</event>
<event>
 7    1  0.8278507E-006  0.5622464E+02  0.7818608E-02  0.1447248E+00
          2   -1    0    0  502    0  0.00000000000E+00  0.00000000000E+00  0.18012912879E+04  0.18012912879E+04  0.00000000000E+00 0. -1.
          1   -1    0    0  501    0 -0.00000000000E+00 -0.00000000000E+00 -0.13914780909E+03  0.13914780909E+03  0.00000000000E+00 0. -1.
         25    2    1    2    0    0 -0.18767184604E+02  0.33307488369E+02  0.77341079149E+02  0.15188408731E+03  0.12500214980E+03 0.  0.
          2    1    1    2  501    0 -0.19209997171E+02 -0.55211235953E+02 -0.93180441865E+02  0.10999954233E+03  0.00000000000E+00 0. -1.
          1    1    1    2  502    0  0.37977181775E+02  0.21903747584E+02  0.16779828416E+04  0.16785554674E+04  0.00000000000E+00 0. -1.
         22    1    3    3    0    0 -0.46217389277E+02  0.65689578295E+02  0.24234403595E+02  0.83895614222E+02  0.00000000000E+00 0. -1.
         22    1    3    3    0    0  0.27450204673E+02 -0.32382089925E+02  0.53106675555E+02  0.67988473089E+02  0.00000000000E+00 0. -1.
</event>
<event>
 7    1  0.8278507E-006  0.9459895E+02  0.7818608E-02  0.1356413E+00
          2   -1    0    0  502    0  0.00000000000E+00  0.00000000000E+00  0.30225680563E+04  0.30225680563E+04  0.00000000000E+00 0. -1.
          1   -1    0    0  501    0 -0.00000000000E+00 -0.00000000000E+00 -0.23803243409E+04  0.23803243409E+04  0.00000000000E+00 0. -1.
         25    2    1    2    0    0 -0.74256932365E+02  0.64539430632E+02  0.16291140552E+03  0.22769116566E+03  0.12499484293E+03 0.  0.
          2    1    1    2  501    0  0.93505226957E+02 -0.14698419808E+02 -0.23467279016E+04  0.23486360116E+04  0.00000000000E+00 0. -1.
          1    1    1    2  502    0 -0.19248294592E+02 -0.49841010824E+02  0.28260602115E+04  0.28265652199E+04  0.00000000000E+00 0. -1.
         22    1    3    3    0    0 -0.65373009399E+02  0.98866883895E+02  0.98278304092E+02  0.15397050414E+03  0.00000000000E+00 0.  1.
         22    1    3    3    0    0 -0.88839229665E+01 -0.34327453263E+02  0.64633101432E+02  0.73720661524E+02  0.00000000000E+00 0.  1.
</event>
<event>
 7    1  0.8278507E-006  0.1259580E+03  0.7818608E-02  0.1337293E+00
          2   -1    0    0  502    0  0.00000000000E+00  0.00000000000E+00  0.16997934764E+03  0.16997934764E+03  0.00000000000E+00 0. -1.
          1   -1    0    0  501    0 -0.00000000000E+00 -0.00000000000E+00 -0.78950194894E+03  0.78950194894E+03  0.00000000000E+00 0. -1.
         25    2    1    2    0    0  0.40263294204E+02 -0.90459802347E+02 -0.35306996893E+03  0.38741018316E+03  0.12499655338E+03 0.  0.
          2    1    1    2  501    0 -0.55508529442E+02  0.13520819987E+03 -0.40240903683E+03  0.42813022210E+03  0.00000000000E+00 0. -1.
          1    1    1    2  502    0  0.15245235238E+02 -0.44748397518E+02  0.13595640446E+03  0.14394089131E+03  0.00000000000E+00 0. -1.
         22    1    3    3    0    0 -0.23786901286E+02 -0.16743125302E+02 -0.22232905843E+03  0.22422390404E+03  0.00000000000E+00 0. -1.
         22    1    3    3    0    0  0.64050195490E+02 -0.73716677046E+02 -0.13074091050E+03  0.16318627913E+03  0.00000000000E+00 0. -1.
</event>
<event>
 7    1  0.8278507E-006  0.9993883E+02  0.7818608E-02  0.1307003E+00
          2   -1    0    0  502    0  0.00000000000E+00  0.00000000000E+00  0.11673478757E+04  0.11673478757E+04  0.00000000000E+00 0. -1.
          1   -1    0    0  501    0 -0.00000000000E+00 -0.00000000000E+00 -0.38207049683E+02  0.38207049683E+02  0.00000000000E+00 0. -1.
         25    2    1    2    0    0 -0.49595426696E+02  0.30591777606E+02  0.34312972501E+03  0.36981074168E+03  0.12500565296E+03 0.  0.
          2    1    1    2  501    0  0.33527069081E+01  0.77957400461E+02  0.55470917528E+02  0.95737242606E+02  0.00000000000E+00 0. -1.
          1    1    1    2  502    0  0.46242719788E+02 -0.10854917807E+03  0.73054018348E+03  0.74000694110E+03  0.00000000000E+00 0. -1.
         22    1    3    3    0    0 -0.11145379115E+02  0.24141612763E+02  0.22241362635E+01  0.26683023152E+02  0.00000000000E+00 0. -1.
         22    1    3    3    0    0 -0.38450047581E+02  0.64501648427E+01  0.34090558875E+03  0.34312771853E+03  0.00000000000E+00 0. -1.
</event>
<event>
 7    1  0.8278507E-006  0.2506613E+03  0.7818608E-02  0.1322172E+00
          2   -1    0    0  502    0  0.00000000000E+00  0.00000000000E+00  0.16280680749E+04  0.16280680749E+04  0.00000000000E+00 0. -1.
          1   -1    0    0  501    0 -0.00000000000E+00 -0.00000000000E+00 -0.20214159908E+03  0.20214159908E+03  0.00000000000E+00 0. -1.
         25    2    1    2    0    0 -0.24460939736E+03  0.54802337415E+02  0.59035438899E+03  0.65343798697E+03  0.12500337895E+03 0.  0.
          2    1    1    2  501    0 -0.49540799370E+01 -0.26680448198E+02 -0.15372138215E+03  0.15609821445E+03  0.00000000000E+00 0. -1.
          1    1    1    2  502    0  0.24956347729E+03 -0.28121889217E+02  0.98929346897E+03  0.10206734726E+04  0.00000000000E+00 0. -1.
         22    1    3    3    0    0 -0.93971906939E+02 -0.21697738471E+01  0.99680747638E+02  0.13700977579E+03  0.00000000000E+00 0.  1.
         22    1    3    3    0    0 -0.15063749042E+03  0.56972111262E+02  0.49067364136E+03  0.51642821118E+03  0.00000000000E+00 0.  1.
</event>
<event>
 7    1  0.8278507E-006  0.8559724E+02  0.7818608E-02  0.1440218E+00
          2   -1    0    0  502    0  0.00000000000E+00  0.00000000000E+00  0.19697828630E+03  0.19697828630E+03  0.00000000000E+00 0. -1.
          1   -1    0    0  501    0 -0.00000000000E+00 -0.00000000000E+00 -0.13627815734E+04  0.13627815734E+04  0.00000000000E+00 0. -1.
         25    2    1    2    0    0  0.17297774856E+01 -0.10219449335E+03  0.97917921575E+02  0.18883885257E+03  0.12500194508E+03 0.  0.
          2    1    1    2  501    0  0.21533572279E+02  0.82714997266E+02 -0.13115216052E+04  0.13143037649E+04  0.00000000000E+00 0. -1.
          1    1    1    2  502    0 -0.23263349764E+02  0.19479496079E+02  0.47800396533E+02  0.56617242237E+02  0.00000000000E+00 0. -1.
         22    1    3    3    0    0 -0.14273734511E+02  0.39766447648E+01  0.78301475909E+02  0.79691118263E+02  0.00000000000E+00 0. -1.
         22    1    3    3    0    0  0.16003511996E+02 -0.10617113811E+03  0.19616445666E+02  0.10914773431E+03  0.00000000000E+00 0. -1.
</event>
<event>
 7    1  0.8278507E-006  0.6864254E+02  0.7818608E-02  0.1410121E+00
          2   -1    0    0  502    0  0.00000000000E+00  0.00000000000E+00  0.26803190639E+04  0.26803190639E+04  0.00000000000E+00 0. -1.
          1   -1    0    0  501    0 -0.00000000000E+00 -0.00000000000E+00 -0.21162697952E+03  0.21162697952E+03  0.00000000000E+00 0. -1.
         25    2    1    2    0    0 -0.22113232491E+02  0.13497540295E+02  0.67904051324E+03  0.69093564415E+03  0.12499946837E+03 0.  0.
          2    1    1    2  501    0 -0.41013697429E+02  0.24177800202E+02 -0.20223710153E+03  0.20776557616E+03  0.00000000000E+00 0. -1.
          1    1    1    2  502    0  0.63126929919E+02 -0.37675340497E+02  0.19918886726E+04  0.19932448231E+04  0.00000000000E+00 0. -1.
         22    1    3    3    0    0 -0.52204876922E+02 -0.37813266192E+02  0.43500853725E+03  0.43975859259E+03  0.00000000000E+00 0. -1.
         22    1    3    3    0    0  0.30091644431E+02  0.51310806487E+02  0.24403197598E+03  0.25117705156E+03  0.00000000000E+00 0. -1.
</event>
<event>
 7    1  0.8278507E-006  0.7235490E+02  0.7818608E-02  0.1425614E+00
          2   -1    0    0  502    0  0.00000000000E+00  0.00000000000E+00  0.43218762003E+03  0.43218762003E+03  0.00000000000E+00 0. -1.
          1   -1    0    0  501    0 -0.00000000000E+00 -0.00000000000E+00 -0.17320858324E+03  0.17320858324E+03  0.00000000000E+00 0. -1.
         25    2    1    2    0    0 -0.55888946639E+02 -0.83915327003E+02  0.17677639176E+03  0.23883023808E+03  0.12499853390E+03 0.  0.
          2    1    1    2  501    0  0.18764584821E+02  0.68812898464E+02 -0.13125263825E+03  0.14938065365E+03  0.00000000000E+00 0. -1.
          1    1    1    2  502    0  0.37124361818E+02  0.15102428540E+02  0.21345528327E+03  0.21718531153E+03  0.00000000000E+00 0. -1.
         22    1    3    3    0    0 -0.64135327860E+02 -0.13572724353E+02  0.22905668927E+02  0.69442269512E+02  0.00000000000E+00 0. -1.
         22    1    3    3    0    0  0.82463812204E+01 -0.70342602650E+02  0.15387072284E+03  0.16938796857E+03  0.00000000000E+00 0. -1.
</event>
<event>
 7    1  0.8278507E-006  0.3222135E+03  0.7818608E-02  0.1116514E+00
          2   -1    0    0  502    0  0.00000000000E+00  0.00000000000E+00  0.14175226141E+04  0.14175226141E+04  0.00000000000E+00 0. -1.
          1   -1    0    0  501    0 -0.00000000000E+00 -0.00000000000E+00 -0.12761764796E+04  0.12761764796E+04  0.00000000000E+00 0. -1.
         25    2    1    2    0    0 -0.29918785960E+03 -0.85024441609E+01  0.59185327869E+03  0.67490815432E+03  0.12500018558E+03 0.  0.
          2    1    1    2  501    0 -0.15578713604E+02 -0.18561843100E+03 -0.11833526911E+04  0.11979234073E+04  0.00000000000E+00 0. -1.
          1    1    1    2  502    0  0.31476657320E+03  0.19412087516E+03  0.73284554687E+03  0.82086753215E+03  0.00000000000E+00 0. -1.
         22    1    3    3    0    0 -0.43452171072E+01  0.24744561313E+02  0.73066646033E+02  0.77265186137E+02  0.00000000000E+00 0.  1.
         22    1    3    3    0    0 -0.29484264249E+03 -0.33247005474E+02  0.51878663265E+03  0.59764296819E+03  0.00000000000E+00 0.  1.
</event>
<event>
 7    1  0.8278507E-006  0.1071487E+03  0.7818608E-02  0.1313364E+00
          2   -1    0    0  502    0  0.00000000000E+00  0.00000000000E+00  0.12667708369E+04  0.12667708369E+04  0.00000000000E+00 0. -1.
          1   -1    0    0  501    0 -0.00000000000E+00 -0.00000000000E+00 -0.14654154794E+03  0.14654154794E+03  0.00000000000E+00 0. -1.
         25    2    1    2    0    0 -0.12763518531E+02 -0.14420440855E+03  0.44941425212E+03  0.48842234841E+03  0.12500160625E+03 0.  0.
          2    1    1    2  501    0 -0.39811719622E+02  0.55986648501E+02 -0.11415414824E+03  0.13323155554E+03  0.00000000000E+00 0. -1.
          1    1    1    2  502    0  0.52575238153E+02  0.88217760047E+02  0.78496918511E+03  0.79165848093E+03  0.00000000000E+00 0. -1.
         22    1    3    3    0    0 -0.23747467483E+02 -0.12911814128E+03  0.20589314008E+03  0.24418726780E+03  0.00000000000E+00 0. -1.
         22    1    3    3    0    0  0.10983948952E+02 -0.15086267267E+02  0.24352111204E+03  0.24423508061E+03  0.00000000000E+00 0. -1.
</event>
<event>
 7    1  0.8278507E-006  0.4140006E+02  0.7818608E-02  0.1535641E+00
          2   -1    0    0  502    0  0.00000000000E+00  0.00000000000E+00  0.87043052601E+02  0.87043052601E+02  0.00000000000E+00 0. -1.
          1   -1    0    0  501    0 -0.00000000000E+00 -0.00000000000E+00 -0.11477262130E+04  0.11477262130E+04  0.00000000000E+00 0. -1.
         25    2    1    2    0    0  0.17129279889E+02  0.62984372879E+02 -0.52558659788E+03  0.54417515060E+03  0.12499951684E+03 0.  0.
          2    1    1    2  501    0  0.88063075916E+01 -0.30957895732E+02 -0.60692778817E+03  0.60778062030E+03  0.00000000000E+00 0. -1.
          1    1    1    2  502    0 -0.25935587481E+02 -0.32026477146E+02  0.71831225613E+02  0.82813494731E+02  0.00000000000E+00 0. -1.
         22    1    3    3    0    0  0.56537305385E+02  0.80071353273E+02 -0.35923288124E+03  0.37236561533E+03  0.00000000000E+00 0.  1.
         22    1    3    3    0    0 -0.39408025496E+02 -0.17086980394E+02 -0.16635371663E+03  0.17180953527E+03  0.00000000000E+00 0.  1.
</event>
<event>
 7    1  0.8278507E-006  0.9485208E+02  0.7818608E-02  0.1376343E+00
          2   -1    0    0  502    0  0.00000000000E+00  0.00000000000E+00  0.81840075819E+03  0.81840075819E+03  0.00000000000E+00 0. -1.
          1   -1    0    0  501    0 -0.00000000000E+00 -0.00000000000E+00 -0.30112109004E+03  0.30112109004E+03  0.00000000000E+00 0. -1.
         25    2    1    2    0    0  0.35206213466E+02 -0.12003517436E+03  0.81140730657E+02  0.19459009950E+03  0.12503426771E+03 0.  0.
          2    1    1    2  501    0 -0.51278888793E+02  0.77852348958E+02 -0.23472044566E+03  0.25255534104E+03  0.00000000000E+00 0. -1.
          1    1    1    2  502    0  0.16072675326E+02  0.42182825403E+02  0.67085938316E+03  0.67237640769E+03  0.00000000000E+00 0. -1.
         22    1    3    3    0    0 -0.11013821177E+02 -0.53713390892E+02 -0.25747510333E+02  0.60575299475E+02  0.00000000000E+00 0.  1.
         22    1    3    3    0    0  0.46220034643E+02 -0.66321783468E+02  0.10688824099E+03  0.13401480003E+03  0.00000000000E+00 0.  1.
</event>
<event>
 7    1  0.8278507E-006  0.6561026E+02  0.7818608E-02  0.1383214E+00
          2   -1    0    0  502    0  0.00000000000E+00  0.00000000000E+00  0.83319308317E+03  0.83319308317E+03  0.00000000000E+00 0. -1.
          1   -1    0    0  501    0 -0.00000000000E+00 -0.00000000000E+00 -0.16514264759E+03  0.16514264759E+03  0.00000000000E+00 0. -1.
         25    2    1    2    0    0 -0.24629114031E+02  0.12051724863E+03  0.12159998939E+03  0.21341267836E+03  0.12500965318E+03 0.  0.
          2    1    1    2  501    0  0.29802934275E+01 -0.62736939991E+02 -0.10941561337E+03  0.12616093784E+03  0.00000000000E+00 0. -1.
          1    1    1    2  502    0  0.21648820604E+02 -0.57780308643E+02  0.65586605955E+03  0.65876211456E+03  0.00000000000E+00 0. -1.
         22    1    3    3    0    0 -0.14986574998E+02 -0.25212721180E+02  0.19993996386E+02  0.35497022846E+02  0.00000000000E+00 0.  1.
         22    1    3    3    0    0 -0.96425390335E+01  0.14572996981E+03  0.10160599300E+03  0.17791565551E+03  0.00000000000E+00 0.  1.
</event>
<event>
 7    1  0.8278507E-006  0.2979263E+03  0.7818608E-02  0.1311866E+00
          2   -1    0    0  502    0  0.00000000000E+00  0.00000000000E+00  0.66622365407E+03  0.66622365407E+03  0.00000000000E+00 0. -1.
          1   -1    0    0  501    0 -0.00000000000E+00 -0.00000000000E+00 -0.31621868334E+03  0.31621868334E+03  0.00000000000E+00 0. -1.
         25    2    1    2    0    0  0.41304373257E+02 -0.28143935744E+03  0.21726516282E+03  0.37913258253E+03  0.12499280375E+03 0.  0.
          2    1    1    2  501    0 -0.26990556121E+01 -0.24898096078E+02 -0.16944231126E+03  0.17128309005E+03  0.00000000000E+00 0. -1.
          1    1    1    2  502    0 -0.38605317645E+02  0.30633745352E+03  0.30218211917E+03  0.43202666483E+03  0.00000000000E+00 0. -1.
         22    1    3    3    0    0  0.32686245772E+01 -0.15331194831E+03  0.18746848722E+03  0.24219758690E+03  0.00000000000E+00 0. -1.
         22    1    3    3    0    0  0.38035748680E+02 -0.12812740914E+03  0.29796675599E+02  0.13693499562E+03  0.00000000000E+00 0. -1.
</event>
<event>
 7    1  0.8278507E-006  0.3574896E+02  0.7818608E-02  0.1571744E+00
          2   -1    0    0  502    0  0.00000000000E+00  0.00000000000E+00  0.37619643874E+03  0.37619643874E+03  0.00000000000E+00 0. -1.
          1   -1    0    0  501    0 -0.00000000000E+00 -0.00000000000E+00 -0.11392845274E+03  0.11392845274E+03  0.00000000000E+00 0. -1.
         25    2    1    2    0    0 -0.33098360682E+02 -0.41310151230E+02  0.14216562642E+03  0.19656538516E+03  0.12499942093E+03 0.  0.
          2    1    1    2  501    0  0.28900924586E+02  0.63582333939E+01 -0.82642666760E+02  0.87780982810E+02  0.00000000000E+00 0. -1.
          1    1    1    2  502    0  0.41974360960E+01  0.34951917836E+02  0.20274502635E+03  0.20577852351E+03  0.00000000000E+00 0. -1.
         22    1    3    3    0    0  0.27453064946E+02 -0.49580176313E+01  0.11901737502E+03  0.12224315224E+03  0.00000000000E+00 0. -1.
         22    1    3    3    0    0 -0.60551425629E+02 -0.36352133599E+02  0.23148251398E+02  0.74322232916E+02  0.00000000000E+00 0. -1.
</event>
<event>
 7    1  0.8278507E-006  0.7141782E+02  0.7818608E-02  0.1408437E+00
          2   -1    0    0  502    0  0.00000000000E+00  0.00000000000E+00  0.20091273941E+04  0.20091273941E+04  0.00000000000E+00 0. -1.
          1   -1    0    0  501    0 -0.00000000000E+00 -0.00000000000E+00 -0.33999306808E+02  0.33999306808E+02  0.00000000000E+00 0. -1.
         25    2    1    2    0    0 -0.73981831250E+02  0.34925946408E+02  0.11865373470E+04  0.11959051886E+04  0.12500084419E+03 0.  0.
          2    1    1    2  501    0  0.70642573363E+02  0.11319169227E+02  0.16090078761E+02  0.73330671604E+02  0.00000000000E+00 0. -1.
          1    1    1    2  502    0  0.33392578869E+01 -0.46245115636E+02  0.77250066145E+03  0.77389084069E+03  0.00000000000E+00 0. -1.
         22    1    3    3    0    0 -0.41690373618E+02  0.68225168976E+02  0.10169628968E+04  0.10201011197E+04  0.00000000000E+00 0.  1.
         22    1    3    3    0    0 -0.32291457632E+02 -0.33299222568E+02  0.16957445020E+03  0.17580406884E+03  0.00000000000E+00 0.  1.
</event>
<event>
 7    1  0.8278507E-006  0.3092161E+02  0.7818608E-02  0.1643872E+00
          2   -1    0    0  502    0  0.00000000000E+00  0.00000000000E+00  0.94557617639E+03  0.94557617639E+03  0.00000000000E+00 0. -1.
          1   -1    0    0  501    0 -0.00000000000E+00 -0.00000000000E+00 -0.99792205796E+03  0.99792205796E+03  0.00000000000E+00 0. -1.
         25    2    1    2    0    0  0.28867174297E+01  0.36597897195E+02  0.31651449321E+03  0.34227799367E+03  0.12500024529E+03 0.  0.
          2    1    1    2  501    0  0.17713374105E+02 -0.13479062868E+02 -0.98452540762E+03  0.98477699354E+03  0.00000000000E+00 0. -1.
          1    1    1    2  502    0 -0.20600091534E+02 -0.23118834327E+02  0.61566503284E+03  0.61644324713E+03  0.00000000000E+00 0. -1.
         22    1    3    3    0    0  0.47468495968E+02 -0.72507221864E+01  0.53313281744E+02  0.71750519803E+02  0.00000000000E+00 0.  1.
         22    1    3    3    0    0 -0.44581778538E+02  0.43848619381E+02  0.26320121147E+03  0.27052747387E+03  0.00000000000E+00 0.  1.
</event>
<event>
 7    1  0.8278507E-006  0.1035119E+03  0.7818608E-02  0.1366742E+00
          2   -1    0    0  502    0  0.00000000000E+00  0.00000000000E+00  0.47183124378E+03  0.47183124378E+03  0.00000000000E+00 0. -1.
          1   -1    0    0  501    0 -0.00000000000E+00 -0.00000000000E+00 -0.12434860702E+04  0.12434860702E+04  0.00000000000E+00 0. -1.
         25    2    1    2    0    0 -0.56402400598E+02 -0.19771434313E+02  0.51140183230E+02  0.14768937960E+03  0.12499877639E+03 0.  0.
          2    1    1    2  501    0  0.99291741718E+02  0.32639295094E+02 -0.11915695821E+04  0.11961447414E+04  0.00000000000E+00 0. -1.
          1    1    1    2  502    0 -0.42889341120E+02 -0.12867860781E+02  0.36877457238E+03  0.37148319297E+03  0.00000000000E+00 0. -1.
         22    1    3    3    0    0  0.13387053262E+02 -0.92121740561E+01  0.72219524953E+02  0.74025246574E+02  0.00000000000E+00 0. -1.
         22    1    3    3    0    0 -0.69789453860E+02 -0.10559260257E+02 -0.21079341723E+02  0.73664133028E+02  0.00000000000E+00 0. -1.
</event>
<event>
 7    1  0.8278507E-006  0.1006514E+03  0.7818608E-02  0.1365132E+00
          2   -1    0    0  502    0  0.00000000000E+00  0.00000000000E+00  0.90568019314E+02  0.90568019314E+02  0.00000000000E+00 0. -1.
          1   -1    0    0  501    0 -0.00000000000E+00 -0.00000000000E+00 -0.40456853700E+03  0.40456853700E+03  0.00000000000E+00 0. -1.
         25    2    1    2    0    0 -0.43716421499E+00  0.61274223409E+02 -0.22417620872E+03  0.26388363369E+03  0.12499951204E+03 0.  0.
          2    1    1    2  501    0 -0.59214755647E+01  0.46295262098E+02 -0.11191280597E+03  0.12125506713E+03  0.00000000000E+00 0. -1.
          1    1    1    2  502    0  0.63586397797E+01 -0.10756948551E+03  0.22088496998E+02  0.10999785549E+03  0.00000000000E+00 0. -1.
         22    1    3    3    0    0 -0.57741833758E+02  0.23399621236E+02 -0.15186325015E+03  0.16414660638E+03  0.00000000000E+00 0. -1.
         22    1    3    3    0    0  0.57304669543E+02  0.37874602173E+02 -0.72312958570E+02  0.99737027318E+02  0.00000000000E+00 0. -1.
</event>
<event>
 7    1  0.8278507E-006  0.5680088E+02  0.7818608E-02  0.1478691E+00
          2   -1    0    0  502    0  0.00000000000E+00  0.00000000000E+00  0.73265372481E+02  0.73265372481E+02  0.00000000000E+00 0. -1.
          1   -1    0    0  501    0 -0.00000000000E+00 -0.00000000000E+00 -0.29122711813E+03  0.29122711813E+03  0.00000000000E+00 0. -1.
         25    2    1    2    0    0  0.51727044969E+02  0.87430067950E+01 -0.10370538663E+03  0.17066177791E+03  0.12497402879E+03 0.  0.
          2    1    1    2  501    0 -0.53181109821E+02  0.25793436391E+02 -0.13918325447E+03  0.15121345881E+03  0.00000000000E+00 0. -1.
          1    1    1    2  502    0  0.14540648516E+01 -0.34536443186E+02  0.24926895448E+02  0.42617253892E+02  0.00000000000E+00 0. -1.
         22    1    3    3    0    0  0.61064914359E+02 -0.46408565927E+01 -0.12771043007E+03  0.14163479539E+03  0.00000000000E+00 0. -1.
         22    1    3    3    0    0 -0.93378693900E+01  0.13383863388E+02  0.24005043436E+02  0.29026982521E+02  0.00000000000E+00 0. -1.
</event>
<event>
 7    1  0.8278507E-006  0.8669232E+02  0.7818608E-02  0.1426997E+00
          2   -1    0    0  502    0  0.00000000000E+00  0.00000000000E+00  0.49128047217E+03  0.49128047217E+03  0.00000000000E+00 0. -1.
          1   -1    0    0  501    0 -0.00000000000E+00 -0.00000000000E+00 -0.12535745100E+03  0.12535745100E+03  0.00000000000E+00 0. -1.
         25    2    1    2    0    0  0.55434165391E+02 -0.28551573451E+02  0.21068132540E+03  0.25278262895E+03  0.12499719032E+03 0.  0.
          2    1    1    2  501    0 -0.86945199996E+02  0.18420039313E+02 -0.84026856431E+02  0.12230812832E+03  0.00000000000E+00 0. -1.
          1    1    1    2  502    0  0.31511034605E+02  0.10131534138E+02  0.23926855220E+03  0.24154716590E+03  0.00000000000E+00 0. -1.
         22    1    3    3    0    0  0.51732312361E+02  0.12574318781E+02  0.20414934344E+03  0.21097701311E+03  0.00000000000E+00 0.  1.
         22    1    3    3    0    0  0.37018530306E+01 -0.41125892232E+02  0.65319819651E+01  0.41805615844E+02  0.00000000000E+00 0.  1.
</event>
<event>
 7    1  0.8278507E-006  0.4373505E+03  0.7818608E-02  0.1256285E+00
          2   -1    0    0  502    0  0.00000000000E+00  0.00000000000E+00  0.14663467416E+04  0.14663467416E+04  0.00000000000E+00 0. -1.
          1   -1    0    0  501    0 -0.00000000000E+00 -0.00000000000E+00 -0.16552841065E+04  0.16552841065E+04  0.00000000000E+00 0. -1.
         25    2    1    2    0    0 -0.62848038599E+02  0.45715184491E+03  0.62441119925E+02  0.48214245982E+03  0.12499909137E+03 0.  0.
          2    1    1    2  501    0  0.49307029493E+02 -0.43166622598E+03 -0.14126012617E+04  0.14779070466E+04  0.00000000000E+00 0. -1.
          1    1    1    2  502    0  0.13541009106E+02 -0.25485618929E+02  0.11612227769E+04  0.11615813416E+04  0.00000000000E+00 0. -1.
         22    1    3    3    0    0 -0.90888223999E+02  0.33802489697E+03  0.78458842548E+02  0.35871616942E+03  0.00000000000E+00 0. -1.
         22    1    3    3    0    0  0.28040185400E+02  0.11912694794E+03 -0.16017722623E+02  0.12342629040E+03  0.00000000000E+00 0. -1.
</event>
<event>
 7    1  0.8278507E-006  0.4973746E+02  0.7818608E-02  0.1451457E+00
          2   -1    0    0  502    0  0.00000000000E+00  0.00000000000E+00  0.28207592026E+03  0.28207592026E+03  0.00000000000E+00 0. -1.
          1   -1    0    0  501    0 -0.00000000000E+00 -0.00000000000E+00 -0.31718997730E+03  0.31718997730E+03  0.00000000000E+00 0. -1.
         25    2    1    2    0    0 -0.30115753473E+02 -0.56809615955E+02  0.13910386949E+03  0.19776088414E+03  0.12500075885E+03 0.  0.
          2    1    1    2  501    0 -0.16888984790E+02  0.46868245151E+02 -0.28048865784E+03  0.28487849583E+03  0.00000000000E+00 0. -1.
          1    1    1    2  502    0  0.47004738263E+02  0.99413708045E+01  0.10627073131E+03  0.11662651759E+03  0.00000000000E+00 0. -1.
         22    1    3    3    0    0 -0.18117576409E+02 -0.87718171759E+02  0.13808330687E+03  0.16458956184E+03  0.00000000000E+00 0.  1.
         22    1    3    3    0    0 -0.11998177065E+02  0.30908555804E+02  0.10205626263E+01  0.33171322296E+02  0.00000000000E+00 0.  1.
</event>
<event>
 7    1  0.8278507E-006  0.1108707E+03  0.7818608E-02  0.1336394E+00
          2   -1    0    0  502    0  0.00000000000E+00  0.00000000000E+00  0.22657820925E+04  0.22657820925E+04  0.00000000000E+00 0. -1.
          1   -1    0    0  501    0 -0.00000000000E+00 -0.00000000000E+00 -0.20420209328E+03  0.20420209328E+03  0.00000000000E+00 0. -1.
         25    2    1    2    0    0  0.91169580946E+02  0.64631226501E+01  0.26867752871E+03  0.31010589200E+03  0.12499754147E+03 0.  0.
          2    1    1    2  501    0 -0.95075940223E+02 -0.60450800162E+02 -0.16578364827E+03  0.20044438551E+03  0.00000000000E+00 0. -1.
          1    1    1    2  502    0  0.39063592772E+01  0.53987677512E+02  0.19586861188E+04  0.19594339083E+04  0.00000000000E+00 0. -1.
         22    1    3    3    0    0  0.79641091574E+02 -0.28188877605E+02  0.74858994650E+02  0.11287685931E+03  0.00000000000E+00 0.  1.
         22    1    3    3    0    0  0.11528489371E+02  0.34652000255E+02  0.19381853406E+03  0.19722903269E+03  0.00000000000E+00 0.  1.
</event>
<event>
 7    1  0.8278507E-006  0.4323351E+02  0.7818608E-02  0.1486640E+00
          2   -1    0    0  502    0  0.00000000000E+00  0.00000000000E+00  0.11554063898E+02  0.11554063898E+02  0.00000000000E+00 0. -1.
          1   -1    0    0  501    0 -0.00000000000E+00 -0.00000000000E+00 -0.20227561899E+04  0.20227561899E+04  0.00000000000E+00 0. -1.
         25    2    1    2    0    0 -0.40706208041E+01 -0.14922785411E+02 -0.59741510653E+03  0.61054677853E+03  0.12499319899E+03 0.  0.
          2    1    1    2  501    0  0.33888084923E+02 -0.26377777893E+02 -0.12782342219E+04  0.12789554001E+04  0.00000000000E+00 0. -1.
          1    1    1    2  502    0 -0.29817464119E+02  0.41300563303E+02 -0.13555279759E+03  0.14480807515E+03  0.00000000000E+00 0. -1.
         22    1    3    3    0    0  0.54740649408E+02 -0.19087052724E+02 -0.40995270927E+03  0.41403149411E+03  0.00000000000E+00 0. -1.
         22    1    3    3    0    0 -0.58811270212E+02  0.41642673130E+01 -0.18746239726E+03  0.19651528442E+03  0.00000000000E+00 0. -1.
</event>
<event>
 7    1  0.8278507E-006  0.1298374E+03  0.7818608E-02  0.1345740E+00
          2   -1    0    0  502    0  0.00000000000E+00  0.00000000000E+00  0.39310064691E+03  0.39310064691E+03  0.00000000000E+00 0. -1.
          1   -1    0    0  501    0 -0.00000000000E+00 -0.00000000000E+00 -0.22248161547E+03  0.22248161547E+03  0.00000000000E+00 0. -1.
         25    2    1    2    0    0  0.72870761946E+02 -0.11996829663E+03 -0.14386335624E+03  0.23669035113E+03  0.12499246740E+03 0.  0.
          2    1    1    2  501    0 -0.33125745054E+02  0.10454531827E+03  0.68633291771E+02  0.12937375042E+03  0.00000000000E+00 0. -1.
          1    1    1    2  502    0 -0.39745016892E+02  0.15422978353E+02  0.24584909590E+03  0.24951816083E+03  0.00000000000E+00 0. -1.
         22    1    3    3    0    0  0.82902842051E+02 -0.12060761591E+03 -0.16052789296E+03  0.21722864142E+03  0.00000000000E+00 0.  1.
         22    1    3    3    0    0 -0.10032080105E+02  0.63931928084E+00  0.16664536724E+02  0.19461709704E+02  0.00000000000E+00 0.  1.
</event>
<event>
 7    1  0.9438566E-006  0.6896641E+02  0.7818608E-02  0.1459695E+00
          2   -1    0    0  502    0  0.00000000000E+00  0.00000000000E+00  0.10848577130E+04  0.10848577130E+04  0.00000000000E+00 0. -1.
          1   -1    0    0  501    0 -0.00000000000E+00 -0.00000000000E+00 -0.12524039015E+04  0.12524039015E+04  0.00000000000E+00 0. -1.
         25    2    1    2    0    0 -0.48102961938E+02 -0.22681914480E+02 -0.33389523545E+03  0.36047135624E+03  0.12500082487E+03 0.  0.
          2    1    1    2  501    0  0.44931264810E+02  0.55151595381E+02 -0.90357399185E+03  0.90636994422E+03  0.00000000000E+00 0. -1.
          1    1    1    2  502    0  0.31716971273E+01 -0.32469680901E+02  0.10699230387E+04  0.10704203140E+04  0.00000000000E+00 0. -1.
         22    1    3    3    0    0 -0.84535821702E+02  0.93509423566E+01 -0.24277069745E+03  0.25723793813E+03  0.00000000000E+00 0. -1.
         22    1    3    3    0    0  0.36432859765E+02 -0.32032856837E+02 -0.91124538001E+02  0.10323341811E+03  0.00000000000E+00 0. -1.
</event>
<event>
 7    1  0.8278507E-006  0.2950569E+02  0.7818608E-02  0.1606244E+00
          2   -1    0    0  502    0  0.00000000000E+00  0.00000000000E+00  0.17811224855E+03  0.17811224855E+03  0.00000000000E+00 0. -1.
          1   -1    0    0  501    0 -0.00000000000E+00 -0.00000000000E+00 -0.37069030147E+03  0.37069030147E+03  0.00000000000E+00 0. -1.
         25    2    1    2    0    0  0.17077773563E+02 -0.10270545528E+02 -0.12214826838E+03  0.17590210524E+03  0.12499686678E+03 0.  0.
          2    1    1    2  501    0  0.65561511869E+01  0.28296415952E+02 -0.21923747700E+03  0.22115320843E+03  0.00000000000E+00 0. -1.
          1    1    1    2  502    0 -0.23633924750E+02 -0.18025870425E+02  0.14880769246E+03  0.15174723635E+03  0.00000000000E+00 0. -1.
         22    1    3    3    0    0  0.85225817532E+01 -0.29010315334E+02  0.17370487621E+02  0.34870713152E+02  0.00000000000E+00 0. -1.
         22    1    3    3    0    0  0.85551918097E+01  0.18739769806E+02 -0.13951875600E+03  0.14103139209E+03  0.00000000000E+00 0. -1.
</event>
<event>
 7    1  0.8278507E-006  0.1269567E+03  0.7818608E-02  0.1314795E+00
          2   -1    0    0  502    0  0.00000000000E+00  0.00000000000E+00  0.56840652804E+02  0.56840652804E+02  0.00000000000E+00 0. -1.
          1   -1    0    0  501    0 -0.00000000000E+00 -0.00000000000E+00 -0.39114831705E+04  0.39114831705E+04  0.00000000000E+00 0. -1.
         25    2    1    2    0    0  0.51767316922E+01  0.85991990790E+02 -0.21573715608E+03  0.26379588917E+03  0.12499731836E+03 0.  0.
          2    1    1    2  501    0 -0.52679107502E+02 -0.11792253946E+03 -0.36447100402E+04  0.36469976818E+04  0.00000000000E+00 0. -1.
          1    1    1    2  502    0  0.47502375810E+02  0.31930548669E+02  0.58046785689E+01  0.57530252383E+02  0.00000000000E+00 0. -1.
         22    1    3    3    0    0  0.29568179981E+02  0.15838750853E+02  0.21357998325E+01  0.33611083543E+02  0.00000000000E+00 0. -1.
         22    1    3    3    0    0 -0.24391448289E+02  0.70153239937E+02 -0.21787295592E+03  0.23018480563E+03  0.00000000000E+00 0. -1.
</event>
<event>
 7    1  0.8278507E-006  0.6159275E+02  0.7818608E-02  0.1418326E+00
          2   -1    0    0  502    0  0.00000000000E+00  0.00000000000E+00  0.40141120706E+03  0.40141120706E+03  0.00000000000E+00 0. -1.
          1   -1    0    0  501    0 -0.00000000000E+00 -0.00000000000E+00 -0.96809351729E+03  0.96809351729E+03  0.00000000000E+00 0. -1.
         25    2    1    2    0    0  0.84578554109E+02  0.20535205092E+02 -0.53098057865E+03  0.55239488626E+03  0.12499803599E+03 0.  0.
          2    1    1    2  501    0 -0.40181839670E+02 -0.43069232554E+02 -0.42276949688E+03  0.42685312055E+03  0.00000000000E+00 0. -1.
          1    1    1    2  502    0 -0.44396714439E+02  0.22534027462E+02  0.38706776530E+03  0.39025671753E+03  0.00000000000E+00 0. -1.
         22    1    3    3    0    0  0.65092309618E+02  0.69920317258E+01 -0.92777988817E+02  0.11355022011E+03  0.00000000000E+00 0.  1.
         22    1    3    3    0    0  0.19486244491E+02  0.13543173366E+02 -0.43820258983E+03  0.43884466615E+03  0.00000000000E+00 0.  1.
</event>
<event>
 7    1  0.8278507E-006  0.3635677E+03  0.7818608E-02  0.1160334E+00
          2   -1    0    0  502    0  0.00000000000E+00  0.00000000000E+00  0.20212895121E+03  0.20212895121E+03  0.00000000000E+00 0. -1.
          1   -1    0    0  501    0 -0.00000000000E+00 -0.00000000000E+00 -0.23398222049E+04  0.23398222049E+04  0.00000000000E+00 0. -1.
         25    2    1    2    0    0 -0.40430105984E+02 -0.28843278374E+03 -0.10369522227E+03  0.33347664443E+03  0.12500363616E+03 0.  0.
          2    1    1    2  501    0  0.10733604173E+03  0.35887272316E+03 -0.20709355709E+04  0.21045390936E+04  0.00000000000E+00 0. -1.
          1    1    1    2  502    0 -0.66905935749E+02 -0.70439939426E+02  0.36937539569E+02  0.10393541809E+03  0.00000000000E+00 0. -1.
         22    1    3    3    0    0 -0.27025085959E+02 -0.29376533248E+03 -0.11344235684E+03  0.31606580670E+03  0.00000000000E+00 0. -1.
         22    1    3    3    0    0 -0.13405020025E+02  0.53325487473E+01  0.97471345697E+01  0.17410837726E+02  0.00000000000E+00 0. -1.
</event>
<event>
 7    1  0.8278507E-006  0.1069804E+03  0.7818608E-02  0.1400656E+00
          2   -1    0    0  502    0  0.00000000000E+00  0.00000000000E+00  0.12956560904E+04  0.12956560904E+04  0.00000000000E+00 0. -1.
          1   -1    0    0  501    0 -0.00000000000E+00 -0.00000000000E+00 -0.24448819384E+03  0.24448819384E+03  0.00000000000E+00 0. -1.
         25    2    1    2    0    0  0.72118033844E+02 -0.10973314241E+03  0.24872431955E+03  0.30778159305E+03  0.12499339397E+03 0.  0.
          2    1    1    2  501    0 -0.72919306533E+02  0.76836758701E+02 -0.20162337796E+03  0.22775666684E+03  0.00000000000E+00 0. -1.
          1    1    1    2  502    0  0.80127268923E+00  0.32896383710E+02  0.10040669549E+04  0.10046060243E+04  0.00000000000E+00 0. -1.
         22    1    3    3    0    0  0.10811870826E+03 -0.85644905010E+02  0.19210314936E+03  0.23649170139E+03  0.00000000000E+00 0. -1.
         22    1    3    3    0    0 -0.36000674420E+02 -0.24088237401E+02  0.56621170188E+02  0.71289891662E+02  0.00000000000E+00 0. -1.
</event>
<event>
 7    1  0.8278507E-006  0.4371278E+02  0.7818608E-02  0.1543283E+00
          2   -1    0    0  502    0  0.00000000000E+00  0.00000000000E+00  0.22250965581E+03  0.22250965581E+03  0.00000000000E+00 0. -1.
          1   -1    0    0  501    0 -0.00000000000E+00 -0.00000000000E+00 -0.26017315796E+03  0.26017315796E+03  0.00000000000E+00 0. -1.
         25    2    1    2    0    0 -0.23245564770E+01 -0.14857728288E+02 -0.20035182858E+03  0.23662385105E+03  0.12499534397E+03 0.  0.
          2    1    1    2  501    0 -0.56877042767E+01 -0.28439660849E+02 -0.33891991110E+02  0.44607525716E+02  0.00000000000E+00 0. -1.
          1    1    1    2  502    0  0.80122607537E+01  0.43297389136E+02  0.19658031754E+03  0.20145143701E+03  0.00000000000E+00 0. -1.
         22    1    3    3    0    0  0.57138567193E+02 -0.72482291236E+01 -0.14079680342E+03  0.15212196600E+03  0.00000000000E+00 0.  1.
         22    1    3    3    0    0 -0.59463123670E+02 -0.76094991640E+01 -0.59555025162E+02  0.84501885045E+02  0.00000000000E+00 0.  1.
</event>
<event>
 7    1  0.8278507E-006  0.8945447E+02  0.7818608E-02  0.1332375E+00
          2   -1    0    0  502    0  0.00000000000E+00  0.00000000000E+00  0.87368541337E+03  0.87368541337E+03  0.00000000000E+00 0. -1.
          1   -1    0    0  501    0 -0.00000000000E+00 -0.00000000000E+00 -0.66280370805E+03  0.66280370805E+03  0.00000000000E+00 0. -1.
         25    2    1    2    0    0 -0.11478760112E+03 -0.99086843703E+02 -0.19680662833E+03  0.27811998080E+03  0.12499391504E+03 0.  0.
          2    1    1    2  501    0  0.34929396319E+02  0.60068071804E+02 -0.42010762029E+03  0.42581527521E+03  0.00000000000E+00 0. -1.
          1    1    1    2  502    0  0.79858204802E+02  0.39018771899E+02  0.82779595394E+03  0.83255386540E+03  0.00000000000E+00 0. -1.
         22    1    3    3    0    0 -0.11562222134E+03 -0.61583033341E+02 -0.20147362970E+03  0.24031768875E+03  0.00000000000E+00 0.  1.
         22    1    3    3    0    0  0.83462021448E+00 -0.37503810363E+02  0.46670013646E+01  0.37802292052E+02  0.00000000000E+00 0.  1.
</event>
<event>
 7    1  0.8278507E-006  0.1809402E+03  0.7818608E-02  0.1272427E+00
          2   -1    0    0  502    0  0.00000000000E+00  0.00000000000E+00  0.53850695273E+03  0.53850695273E+03  0.00000000000E+00 0. -1.
          1   -1    0    0  501    0 -0.00000000000E+00 -0.00000000000E+00 -0.16106754894E+04  0.16106754894E+04  0.00000000000E+00 0. -1.
         25    2    1    2    0    0 -0.53388187760E+02  0.15220747031E+03  0.21205414705E+03  0.29429455126E+03  0.12499963604E+03 0.  0.
          2    1    1    2  501    0  0.11221281093E+03 -0.14268690904E+03 -0.15611264788E+04  0.15716447283E+04  0.00000000000E+00 0. -1.
          1    1    1    2  502    0 -0.58824623167E+02 -0.95205612714E+01  0.27690379515E+03  0.28324316258E+03  0.00000000000E+00 0. -1.
         22    1    3    3    0    0  0.14536220279E+02  0.42383467102E+01  0.88817512650E+02  0.90098922503E+02  0.00000000000E+00 0. -1.
         22    1    3    3    0    0 -0.67924408039E+02  0.14796912360E+03  0.12323663440E+03  0.20419562876E+03  0.00000000000E+00 0. -1.
</event>
<event>
 7    1  0.8278507E-006  0.1476729E+03  0.7818608E-02  0.1306113E+00
          2   -1    0    0  502    0  0.00000000000E+00  0.00000000000E+00  0.25779276315E+03  0.25779276315E+03  0.00000000000E+00 0. -1.
          1   -1    0    0  501    0 -0.00000000000E+00 -0.00000000000E+00 -0.51737848993E+03  0.51737848993E+03  0.00000000000E+00 0. -1.
         25    2    1    2    0    0  0.13806299504E+03 -0.60549456040E+01 -0.84472842446E+02  0.20459384769E+03  0.12499971375E+03 0.  0.
          2    1    1    2  501    0  0.55729045351E+01  0.52945272846E+02 -0.34161452705E+03  0.34573797054E+03  0.00000000000E+00 0. -1.
          1    1    1    2  502    0 -0.14363589958E+03 -0.46890327242E+02  0.16650164271E+03  0.22483943484E+03  0.00000000000E+00 0. -1.
         22    1    3    3    0    0  0.96562459414E+02  0.51411852050E+02 -0.25364543788E+02  0.11229802839E+03  0.00000000000E+00 0. -1.
         22    1    3    3    0    0  0.41500535627E+02 -0.57466797654E+02 -0.59108298657E+02  0.92295819299E+02  0.00000000000E+00 0. -1.
</event>
<event>
 7    1  0.8278507E-006  0.7047700E+02  0.7818608E-02  0.1514374E+00
          2   -1    0    0  502    0  0.00000000000E+00  0.00000000000E+00  0.56617190904E+03  0.56617190904E+03  0.00000000000E+00 0. -1.
          1   -1    0    0  501    0 -0.00000000000E+00 -0.00000000000E+00 -0.10308652247E+03  0.10308652247E+03  0.00000000000E+00 0. -1.
         25    2    1    2    0    0  0.17221577990E+02 -0.49526893560E+02  0.16090721123E+03  0.21039293766E+03  0.12499824661E+03 0.  0.
          2    1    1    2  501    0  0.14316498168E+02 -0.16407419484E+02 -0.73234973516E+02  0.76403709856E+02  0.00000000000E+00 0. -1.
          1    1    1    2  502    0 -0.31538076158E+02  0.65934313044E+02  0.37541314886E+03  0.38246178400E+03  0.00000000000E+00 0. -1.
         22    1    3    3    0    0  0.40059252531E+02 -0.20590732341E+02  0.16705550489E+03  0.17302099204E+03  0.00000000000E+00 0. -1.
         22    1    3    3    0    0 -0.22837674541E+02 -0.28936161220E+02 -0.61482936595E+01  0.37371945621E+02  0.00000000000E+00 0. -1.
</event>
<event>
 7    1  0.8278507E-006  0.1384166E+03  0.7818608E-02  0.1233648E+00
          2   -1    0    0  502    0  0.00000000000E+00  0.00000000000E+00  0.40472160837E+04  0.40472160837E+04  0.00000000000E+00 0. -1.
          1   -1    0    0  501    0 -0.00000000000E+00 -0.00000000000E+00 -0.85531598578E+03  0.85531598578E+03  0.00000000000E+00 0. -1.
         25    2    1    2    0    0  0.47851535450E+02 -0.61494583405E+01  0.57664928582E+03  0.59201447806E+03  0.12501663134E+03 0.  0.
          2    1    1    2  501    0  0.10143393571E+03 -0.53204314529E+02 -0.84189004352E+03  0.84964603676E+03  0.00000000000E+00 0. -1.
          1    1    1    2  502    0 -0.14928547116E+03  0.59353772869E+02  0.34571408556E+04  0.34608715546E+04  0.00000000000E+00 0. -1.
         22    1    3    3    0    0  0.86731047921E+02 -0.23193991643E+02  0.43370103561E+03  0.44289595190E+03  0.00000000000E+00 0.  1.
         22    1    3    3    0    0 -0.38879512471E+02  0.17044533302E+02  0.14294825022E+03  0.14911852616E+03  0.00000000000E+00 0.  1.
</event>
<event>
 7    1  0.8278507E-006  0.6516928E+02  0.7818608E-02  0.1404483E+00
          2   -1    0    0  502    0  0.00000000000E+00  0.00000000000E+00  0.45753302327E+03  0.45753302327E+03  0.00000000000E+00 0. -1.
          1   -1    0    0  501    0 -0.00000000000E+00 -0.00000000000E+00 -0.10094915386E+04  0.10094915386E+04  0.00000000000E+00 0. -1.
         25    2    1    2    0    0 -0.31532125625E+02 -0.23420688101E+02 -0.12091528198E+03  0.17829832743E+03  0.12500793803E+03 0.  0.
          2    1    1    2  501    0  0.30750468323E+02 -0.42442656761E+02 -0.85654974440E+03  0.85815175526E+03  0.00000000000E+00 0. -1.
          1    1    1    2  502    0  0.78165730118E+00  0.65863344862E+02  0.42550651105E+03  0.43057447919E+03  0.00000000000E+00 0. -1.
         22    1    3    3    0    0  0.37198856282E+02  0.12534238563E+02 -0.83312701435E+02  0.92097058940E+02  0.00000000000E+00 0.  1.
         22    1    3    3    0    0 -0.68730981906E+02 -0.35954926665E+02 -0.37602580549E+02  0.86201268489E+02  0.00000000000E+00 0.  1.
</event>
<event>
 7    1  0.8278507E-006  0.6818447E+02  0.7818608E-02  0.1422343E+00
          2   -1    0    0  502    0  0.00000000000E+00  0.00000000000E+00  0.18396326685E+03  0.18396326685E+03  0.00000000000E+00 0. -1.
          1   -1    0    0  501    0 -0.00000000000E+00 -0.00000000000E+00 -0.66858842409E+03  0.66858842409E+03  0.00000000000E+00 0. -1.
         25    2    1    2    0    0 -0.37181370622E+02  0.90976208418E+02 -0.42544208791E+03  0.45418602630E+03  0.12499940600E+03 0.  0.
          2    1    1    2  501    0  0.37581373017E+02 -0.47370707007E+02 -0.22185626845E+03  0.22994901029E+03  0.00000000000E+00 0. -1.
          1    1    1    2  502    0 -0.40000239426E+00 -0.43605501411E+02  0.16267319911E+03  0.16841665436E+03  0.00000000000E+00 0. -1.
         22    1    3    3    0    0 -0.95978195471E+01  0.10778520005E+03 -0.39586536462E+03  0.41038902811E+03  0.00000000000E+00 0. -1.
         22    1    3    3    0    0 -0.27583551075E+02 -0.16808991633E+02 -0.29576723292E+02  0.43796998189E+02  0.00000000000E+00 0. -1.
</event>
<event>
 7    1  0.8278507E-006  0.1056820E+03  0.7818608E-02  0.1325985E+00
          2   -1    0    0  502    0  0.00000000000E+00  0.00000000000E+00  0.68659152269E+03  0.68659152269E+03  0.00000000000E+00 0. -1.
          1   -1    0    0  501    0 -0.00000000000E+00 -0.00000000000E+00 -0.27429729577E+03  0.27429729577E+03  0.00000000000E+00 0. -1.
         25    2    1    2    0    0 -0.32481670476E+02 -0.15117127941E+03 -0.44042094243E+02  0.20364598002E+03  0.12499665785E+03 0.  0.
          2    1    1    2  501    0 -0.17349723140E+02  0.59753496027E+02 -0.13930551646E+03  0.15256972208E+03  0.00000000000E+00 0. -1.
          1    1    1    2  502    0  0.49831393616E+02  0.91417783388E+02  0.59564183763E+03  0.60467311636E+03  0.00000000000E+00 0. -1.
         22    1    3    3    0    0 -0.39616336874E+02 -0.15744804759E+03 -0.69399690622E+02  0.17656630170E+03  0.00000000000E+00 0. -1.
         22    1    3    3    0    0  0.71346663976E+01  0.62767681804E+01  0.25357596379E+02  0.27079678313E+02  0.00000000000E+00 0. -1.
</event>
<event>
 7    1  0.8278507E-006  0.4250528E+02  0.7818608E-02  0.1510231E+00
          2   -1    0    0  502    0  0.00000000000E+00  0.00000000000E+00  0.13276766087E+04  0.13276766087E+04  0.00000000000E+00 0. -1.
          1   -1    0    0  501    0 -0.00000000000E+00 -0.00000000000E+00 -0.11569364678E+04  0.11569364678E+04  0.00000000000E+00 0. -1.
         25    2    1    2    0    0 -0.14627901732E+01 -0.64992147327E+01  0.12234965199E+03  0.17503823944E+03  0.12499827350E+03 0.  0.
          2    1    1    2  501    0 -0.14156690903E+02  0.40184047612E+02 -0.11298982588E+04  0.11307012182E+04  0.00000000000E+00 0. -1.
          1    1    1    2  502    0  0.15619481076E+02 -0.33684832879E+02  0.11782887477E+04  0.11788736188E+04  0.00000000000E+00 0. -1.
         22    1    3    3    0    0  0.41075850366E+02 -0.45880162185E+02  0.88792600837E+02  0.10805711790E+03  0.00000000000E+00 0.  1.
         22    1    3    3    0    0 -0.42538640539E+02  0.39380947453E+02  0.33557051150E+02  0.66981121543E+02  0.00000000000E+00 0.  1.
</event>
<event>
 7    1  0.8278507E-006  0.8190207E+02  0.7818608E-02  0.1451441E+00
          2   -1    0    0  502    0  0.00000000000E+00  0.00000000000E+00  0.90592474242E+02  0.90592474242E+02  0.00000000000E+00 0. -1.
          1   -1    0    0  501    0 -0.00000000000E+00 -0.00000000000E+00 -0.78217657404E+03  0.78217657404E+03  0.00000000000E+00 0. -1.
         25    2    1    2    0    0  0.56180524105E+02  0.54040129656E+00 -0.10280465668E+03  0.17132005627E+03  0.12500088368E+03 0.  0.
          2    1    1    2  501    0 -0.83412535450E+02  0.99421787078E+01 -0.63839004443E+03  0.64389311754E+03  0.00000000000E+00 0. -1.
          1    1    1    2  502    0  0.27232011345E+02 -0.10482580004E+02  0.49610601306E+02  0.57555874482E+02  0.00000000000E+00 0. -1.
         22    1    3    3    0    0 -0.33069215258E+02  0.22543823842E+02 -0.54091662044E+02  0.67288222550E+02  0.00000000000E+00 0.  1.
         22    1    3    3    0    0  0.89249739363E+02 -0.22003422546E+02 -0.48712994637E+02  0.10403183372E+03  0.00000000000E+00 0.  1.
</event>
<event>
 7    1  0.8278507E-006  0.1700673E+03  0.7818608E-02  0.1216541E+00
          2   -1    0    0  502    0  0.00000000000E+00  0.00000000000E+00  0.50449802537E+04  0.50449802537E+04  0.00000000000E+00 0. -1.
          1   -1    0    0  501    0 -0.00000000000E+00 -0.00000000000E+00 -0.40144436290E+02  0.40144436290E+02  0.00000000000E+00 0. -1.
         25    2    1    2    0    0 -0.58082443788E+02 -0.23579199635E+03  0.28153081401E+04  0.28285259184E+04  0.12501004693E+03 0.  0.
          2    1    1    2  501    0 -0.14845656374E+02  0.11040065140E+03  0.68825452656E+02  0.13094136197E+03  0.00000000000E+00 0. -1.
          1    1    1    2  502    0  0.72928100162E+02  0.12539134495E+03  0.21207022247E+04  0.21256574096E+04  0.00000000000E+00 0. -1.
         22    1    3    3    0    0  0.24045520377E+01 -0.13349997145E+03  0.93741665113E+03  0.94687802914E+03  0.00000000000E+00 0.  1.
         22    1    3    3    0    0 -0.60486995826E+02 -0.10229202489E+03  0.18778914890E+04  0.18816478893E+04  0.00000000000E+00 0.  1.
</event>
<event>
 7    1  0.8278507E-006  0.5503557E+02  0.7818608E-02  0.1427890E+00
          2   -1    0    0  502    0  0.00000000000E+00  0.00000000000E+00  0.90650961281E+03  0.90650961281E+03  0.00000000000E+00 0. -1.
          1   -1    0    0  501    0 -0.00000000000E+00 -0.00000000000E+00 -0.37942488470E+02  0.37942488470E+02  0.00000000000E+00 0. -1.
         25    2    1    2    0    0  0.33105456139E+02 -0.19317059951E+02  0.11740302760E+03  0.17571996607E+03  0.12499966221E+03 0.  0.
          2    1    1    2  501    0 -0.84471098521E+02  0.12734809688E+02  0.23624488430E+03  0.25121541996E+03  0.00000000000E+00 0. -1.
          1    1    1    2  502    0  0.51365642381E+02  0.65822502634E+01  0.51491921244E+03  0.51751671526E+03  0.00000000000E+00 0. -1.
         22    1    3    3    0    0  0.32246967531E+02  0.38639841255E+02  0.10500886499E+03  0.11644640816E+03  0.00000000000E+00 0. -1.
         22    1    3    3    0    0  0.85848860863E+00 -0.57956901206E+02  0.12394162610E+02  0.59273557906E+02  0.00000000000E+00 0. -1.
</event>
<event>
 7    1  0.8278507E-006  0.5942223E+02  0.7818608E-02  0.1427092E+00
          2   -1    0    0  502    0  0.00000000000E+00  0.00000000000E+00  0.16384738687E+03  0.16384738687E+03  0.00000000000E+00 0. -1.
          1   -1    0    0  501    0 -0.00000000000E+00 -0.00000000000E+00 -0.14285031318E+04  0.14285031318E+04  0.00000000000E+00 0. -1.
         25    2    1    2    0    0 -0.50645487686E+02  0.93335417798E+02 -0.12514826715E+04  0.12621862124E+04  0.12501476717E+03 0.  0.
          2    1    1    2  501    0  0.29907890354E+02 -0.37868956549E+02 -0.16250594939E+03  0.16951909439E+03  0.00000000000E+00 0. -1.
          1    1    1    2  502    0  0.20737597331E+02 -0.55466461249E+02  0.14933287596E+03  0.16064521191E+03  0.00000000000E+00 0. -1.
         22    1    3    3    0    0 -0.57729794916E+02  0.98507364091E+02 -0.60707076070E+03  0.61771460927E+03  0.00000000000E+00 0. -1.
         22    1    3    3    0    0  0.70843072302E+01 -0.51719462928E+01 -0.64441191082E+03  0.64447160313E+03  0.00000000000E+00 0. -1.
</event>
<event>
 7    1  0.8278507E-006  0.4671457E+02  0.7818608E-02  0.1492129E+00
          2   -1    0    0  502    0  0.00000000000E+00  0.00000000000E+00  0.10759766310E+04  0.10759766310E+04  0.00000000000E+00 0. -1.
          1   -1    0    0  501    0 -0.00000000000E+00 -0.00000000000E+00 -0.22660067076E+03  0.22660067076E+03  0.00000000000E+00 0. -1.
         25    2    1    2    0    0  0.25075819102E+02  0.15827163261E+02  0.51372847598E+03  0.52954242398E+03  0.12497574148E+03 0.  0.
          2    1    1    2  501    0 -0.26070720366E+01 -0.46784295033E+02 -0.21551331265E+03  0.22054830540E+03  0.00000000000E+00 0. -1.
          1    1    1    2  502    0 -0.22468747066E+02  0.30957131772E+02  0.55116079692E+03  0.55248657239E+03  0.00000000000E+00 0. -1.
         22    1    3    3    0    0  0.36167319977E+02  0.46689374169E+02  0.47558977219E+03  0.47924274028E+03  0.00000000000E+00 0. -1.
         22    1    3    3    0    0 -0.11091500875E+02 -0.30862210908E+02  0.38138703791E+02  0.50299683703E+02  0.00000000000E+00 0. -1.
</event>
<event>
 7    1  0.8278507E-006  0.2697834E+03  0.7818608E-02  0.1145314E+00
          2   -1    0    0  502    0  0.00000000000E+00  0.00000000000E+00  0.49773588114E+03  0.49773588114E+03  0.00000000000E+00 0. -1.
          1   -1    0    0  501    0 -0.00000000000E+00 -0.00000000000E+00 -0.41034686731E+03  0.41034686731E+03  0.00000000000E+00 0. -1.
         25    2    1    2    0    0  0.38202415263E+03 -0.29410238605E+02  0.74818421751E+01  0.40309784137E+03  0.12499790569E+03 0.  0.
          2    1    1    2  501    0 -0.14484786505E+03  0.58683849731E+02 -0.11708860763E+03  0.19528041445E+03  0.00000000000E+00 0. -1.
          1    1    1    2  502    0 -0.23717628758E+03 -0.29273611125E+02  0.19699577929E+03  0.30970449263E+03  0.00000000000E+00 0. -1.
         22    1    3    3    0    0  0.27324966387E+03 -0.30030126861E+02 -0.51017519908E+02  0.27958893873E+03  0.00000000000E+00 0.  1.
         22    1    3    3    0    0  0.10877448876E+03  0.61988825533E+00  0.58499362083E+02  0.12350890264E+03  0.00000000000E+00 0.  1.
</event>
<event>
 7    1  0.8278507E-006  0.6859373E+02  0.7818608E-02  0.1452216E+00
          2   -1    0    0  502    0  0.00000000000E+00  0.00000000000E+00  0.24578797208E+03  0.24578797208E+03  0.00000000000E+00 0. -1.
          1   -1    0    0  501    0 -0.00000000000E+00 -0.00000000000E+00 -0.40318936335E+03  0.40318936335E+03  0.00000000000E+00 0. -1.
         25    2    1    2    0    0  0.98617602492E+02 -0.16454302405E+02 -0.87234249013E+02  0.18229011996E+03  0.12499479207E+03 0.  0.
          2    1    1    2  501    0 -0.65679869071E+02  0.57171947791E+01 -0.26281047176E+03  0.27095364103E+03  0.00000000000E+00 0. -1.
          1    1    1    2  502    0 -0.32937733421E+02  0.10737107625E+02  0.19264332950E+03  0.19573357444E+03  0.00000000000E+00 0. -1.
         22    1    3    3    0    0  0.11106050909E+03  0.14605707492E+02 -0.96193795630E+02  0.14765164980E+03  0.00000000000E+00 0.  1.
         22    1    3    3    0    0 -0.12442906600E+02 -0.31060009897E+02  0.89595466168E+01  0.34638470160E+02  0.00000000000E+00 0.  1.
</event>
<event>
 7    1  0.8278507E-006  0.1139479E+03  0.7818608E-02  0.1360801E+00
          2   -1    0    0  502    0  0.00000000000E+00  0.00000000000E+00  0.10949499984E+04  0.10949499984E+04  0.00000000000E+00 0. -1.
          1   -1    0    0  501    0 -0.00000000000E+00 -0.00000000000E+00 -0.82907708230E+02  0.82907708230E+02  0.00000000000E+00 0. -1.
         25    2    1    2    0    0 -0.75943930095E+01  0.78762804659E+02  0.40076369612E+03  0.42719738734E+03  0.12499925368E+03 0.  0.
          2    1    1    2  501    0  0.31779175567E+02 -0.11401100788E+03 -0.18185717093E+02  0.11974617415E+03  0.00000000000E+00 0. -1.
          1    1    1    2  502    0 -0.24184782557E+02  0.35248203217E+02  0.62946431111E+03  0.63091414510E+03  0.00000000000E+00 0. -1.
         22    1    3    3    0    0 -0.54493488784E+01  0.84819962234E+02  0.40843814503E+03  0.41718801482E+03  0.00000000000E+00 0.  1.
         22    1    3    3    0    0 -0.21450441310E+01 -0.60571575750E+01 -0.76744489080E+01  0.10009372520E+02  0.00000000000E+00 0.  1.
</event>
<event>
 7    1  0.8278507E-006  0.5415414E+02  0.7818608E-02  0.1448484E+00
          2   -1    0    0  502    0  0.00000000000E+00  0.00000000000E+00  0.22325585099E+04  0.22325585099E+04  0.00000000000E+00 0. -1.
          1   -1    0    0  501    0 -0.00000000000E+00 -0.00000000000E+00 -0.50798624489E+02  0.50798624489E+02  0.00000000000E+00 0. -1.
         25    2    1    2    0    0  0.50190243042E+01  0.29080433386E+02  0.28921645319E+03  0.31645280606E+03  0.12500143780E+03 0.  0.
          2    1    1    2  501    0  0.44799177201E+02 -0.52295489137E+01 -0.22955672860E+02  0.50609064171E+02  0.00000000000E+00 0. -1.
          1    1    1    2  502    0 -0.49818201506E+02 -0.23850884472E+02  0.19154991051E+04  0.19162952642E+04  0.00000000000E+00 0. -1.
         22    1    3    3    0    0  0.14171563744E+02 -0.47013276682E+02  0.82771769882E+02  0.96240569891E+02  0.00000000000E+00 0.  1.
         22    1    3    3    0    0 -0.91525394402E+01  0.76093710069E+02  0.20644468331E+03  0.22021223617E+03  0.00000000000E+00 0.  1.
</event>
<event>
 7    1  0.8278507E-006  0.6609046E+02  0.7818608E-02  0.1492166E+00
          2   -1    0    0  502    0  0.00000000000E+00  0.00000000000E+00  0.65621434012E+03  0.65621434012E+03  0.00000000000E+00 0. -1.
          1   -1    0    0  501    0 -0.00000000000E+00 -0.00000000000E+00 -0.77984704022E+03  0.77984704022E+03  0.00000000000E+00 0. -1.
         25    2    1    2    0    0 -0.36980822924E+02  0.32047781652E+02 -0.73979870112E+02  0.15327204530E+03  0.12499862846E+03 0.  0.
          2    1    1    2  501    0  0.55506190176E+01  0.26454239221E+02 -0.66415711202E+03  0.66470693211E+03  0.00000000000E+00 0. -1.
          1    1    1    2  502    0  0.31430203906E+02 -0.58502020873E+02  0.61450428203E+03  0.61808240292E+03  0.00000000000E+00 0. -1.
         22    1    3    3    0    0 -0.31544147588E+02  0.54759450373E+02 -0.10000892058E+03  0.11830221827E+03  0.00000000000E+00 0. -1.
         22    1    3    3    0    0 -0.54366753358E+01 -0.22711668721E+02  0.26029050464E+02  0.34969827035E+02  0.00000000000E+00 0. -1.
</event>
<event>
 7    1  0.8278507E-006  0.7136779E+02  0.7818608E-02  0.1444627E+00
          2   -1    0    0  502    0  0.00000000000E+00  0.00000000000E+00  0.72627597214E+02  0.72627597214E+02  0.00000000000E+00 0. -1.
          1   -1    0    0  501    0 -0.00000000000E+00 -0.00000000000E+00 -0.79321215501E+03  0.79321215501E+03  0.00000000000E+00 0. -1.
         25    2    1    2    0    0  0.84708285376E+02  0.28956302315E+02 -0.58140923912E+03  0.60139473424E+03  0.12499984796E+03 0.  0.
          2    1    1    2  501    0 -0.63383882720E+02 -0.93066749253E+00 -0.19130551846E+03  0.20153457303E+03  0.00000000000E+00 0. -1.
          1    1    1    2  502    0 -0.21324402656E+02 -0.28025634823E+02  0.52130199779E+02  0.62910444958E+02  0.00000000000E+00 0. -1.
         22    1    3    3    0    0  0.10200157481E+03  0.29615957318E+01 -0.27367313520E+03  0.29207888873E+03  0.00000000000E+00 0.  1.
         22    1    3    3    0    0 -0.17293289437E+02  0.25994706583E+02 -0.30773610392E+03  0.30931584551E+03  0.00000000000E+00 0.  1.
</event>
<event>
 7    1  0.8278507E-006  0.6575540E+02  0.7818608E-02  0.1516854E+00
          2   -1    0    0  502    0  0.00000000000E+00  0.00000000000E+00  0.17079268696E+04  0.17079268696E+04  0.00000000000E+00 0. -1.
          1   -1    0    0  501    0 -0.00000000000E+00 -0.00000000000E+00 -0.25137160912E+02  0.25137160912E+02  0.00000000000E+00 0. -1.
         25    2    1    2    0    0  0.64472423317E+02 -0.71331117214E+01  0.11830245940E+04  0.11913771458E+04  0.12499895628E+03 0.  0.
          2    1    1    2  501    0 -0.64040150228E+02 -0.15815588238E+02  0.31924094969E+02  0.73283159812E+02  0.00000000000E+00 0. -1.
          1    1    1    2  502    0 -0.43227308907E+00  0.22948699960E+02  0.46784101979E+03  0.46840372488E+03  0.00000000000E+00 0. -1.
         22    1    3    3    0    0  0.17686645181E+02 -0.62469862715E+02  0.42999297296E+03  0.43486694282E+03  0.00000000000E+00 0. -1.
         22    1    3    3    0    0  0.46785778136E+02  0.55336750994E+02  0.75303162100E+03  0.75651020301E+03  0.00000000000E+00 0. -1.
</event>
<event>
 7    1  0.8278507E-006  0.8074515E+02  0.7818608E-02  0.1362775E+00
          2   -1    0    0  502    0  0.00000000000E+00  0.00000000000E+00  0.69770634424E+02  0.69770634424E+02  0.00000000000E+00 0. -1.
          1   -1    0    0  501    0 -0.00000000000E+00 -0.00000000000E+00 -0.15031265603E+04  0.15031265603E+04  0.00000000000E+00 0. -1.
         25    2    1    2    0    0  0.13118074553E+03  0.11322534838E+02 -0.22398973898E+03  0.28832745732E+03  0.12499892675E+03 0.  0.
          2    1    1    2  501    0 -0.59207694189E+02  0.38916261386E+01 -0.12095514906E+04  0.12110059885E+04  0.00000000000E+00 0. -1.
          1    1    1    2  502    0 -0.71973051341E+02 -0.15214160977E+02  0.18530369260E+00  0.73563748892E+02  0.00000000000E+00 0. -1.
         22    1    3    3    0    0  0.55496419806E+02  0.47747492264E+02 -0.17822502186E+03  0.19267546301E+03  0.00000000000E+00 0. -1.
         22    1    3    3    0    0  0.75684325724E+02 -0.36424957425E+02 -0.45764717114E+02  0.95651994314E+02  0.00000000000E+00 0. -1.
</event>
<event>
 7    1  0.8278507E-006  0.5770382E+02  0.7818608E-02  0.1413045E+00
          2   -1    0    0  502    0  0.00000000000E+00  0.00000000000E+00  0.42133205814E+03  0.42133205814E+03  0.00000000000E+00 0. -1.
          1   -1    0    0  501    0 -0.00000000000E+00 -0.00000000000E+00 -0.14742784250E+03  0.14742784250E+03  0.00000000000E+00 0. -1.
         25    2    1    2    0    0  0.50742691101E+02 -0.45717459376E+02 -0.33330315308E+02  0.14628814634E+03  0.12499762018E+03 0.  0.
          2    1    1    2  501    0 -0.59596857503E+02 -0.89301773743E+01 -0.39037989269E+02  0.71801797319E+02  0.00000000000E+00 0. -1.
          1    1    1    2  502    0  0.88541664020E+01  0.54647636750E+02  0.34627252022E+03  0.35066995697E+03  0.00000000000E+00 0. -1.
         22    1    3    3    0    0 -0.36628202123E+02 -0.21727829923E+02  0.12996694822E+02  0.44526821807E+02  0.00000000000E+00 0.  1.
         22    1    3    3    0    0  0.87370893224E+02 -0.23989629453E+02 -0.46327010129E+02  0.10176132454E+03  0.00000000000E+00 0.  1.
</event>
<event>
 7    1  0.8278507E-006  0.1796650E+03  0.7818608E-02  0.1258738E+00
          2   -1    0    0  502    0  0.00000000000E+00  0.00000000000E+00  0.59030687050E+03  0.59030687050E+03  0.00000000000E+00 0. -1.
          1   -1    0    0  501    0 -0.00000000000E+00 -0.00000000000E+00 -0.21453823206E+03  0.21453823206E+03  0.00000000000E+00 0. -1.
         25    2    1    2    0    0  0.21949106177E+03 -0.23038528014E+02  0.32664569728E+03  0.41355563395E+03  0.12499500331E+03 0.  0.
          2    1    1    2  501    0 -0.65939136628E+02  0.18816759807E+02 -0.13505230365E+03  0.15146341113E+03  0.00000000000E+00 0. -1.
          1    1    1    2  502    0 -0.15355192515E+03  0.42217682068E+01  0.18417524482E+03  0.23982605748E+03  0.00000000000E+00 0. -1.
         22    1    3    3    0    0  0.22126943739E+03 -0.16043993523E+02  0.33544808195E+03  0.40217283515E+03  0.00000000000E+00 0.  1.
         22    1    3    3    0    0 -0.17783756199E+01 -0.69945344914E+01 -0.88023846710E+01  0.11382798799E+02  0.00000000000E+00 0.  1.
</event>
<event>
 7    1  0.8278507E-006  0.2852900E+03  0.7818608E-02  0.1190276E+00
          2   -1    0    0  502    0  0.00000000000E+00  0.00000000000E+00  0.10828158182E+04  0.10828158182E+04  0.00000000000E+00 0. -1.
          1   -1    0    0  501    0 -0.00000000000E+00 -0.00000000000E+00 -0.27042717216E+04  0.27042717216E+04  0.00000000000E+00 0. -1.
         25    2    1    2    0    0 -0.70265002437E+02 -0.34496553825E+03 -0.26212906766E+03  0.45637168603E+03  0.12500029821E+03 0.  0.
          2    1    1    2  501    0  0.10985057328E+02  0.27968514274E+03 -0.23346730532E+04  0.23513916552E+04  0.00000000000E+00 0. -1.
          1    1    1    2  502    0  0.59279945109E+02  0.65280395504E+02  0.97534621750E+03  0.97932419858E+03  0.00000000000E+00 0. -1.
         22    1    3    3    0    0  0.18679311548E+02 -0.21133427038E+03 -0.16479883192E+03  0.26864427320E+03  0.00000000000E+00 0.  1.
         22    1    3    3    0    0 -0.88944313985E+02 -0.13363126787E+03 -0.97330235738E+02  0.18772741284E+03  0.00000000000E+00 0.  1.
</event>
<event>
 7    1  0.8278507E-006  0.4812526E+02  0.7818608E-02  0.1468106E+00
          2   -1    0    0  502    0  0.00000000000E+00  0.00000000000E+00  0.21718313091E+03  0.21718313091E+03  0.00000000000E+00 0. -1.
          1   -1    0    0  501    0 -0.00000000000E+00 -0.00000000000E+00 -0.11788335171E+03  0.11788335171E+03  0.00000000000E+00 0. -1.
         25    2    1    2    0    0  0.32433765241E+02  0.70443491036E+01  0.14256113846E+03  0.19248481367E+03  0.12500061326E+03 0.  0.
          2    1    1    2  501    0  0.44955127902E+02 -0.17177805126E+02  0.85798313022E+01  0.48884087583E+02  0.00000000000E+00 0. -1.
          1    1    1    2  502    0 -0.77388893143E+02  0.10133456023E+02 -0.51841190562E+02  0.93697581355E+02  0.00000000000E+00 0. -1.
         22    1    3    3    0    0 -0.15214719400E+01 -0.56130921450E+02  0.77101892442E+02  0.95381848577E+02  0.00000000000E+00 0. -1.
         22    1    3    3    0    0  0.33955237181E+02  0.63175270554E+02  0.65459246016E+02  0.97102965097E+02  0.00000000000E+00 0. -1.
</event>
<event>
 7    1  0.8278507E-006  0.2512595E+03  0.7818608E-02  0.1199417E+00
          2   -1    0    0  502    0  0.00000000000E+00  0.00000000000E+00  0.49397073805E+04  0.49397073805E+04  0.00000000000E+00 0. -1.
          1   -1    0    0  501    0 -0.00000000000E+00 -0.00000000000E+00 -0.14867434392E+03  0.14867434392E+03  0.00000000000E+00 0. -1.
         25    2    1    2    0    0 -0.13427231574E+03 -0.19759038837E+03  0.24409604520E+04  0.24558062889E+04  0.12500233553E+03 0.  0.
          2    1    1    2  501    0  0.57632547189E+02  0.24587535605E+03 -0.26818004780E+02  0.25395945856E+03  0.00000000000E+00 0. -1.
          1    1    1    2  502    0  0.76639768555E+02 -0.48284967682E+02  0.23768905894E+04  0.23786159771E+04  0.00000000000E+00 0. -1.
         22    1    3    3    0    0 -0.13701062656E+03 -0.94915721795E+02  0.14598899215E+04  0.14693738424E+04  0.00000000000E+00 0. -1.
         22    1    3    3    0    0  0.27383108183E+01 -0.10267466658E+03  0.98107053050E+03  0.98643244641E+03  0.00000000000E+00 0. -1.
</event>
<event>
 7    1  0.8278507E-006  0.4198651E+02  0.7818608E-02  0.1572089E+00
          2   -1    0    0  502    0  0.00000000000E+00  0.00000000000E+00  0.18059295463E+04  0.18059295463E+04  0.00000000000E+00 0. -1.
          1   -1    0    0  501    0 -0.00000000000E+00 -0.00000000000E+00 -0.18719727342E+04  0.18719727342E+04  0.00000000000E+00 0. -1.
         25    2    1    2    0    0 -0.47907135387E+02 -0.93834389800E+01  0.24458949899E+03  0.27898356550E+03  0.12499865701E+03 0.  0.
          2    1    1    2  501    0  0.39475593413E+02 -0.14302277363E+02 -0.18544357198E+04  0.18549109727E+04  0.00000000000E+00 0. -1.
          1    1    1    2  502    0  0.84315419742E+01  0.23685716343E+02  0.15438030329E+04  0.15440077423E+04  0.00000000000E+00 0. -1.
         22    1    3    3    0    0  0.35584741021E+02  0.20549253814E+02  0.47191479994E+02  0.62574606750E+02  0.00000000000E+00 0.  1.
         22    1    3    3    0    0 -0.83491876409E+02 -0.29932692794E+02  0.19739801900E+03  0.21640895875E+03  0.00000000000E+00 0.  1.
</event>
<event>
 7    1  0.8278507E-006  0.1243459E+03  0.7818608E-02  0.1394317E+00
          2   -1    0    0  502    0  0.00000000000E+00  0.00000000000E+00  0.33192000887E+03  0.33192000887E+03  0.00000000000E+00 0. -1.
          1   -1    0    0  501    0 -0.00000000000E+00 -0.00000000000E+00 -0.21696443895E+04  0.21696443895E+04  0.00000000000E+00 0. -1.
         25    2    1    2    0    0 -0.32515508596E+02  0.10081080545E+03 -0.21998194736E+03  0.27429775873E+03  0.12500850566E+03 0.  0.
          2    1    1    2  501    0  0.17955138473E+02  0.23750086546E+02 -0.19094821785E+04  0.19097142832E+04  0.00000000000E+00 0. -1.
          1    1    1    2  502    0  0.14560370123E+02 -0.12456089200E+03  0.29173974516E+03  0.31755235647E+03  0.00000000000E+00 0. -1.
         22    1    3    3    0    0 -0.10869168068E+02  0.77610104144E+02 -0.33655283278E+02  0.85288599310E+02  0.00000000000E+00 0.  1.
         22    1    3    3    0    0 -0.21646340527E+02  0.23200701310E+02 -0.18632666408E+03  0.18900915942E+03  0.00000000000E+00 0.  1.
</event>
<event>
 7    1  0.8278507E-006  0.5957725E+02  0.7818608E-02  0.1441451E+00
          2   -1    0    0  502    0  0.00000000000E+00  0.00000000000E+00  0.71435542490E+02  0.71435542490E+02  0.00000000000E+00 0. -1.
          1   -1    0    0  501    0 -0.00000000000E+00 -0.00000000000E+00 -0.11752800312E+04  0.11752800312E+04  0.00000000000E+00 0. -1.
         25    2    1    2    0    0 -0.15141926607E+02  0.77930931753E+02 -0.37495120793E+03  0.40313315886E+03  0.12500170950E+03 0.  0.
          2    1    1    2  501    0 -0.25532997610E+02 -0.34839461849E+02 -0.77016142211E+03  0.77137172503E+03  0.00000000000E+00 0. -1.
          1    1    1    2  502    0  0.40674924217E+02 -0.43091469903E+02  0.41268141305E+02  0.72210689827E+02  0.00000000000E+00 0. -1.
         22    1    3    3    0    0 -0.36546274558E+02  0.85517895779E+02 -0.14629963971E+03  0.17335664181E+03  0.00000000000E+00 0. -1.
         22    1    3    3    0    0  0.21404347951E+02 -0.75869640262E+01 -0.22865156823E+03  0.22977651705E+03  0.00000000000E+00 0. -1.
</event>
<event>
 7    1  0.8278507E-006  0.1642536E+03  0.7818608E-02  0.1261671E+00
          2   -1    0    0  502    0  0.00000000000E+00  0.00000000000E+00  0.22384084251E+04  0.22384084251E+04  0.00000000000E+00 0. -1.
          1   -1    0    0  501    0 -0.00000000000E+00 -0.00000000000E+00 -0.57652951791E+03  0.57652951791E+03  0.00000000000E+00 0. -1.
         25    2    1    2    0    0 -0.24811190979E+02 -0.23333334988E+03  0.71927360665E+03  0.76683766222E+03  0.12500172642E+03 0.  0.
          2    1    1    2  501    0  0.28763314265E+02  0.16056512778E+03 -0.53979821550E+03  0.56390655428E+03  0.00000000000E+00 0. -1.
          1    1    1    2  502    0 -0.39521232854E+01  0.72768222097E+02  0.14824035160E+04  0.14841937265E+04  0.00000000000E+00 0. -1.
         22    1    3    3    0    0 -0.89925555872E+01 -0.12676318877E+03  0.20341675591E+03  0.23985026301E+03  0.00000000000E+00 0.  1.
         22    1    3    3    0    0 -0.15818635392E+02 -0.10657016111E+03  0.51585685075E+03  0.52698739921E+03  0.00000000000E+00 0.  1.
</event>
<event>
 7    1  0.8278507E-006  0.5011195E+02  0.7818608E-02  0.1549903E+00
          2   -1    0    0  502    0  0.00000000000E+00  0.00000000000E+00  0.92479599321E+02  0.92479599321E+02  0.00000000000E+00 0. -1.
          1   -1    0    0  501    0 -0.00000000000E+00 -0.00000000000E+00 -0.66871929227E+03  0.66871929227E+03  0.00000000000E+00 0. -1.
         25    2    1    2    0    0 -0.44081790681E+02  0.51669316806E+01 -0.34747450328E+03  0.37193186779E+03  0.12499952956E+03 0.  0.
          2    1    1    2  501    0  0.42835825584E+02 -0.29376357574E+02 -0.30493793088E+03  0.30932995333E+03  0.00000000000E+00 0. -1.
          1    1    1    2  502    0  0.12459650970E+01  0.24209425894E+02  0.76172741217E+02  0.79937070472E+02  0.00000000000E+00 0. -1.
         22    1    3    3    0    0 -0.77638071939E+02  0.82103124277E+01 -0.12832889427E+03  0.15021113324E+03  0.00000000000E+00 0. -1.
         22    1    3    3    0    0  0.33556281259E+02 -0.30433807472E+01 -0.21914560901E+03  0.22172073454E+03  0.00000000000E+00 0. -1.
</event>
<event>
 7    1  0.8278507E-006  0.8822288E+02  0.7818608E-02  0.1389617E+00
          2   -1    0    0  502    0  0.00000000000E+00  0.00000000000E+00  0.10027612647E+04  0.10027612647E+04  0.00000000000E+00 0. -1.
          1   -1    0    0  501    0 -0.00000000000E+00 -0.00000000000E+00 -0.44662614770E+02  0.44662614770E+02  0.00000000000E+00 0. -1.
         25    2    1    2    0    0 -0.94414307137E+02 -0.21883709566E+02  0.18091911802E+03  0.24030657060E+03  0.12499024951E+03 0.  0.
          2    1    1    2  501    0  0.26528953745E+02 -0.34567862094E+02  0.25947603691E+02  0.50714895384E+02  0.00000000000E+00 0. -1.
          1    1    1    2  502    0  0.67885353392E+02  0.56451571659E+02  0.75123192823E+03  0.75640241350E+03  0.00000000000E+00 0. -1.
         22    1    3    3    0    0  0.15182651382E+02  0.15103991260E+02  0.91859787253E+02  0.94323188926E+02  0.00000000000E+00 0.  1.
         22    1    3    3    0    0 -0.10959695852E+03 -0.36987700826E+02  0.89059330764E+02  0.14598338167E+03  0.00000000000E+00 0.  1.
</event>
<event>
 7    1  0.8278507E-006  0.9580199E+02  0.7818608E-02  0.1345694E+00
          2   -1    0    0  502    0  0.00000000000E+00  0.00000000000E+00  0.51480583676E+02  0.51480583676E+02  0.00000000000E+00 0. -1.
          1   -1    0    0  501    0 -0.00000000000E+00 -0.00000000000E+00 -0.26115699541E+04  0.26115699541E+04  0.00000000000E+00 0. -1.
         25    2    1    2    0    0  0.71134739234E+02 -0.62639108927E+02 -0.20512442748E+04  0.20572342154E+04  0.12500293215E+03 0.  0.
          2    1    1    2  501    0 -0.48804987655E+02 -0.30969538400E+02 -0.50625736610E+03  0.50954642562E+03  0.00000000000E+00 0. -1.
          1    1    1    2  502    0 -0.22329751579E+02  0.93608647327E+02 -0.25877294352E+01  0.96269896663E+02  0.00000000000E+00 0. -1.
         22    1    3    3    0    0  0.85787440280E+02 -0.45858128936E+02 -0.19842502208E+04  0.19866331800E+04  0.00000000000E+00 0. -1.
         22    1    3    3    0    0 -0.14652701046E+02 -0.16780979991E+02 -0.66994054007E+02  0.70601035472E+02  0.00000000000E+00 0. -1.
</event>
<event>
 7    1  0.8278507E-006  0.1192001E+03  0.7818608E-02  0.1294772E+00
          2   -1    0    0  502    0  0.00000000000E+00  0.00000000000E+00  0.86936690409E+03  0.86936690409E+03  0.00000000000E+00 0. -1.
          1   -1    0    0  501    0 -0.00000000000E+00 -0.00000000000E+00 -0.50053407078E+03  0.50053407078E+03  0.00000000000E+00 0. -1.
         25    2    1    2    0    0  0.80916547626E+02  0.12694500051E+03  0.16710708236E+03  0.25731833255E+03  0.12500170582E+03 0.  0.
          2    1    1    2  501    0 -0.72552266229E+02 -0.98463788941E+01 -0.44718436044E+03  0.45313864846E+03  0.00000000000E+00 0. -1.
          1    1    1    2  502    0 -0.83642813966E+01 -0.11709862161E+03  0.64891011139E+03  0.65944399387E+03  0.00000000000E+00 0. -1.
         22    1    3    3    0    0  0.67169193145E+02  0.80110650562E+02  0.25604165612E+02  0.10763359205E+03  0.00000000000E+00 0. -1.
         22    1    3    3    0    0  0.13747354481E+02  0.46834349943E+02  0.14150291675E+03  0.14968474050E+03  0.00000000000E+00 0. -1.
</event>
<event>
 7    1  0.8278507E-006  0.4931478E+02  0.7818608E-02  0.1498499E+00
          2   -1    0    0  502    0  0.00000000000E+00  0.00000000000E+00  0.32075797059E+03  0.32075797059E+03  0.00000000000E+00 0. -1.
          1   -1    0    0  501    0 -0.00000000000E+00 -0.00000000000E+00 -0.19826946712E+03  0.19826946712E+03  0.00000000000E+00 0. -1.
         25    2    1    2    0    0 -0.37143370956E+01 -0.35739567418E+02 -0.13504690484E+03  0.18749295853E+03  0.12499932006E+03 0.  0.
          2    1    1    2  501    0  0.28305633112E+02  0.60183285613E+02 -0.50227078549E+01  0.66696808973E+02  0.00000000000E+00 0. -1.
          1    1    1    2  502    0 -0.24591296016E+02 -0.24443718195E+02  0.26255811616E+03  0.26483767020E+03  0.00000000000E+00 0. -1.
         22    1    3    3    0    0 -0.22170897145E+02 -0.79374654274E+02 -0.91494407782E+02  0.12313858484E+03  0.00000000000E+00 0. -1.
         22    1    3    3    0    0  0.18456560050E+02  0.43635086857E+02 -0.43552497054E+02  0.64354373694E+02  0.00000000000E+00 0. -1.
</event>
<event>
 7    1  0.8278507E-006  0.7952224E+02  0.7818608E-02  0.1372755E+00
          2   -1    0    0  502    0  0.00000000000E+00  0.00000000000E+00  0.13703848127E+03  0.13703848127E+03  0.00000000000E+00 0. -1.
          1   -1    0    0  501    0 -0.00000000000E+00 -0.00000000000E+00 -0.17148159400E+04  0.17148159400E+04  0.00000000000E+00 0. -1.
         25    2    1    2    0    0 -0.11450206173E+03  0.63182609697E+02 -0.35131000187E+03  0.39515357732E+03  0.12499947176E+03 0.  0.
          2    1    1    2  501    0  0.41255044253E+02 -0.37058100978E+02 -0.13278053588E+04  0.13289628860E+04  0.00000000000E+00 0. -1.
          1    1    1    2  502    0  0.73247017481E+02 -0.26124508720E+02  0.10133790196E+03  0.12773795794E+03  0.00000000000E+00 0. -1.
         22    1    3    3    0    0 -0.77174147067E+01 -0.29171701218E+02 -0.23541671064E+02  0.38272142849E+02  0.00000000000E+00 0.  1.
         22    1    3    3    0    0 -0.10678464703E+03  0.92354310916E+02 -0.32776833081E+03  0.35688143447E+03  0.00000000000E+00 0.  1.
</event>
<event>
 7    1  0.8278507E-006  0.3034613E+02  0.7818608E-02  0.1613380E+00
          2   -1    0    0  502    0  0.00000000000E+00  0.00000000000E+00  0.56326985198E+03  0.56326985198E+03  0.00000000000E+00 0. -1.
          1   -1    0    0  501    0 -0.00000000000E+00 -0.00000000000E+00 -0.97481226810E+02  0.97481226810E+02  0.00000000000E+00 0. -1.
         25    2    1    2    0    0  0.12844526817E+02 -0.92920481153E+01  0.48539234361E+03  0.50148021555E+03  0.12500142131E+03 0.  0.
          2    1    1    2  501    0  0.25374845993E+02 -0.94269744652E+01 -0.80527312912E+02  0.84955275184E+02  0.00000000000E+00 0. -1.
          1    1    1    2  502    0 -0.38219372810E+02  0.18719022581E+02  0.60923594474E+02  0.74315588055E+02  0.00000000000E+00 0. -1.
         22    1    3    3    0    0  0.41465368886E+02  0.25754934277E+01  0.50091858161E+02  0.65078446795E+02  0.00000000000E+00 0.  1.
         22    1    3    3    0    0 -0.28620842069E+02 -0.11867541543E+02  0.43530048545E+03  0.43640176876E+03  0.00000000000E+00 0.  1.
</event>
<event>
 7    1  0.8278507E-006  0.1124351E+03  0.7818608E-02  0.1323595E+00
          2   -1    0    0  502    0  0.00000000000E+00  0.00000000000E+00  0.41071270095E+03  0.41071270095E+03  0.00000000000E+00 0. -1.
          1   -1    0    0  501    0 -0.00000000000E+00 -0.00000000000E+00 -0.25824538848E+03  0.25824538848E+03  0.00000000000E+00 0. -1.
         25    2    1    2    0    0  0.72725328769E+02  0.55229207795E+01  0.16065923618E+02  0.14561204883E+03  0.12500111506E+03 0.  0.
          2    1    1    2  501    0  0.34299559819E+02  0.48908073048E+02 -0.17749020183E+03  0.18727314586E+03  0.00000000000E+00 0. -1.
          1    1    1    2  502    0 -0.10702488859E+03 -0.54430993828E+02  0.31389159069E+03  0.33607289473E+03  0.00000000000E+00 0. -1.
         22    1    3    3    0    0  0.62986895746E+02 -0.25677899208E+02 -0.41308389472E+02  0.79580692283E+02  0.00000000000E+00 0. -1.
         22    1    3    3    0    0  0.97384330231E+01  0.31200819987E+02  0.57374313089E+02  0.66031356552E+02  0.00000000000E+00 0. -1.
</event>
<event>
 7    1  0.8278507E-006  0.8582803E+02  0.7818608E-02  0.1314778E+00
          2   -1    0    0  502    0  0.00000000000E+00  0.00000000000E+00  0.93761856146E+03  0.93761856146E+03  0.00000000000E+00 0. -1.
          1   -1    0    0  501    0 -0.00000000000E+00 -0.00000000000E+00 -0.33944405919E+03  0.33944405919E+03  0.00000000000E+00 0. -1.
         25    2    1    2    0    0  0.56326144474E+02  0.19084086507E+01  0.37968945098E+03  0.40368982964E+03  0.12500049119E+03 0.  0.
          2    1    1    2  501    0  0.18900099904E+01  0.85807220611E+02 -0.31660111694E+03  0.32802853305E+03  0.00000000000E+00 0. -1.
          1    1    1    2  502    0 -0.58216154464E+02 -0.87715629261E+02  0.53508616823E+03  0.54534425796E+03  0.00000000000E+00 0. -1.
         22    1    3    3    0    0 -0.33346888574E+02  0.24421175850E+02  0.79759713031E+02  0.89833293551E+02  0.00000000000E+00 0. -1.
         22    1    3    3    0    0  0.89673033048E+02 -0.22512767199E+02  0.29992973795E+03  0.31385653609E+03  0.00000000000E+00 0. -1.
</event>
<event>
 7    1  0.8278507E-006  0.4592406E+02  0.7818608E-02  0.1482826E+00
          2   -1    0    0  502    0  0.00000000000E+00  0.00000000000E+00  0.86520252573E+03  0.86520252573E+03  0.00000000000E+00 0. -1.
          1   -1    0    0  501    0 -0.00000000000E+00 -0.00000000000E+00 -0.29174323659E+03  0.29174323659E+03  0.00000000000E+00 0. -1.
         25    2    1    2    0    0 -0.43889831870E+02  0.31100978404E+02  0.15365701723E+03  0.20525641604E+03  0.12500451666E+03 0.  0.
          2    1    1    2  501    0 -0.11389581343E+01 -0.41508939088E+02 -0.26353731463E+03  0.26678869063E+03  0.00000000000E+00 0. -1.
          1    1    1    2  502    0  0.45028790004E+02  0.10407960684E+02  0.68333958653E+03  0.68490065564E+03  0.00000000000E+00 0. -1.
         22    1    3    3    0    0  0.16857201822E+02  0.63606328783E+02  0.89715380281E+02  0.11125996483E+03  0.00000000000E+00 0.  1.
         22    1    3    3    0    0 -0.60747033692E+02 -0.32505350379E+02  0.63941636950E+02  0.93996451217E+02  0.00000000000E+00 0.  1.
</event>
<event>
 7    1  0.8278507E-006  0.7733413E+02  0.7818608E-02  0.1436926E+00
          2   -1    0    0  502    0  0.00000000000E+00  0.00000000000E+00  0.16923434954E+04  0.16923434954E+04  0.00000000000E+00 0. -1.
          1   -1    0    0  501    0 -0.00000000000E+00 -0.00000000000E+00 -0.79928722373E+03  0.79928722373E+03  0.00000000000E+00 0. -1.
         25    2    1    2    0    0  0.47465415801E+02 -0.14512612684E+02  0.40888229178E+03  0.43043623403E+03  0.12500816536E+03 0.  0.
          2    1    1    2  501    0 -0.62839743556E+02  0.45310445523E+02 -0.78637367548E+03  0.79018062956E+03  0.00000000000E+00 0. -1.
          1    1    1    2  502    0  0.15374327755E+02 -0.30797832839E+02  0.12705476554E+04  0.12710138556E+04  0.00000000000E+00 0. -1.
         22    1    3    3    0    0  0.54115892523E+02 -0.34827522327E+02  0.40321997863E+03  0.40832320202E+03  0.00000000000E+00 0. -1.
         22    1    3    3    0    0 -0.66504767215E+01  0.20314909644E+02  0.56623131465E+01  0.22113032009E+02  0.00000000000E+00 0. -1.
</event>
<event>
 7    1  0.8278507E-006  0.5394048E+02  0.7818608E-02  0.1494381E+00
          2   -1    0    0  502    0  0.00000000000E+00  0.00000000000E+00  0.50566577135E+03  0.50566577135E+03  0.00000000000E+00 0. -1.
          1   -1    0    0  501    0 -0.00000000000E+00 -0.00000000000E+00 -0.22598457621E+03  0.22598457621E+03  0.00000000000E+00 0. -1.
         25    2    1    2    0    0  0.66731212012E+02  0.33248021389E+02  0.26157024106E+03  0.29933578417E+03  0.12499774035E+03 0.  0.
          2    1    1    2  501    0 -0.32252457504E+02  0.48432592331E+01 -0.20285195520E+03  0.20545703663E+03  0.00000000000E+00 0. -1.
          1    1    1    2  502    0 -0.34478754509E+02 -0.38091280622E+02  0.22096290928E+03  0.22685752676E+03  0.00000000000E+00 0. -1.
         22    1    3    3    0    0  0.37348811653E+02 -0.18291620771E+02  0.22677782671E+03  0.23055953637E+03  0.00000000000E+00 0.  1.
         22    1    3    3    0    0  0.29382400359E+02  0.51539642160E+02  0.34792414345E+02  0.68776247795E+02  0.00000000000E+00 0.  1.
</event>
<event>
 7    1  0.8278507E-006  0.1322893E+03  0.7818608E-02  0.1360714E+00
          2   -1    0    0  502    0  0.00000000000E+00  0.00000000000E+00  0.20390669699E+04  0.20390669699E+04  0.00000000000E+00 0. -1.
          1   -1    0    0  501    0 -0.00000000000E+00 -0.00000000000E+00 -0.39442685127E+03  0.39442685127E+03  0.00000000000E+00 0. -1.
         25    2    1    2    0    0 -0.50883080223E+02  0.15674427744E+03 -0.15070797515E+03  0.25591693015E+03  0.12499089967E+03 0.  0.
          2    1    1    2  501    0 -0.37860257313E+01 -0.36652423112E+02 -0.18712454453E+03  0.19071793119E+03  0.00000000000E+00 0. -1.
          1    1    1    2  502    0  0.54669105955E+02 -0.12009185433E+03  0.19824726383E+04  0.19868589598E+04  0.00000000000E+00 0. -1.
         22    1    3    3    0    0 -0.39216438170E+02  0.16994566198E+03 -0.15939329158E+03  0.23627458274E+03  0.00000000000E+00 0.  1.
         22    1    3    3    0    0 -0.11666642054E+02 -0.13201384539E+02  0.86853164236E+01  0.19642347414E+02  0.00000000000E+00 0.  1.
</event>
<event>
 7    1  0.8278507E-006  0.7519953E+02  0.7818608E-02  0.1418819E+00
          2   -1    0    0  502    0  0.00000000000E+00  0.00000000000E+00  0.36006602332E+03  0.36006602332E+03  0.00000000000E+00 0. -1.
          1   -1    0    0  501    0 -0.00000000000E+00 -0.00000000000E+00 -0.16792953924E+04  0.16792953924E+04  0.00000000000E+00 0. -1.
         25    2    1    2    0    0  0.85761054434E+01  0.10947866654E+03 -0.31950127060E+03  0.36022996135E+03  0.12500174051E+03 0.  0.
          2    1    1    2  501    0  0.13975265157E+02 -0.38144957401E+02 -0.13349979427E+04  0.13356159077E+04  0.00000000000E+00 0. -1.
          1    1    1    2  502    0 -0.22551370600E+02 -0.71333709135E+02  0.33526984422E+03  0.34351554669E+03  0.00000000000E+00 0. -1.
         22    1    3    3    0    0 -0.32519348024E+02  0.23966517510E+02 -0.18131673292E+02  0.44279335291E+02  0.00000000000E+00 0. -1.
         22    1    3    3    0    0  0.41095453468E+02  0.85512149026E+02 -0.30136959731E+03  0.31595062606E+03  0.00000000000E+00 0. -1.
</event>
<event>
 7    1  0.8278507E-006  0.7815032E+02  0.7818608E-02  0.1497683E+00
          2   -1    0    0  502    0  0.00000000000E+00  0.00000000000E+00  0.11195745477E+04  0.11195745477E+04  0.00000000000E+00 0. -1.
          1   -1    0    0  501    0 -0.00000000000E+00 -0.00000000000E+00 -0.58145183975E+02  0.58145183975E+02  0.00000000000E+00 0. -1.
         25    2    1    2    0    0  0.13250899423E+02  0.83329025803E+02  0.18531581870E+03  0.23892792354E+03  0.12500114843E+03 0.  0.
          2    1    1    2  501    0  0.18372424931E+02 -0.12107098488E+02 -0.25577755775E+02  0.33739434230E+02  0.00000000000E+00 0. -1.
          1    1    1    2  502    0 -0.31623324354E+02 -0.71221927315E+02  0.90169130083E+03  0.90505237393E+03  0.00000000000E+00 0. -1.
         22    1    3    3    0    0 -0.49108380693E+02  0.30336329109E+02  0.12365254779E+03  0.13646200384E+03  0.00000000000E+00 0.  1.
         22    1    3    3    0    0  0.62359280116E+02  0.52992696693E+02  0.61663270908E+02  0.10246591969E+03  0.00000000000E+00 0.  1.
</event>
<event>
 7    1  0.8278507E-006  0.8404734E+02  0.7818608E-02  0.1321146E+00
          2   -1    0    0  502    0  0.00000000000E+00  0.00000000000E+00  0.19202750610E+04  0.19202750610E+04  0.00000000000E+00 0. -1.
          1   -1    0    0  501    0 -0.00000000000E+00 -0.00000000000E+00 -0.28063679407E+03  0.28063679407E+03  0.00000000000E+00 0. -1.
         25    2    1    2    0    0  0.23599307387E+02 -0.15122287762E+01  0.80399097542E+03  0.81399381122E+03  0.12500088799E+03 0.  0.
          2    1    1    2  501    0 -0.27558031769E+02 -0.80066058262E+02 -0.26758683523E+03  0.28066480575E+03  0.00000000000E+00 0. -1.
          1    1    1    2  502    0  0.39587243826E+01  0.81578287038E+02  0.11032341268E+04  0.11062532382E+04  0.00000000000E+00 0. -1.
         22    1    3    3    0    0 -0.50466002481E+02  0.43437955142E+00  0.24756763005E+03  0.25265933100E+03  0.00000000000E+00 0. -1.
         22    1    3    3    0    0  0.74065309868E+02 -0.19466083276E+01  0.55642334537E+03  0.56133448022E+03  0.00000000000E+00 0. -1.
</event>
<event>
 7    1  0.8278507E-006  0.1098327E+03  0.7818608E-02  0.1424707E+00
          2   -1    0    0  502    0  0.00000000000E+00  0.00000000000E+00  0.22640550021E+04  0.22640550021E+04  0.00000000000E+00 0. -1.
          1   -1    0    0  501    0 -0.00000000000E+00 -0.00000000000E+00 -0.11182747876E+04  0.11182747876E+04  0.00000000000E+00 0. -1.
         25    2    1    2    0    0 -0.63856736807E+02  0.11974132184E+03  0.40690408504E+02  0.18893576163E+03  0.12500138274E+03 0.  0.
          2    1    1    2  501    0  0.15187794639E+02 -0.21821148977E+02 -0.10425916975E+04  0.10429306206E+04  0.00000000000E+00 0. -1.
          1    1    1    2  502    0  0.48668942168E+02 -0.97920172864E+02  0.21476815035E+04  0.21504634074E+04  0.00000000000E+00 0. -1.
         22    1    3    3    0    0 -0.46888538369E+02  0.12793355507E+03 -0.82384605765E+01  0.13650421890E+03  0.00000000000E+00 0. -1.
         22    1    3    3    0    0 -0.16968198438E+02 -0.81922332337E+01  0.48928869081E+02  0.52431542730E+02  0.00000000000E+00 0. -1.
</event>
<event>
 7    1  0.8278507E-006  0.1919653E+03  0.7818608E-02  0.1333449E+00
          2   -1    0    0  502    0  0.00000000000E+00  0.00000000000E+00  0.56811191960E+03  0.56811191960E+03  0.00000000000E+00 0. -1.
          1   -1    0    0  501    0 -0.00000000000E+00 -0.00000000000E+00 -0.73447998675E+03  0.73447998675E+03  0.00000000000E+00 0. -1.
         25    2    1    2    0    0 -0.15949146186E+03 -0.38056088751E+02 -0.27914414106E+03  0.34703376332E+03  0.12500075638E+03 0.  0.
          2    1    1    2  501    0 -0.31446511451E+02  0.63274398719E+01 -0.40319928888E+03  0.40447322054E+03  0.00000000000E+00 0. -1.
          1    1    1    2  502    0  0.19093797331E+03  0.31728648879E+02  0.51597536279E+03  0.55108492251E+03  0.00000000000E+00 0. -1.
         22    1    3    3    0    0 -0.65758323590E+02 -0.23526815802E+02 -0.22966956507E+03  0.24005369671E+03  0.00000000000E+00 0. -1.
         22    1    3    3    0    0 -0.93733138272E+02 -0.14529272948E+02 -0.49474575989E+02  0.10698006661E+03  0.00000000000E+00 0. -1.
</event>
<event>
 7    1  0.8278507E-006  0.6159519E+02  0.7818608E-02  0.1407350E+00
          2   -1    0    0  502    0  0.00000000000E+00  0.00000000000E+00  0.31005540948E+04  0.31005540948E+04  0.00000000000E+00 0. -1.
          1   -1    0    0  501    0 -0.00000000000E+00 -0.00000000000E+00 -0.43539127347E+03  0.43539127347E+03  0.00000000000E+00 0. -1.
         25    2    1    2    0    0 -0.31724444852E+02  0.30211566764E+02  0.21416518232E+04  0.21457439102E+04  0.12500087006E+03 0.  0.
          2    1    1    2  501    0 -0.50114829655E+02 -0.20691873073E+02 -0.42986558836E+03  0.43327136280E+03  0.00000000000E+00 0. -1.
          1    1    1    2  502    0  0.81839274507E+02 -0.95196936909E+01  0.95337658656E+03  0.95693009526E+03  0.00000000000E+00 0. -1.
         22    1    3    3    0    0  0.23221328518E+02  0.54594924115E+02  0.60135086984E+03  0.60427039022E+03  0.00000000000E+00 0.  1.
         22    1    3    3    0    0 -0.54945773370E+02 -0.24383357350E+02  0.15403009533E+04  0.15414735200E+04  0.00000000000E+00 0.  1.
</event>
<event>
 7    1  0.8278507E-006  0.7649536E+02  0.7818608E-02  0.1345974E+00
          2   -1    0    0  502    0  0.00000000000E+00  0.00000000000E+00  0.40929781131E+03  0.40929781131E+03  0.00000000000E+00 0. -1.
          1   -1    0    0  501    0 -0.00000000000E+00 -0.00000000000E+00 -0.52784362077E+03  0.52784362077E+03  0.00000000000E+00 0. -1.
         25    2    1    2    0    0 -0.88667252603E+02  0.10877130569E+03 -0.10245377748E+02  0.18821203779E+03  0.12500289909E+03 0.  0.
          2    1    1    2  501    0  0.61439725485E+02 -0.41884281380E+02 -0.42124648398E+03  0.42775896619E+03  0.00000000000E+00 0. -1.
          1    1    1    2  502    0  0.27227527119E+02 -0.66887024305E+02  0.31294605226E+03  0.32117042809E+03  0.00000000000E+00 0. -1.
         22    1    3    3    0    0  0.25109090050E+02  0.75753018875E+01 -0.23701889828E+02  0.35350122818E+02  0.00000000000E+00 0. -1.
         22    1    3    3    0    0 -0.11377634265E+03  0.10119600380E+03  0.13456512080E+02  0.15286191497E+03  0.00000000000E+00 0. -1.
</event>
<event>
 7    1  0.8278507E-006  0.6024300E+02  0.7818608E-02  0.1480270E+00
          2   -1    0    0  502    0  0.00000000000E+00  0.00000000000E+00  0.10818103826E+04  0.10818103826E+04  0.00000000000E+00 0. -1.
          1   -1    0    0  501    0 -0.00000000000E+00 -0.00000000000E+00 -0.88815749068E+03  0.88815749068E+03  0.00000000000E+00 0. -1.
         25    2    1    2    0    0 -0.91926489502E+02 -0.60535328851E+01  0.59798633963E+03  0.61781857782E+03  0.12500003194E+03 0.  0.
          2    1    1    2  501    0  0.60187476412E+02  0.44794508625E+00 -0.87666029394E+03  0.87872407726E+03  0.00000000000E+00 0. -1.
          1    1    1    2  502    0  0.31739013090E+02  0.56055877989E+01  0.47232684624E+03  0.47342521822E+03  0.00000000000E+00 0. -1.
         22    1    3    3    0    0  0.28238408714E+02  0.39136286374E+01  0.19834763577E+03  0.20038589979E+03  0.00000000000E+00 0.  1.
         22    1    3    3    0    0 -0.12016489822E+03 -0.99671615225E+01  0.39963870386E+03  0.41743267804E+03  0.00000000000E+00 0.  1.
</event>
<event>
 7    1  0.8278507E-006  0.2088862E+03  0.7818608E-02  0.1155552E+00
          2   -1    0    0  502    0  0.00000000000E+00  0.00000000000E+00  0.10282104520E+03  0.10282104520E+03  0.00000000000E+00 0. -1.
          1   -1    0    0  501    0 -0.00000000000E+00 -0.00000000000E+00 -0.28520166438E+04  0.28520166438E+04  0.00000000000E+00 0. -1.
         25    2    1    2    0    0  0.73625918199E+02  0.34120244444E+02 -0.27065113432E+03  0.30896811738E+03  0.12499717651E+03 0.  0.
          2    1    1    2  501    0  0.30252558580E+02 -0.21534578810E+03 -0.24188718298E+04  0.24286271749E+04  0.00000000000E+00 0. -1.
          1    1    1    2  502    0 -0.10387847678E+03  0.18122554365E+03 -0.59672634456E+02  0.21724239668E+03  0.00000000000E+00 0. -1.
         22    1    3    3    0    0  0.50456250333E+02 -0.42877875643E+02 -0.15015877689E+03  0.16410973065E+03  0.00000000000E+00 0.  1.
         22    1    3    3    0    0  0.23169667866E+02  0.76998120087E+02 -0.12049235744E+03  0.14485838673E+03  0.00000000000E+00 0.  1.
</event>
<event>
 7    1  0.8278507E-006  0.5282349E+02  0.7818608E-02  0.1512018E+00
          2   -1    0    0  502    0  0.00000000000E+00  0.00000000000E+00  0.19296710160E+03  0.19296710160E+03  0.00000000000E+00 0. -1.
          1   -1    0    0  501    0 -0.00000000000E+00 -0.00000000000E+00 -0.59149152010E+03  0.59149152010E+03  0.00000000000E+00 0. -1.
         25    2    1    2    0    0  0.93398316253E+01  0.66469765115E+02  0.59880459865E+01  0.14200917057E+03  0.12500114280E+03 0.  0.
          2    1    1    2  501    0 -0.28690032846E+02 -0.44178740702E+02 -0.52029935969E+03  0.52295917891E+03  0.00000000000E+00 0. -1.
          1    1    1    2  502    0  0.19350201221E+02 -0.22291024413E+02  0.11578689520E+03  0.11949027222E+03  0.00000000000E+00 0. -1.
         22    1    3    3    0    0  0.39372574059E+02  0.62889504701E+01  0.48236706823E+02  0.62582188929E+02  0.00000000000E+00 0.  1.
         22    1    3    3    0    0 -0.30032742434E+02  0.60180814645E+02 -0.42248660836E+02  0.79426981636E+02  0.00000000000E+00 0.  1.
</event>
<event>
 7    1  0.8278507E-006  0.1079414E+03  0.7818608E-02  0.1411011E+00
          2   -1    0    0  502    0  0.00000000000E+00  0.00000000000E+00  0.21268392521E+04  0.21268392521E+04  0.00000000000E+00 0. -1.
          1   -1    0    0  501    0 -0.00000000000E+00 -0.00000000000E+00 -0.76901284548E+02  0.76901284548E+02  0.00000000000E+00 0. -1.
         25    2    1    2    0    0  0.81433487964E+02 -0.63175214158E+02  0.13710765482E+04  0.13806099041E+04  0.12494112846E+03 0.  0.
          2    1    1    2  501    0 -0.63706513616E+02  0.87460372114E+02 -0.31060260209E+02  0.11257253809E+03  0.00000000000E+00 0. -1.
          1    1    1    2  502    0 -0.17726974348E+02 -0.24285157956E+02  0.70992167957E+03  0.71055809449E+03  0.00000000000E+00 0. -1.
         22    1    3    3    0    0  0.38594771418E+02 -0.71894760850E+02  0.38440118131E+03  0.39296651411E+03  0.00000000000E+00 0. -1.
         22    1    3    3    0    0  0.42838716546E+02  0.87195466925E+01  0.98667536691E+03  0.98764339000E+03  0.00000000000E+00 0. -1.
</event>
<event>
 7    1  0.8278507E-006  0.1997296E+03  0.7818608E-02  0.1161719E+00
          2   -1    0    0  502    0  0.00000000000E+00  0.00000000000E+00  0.21071574151E+04  0.21071574151E+04  0.00000000000E+00 0. -1.
          1   -1    0    0  501    0 -0.00000000000E+00 -0.00000000000E+00 -0.13874413145E+04  0.13874413145E+04  0.00000000000E+00 0. -1.
         25    2    1    2    0    0  0.30143074575E+03  0.31573887836E+02  0.55621759129E+03  0.64564740266E+03  0.12500061931E+03 0.  0.
          2    1    1    2  501    0 -0.13001585098E+03 -0.11566855717E+03 -0.13309888257E+04  0.13423168742E+04  0.00000000000E+00 0. -1.
          1    1    1    2  502    0 -0.17141489477E+03  0.84094669330E+02  0.14944873350E+04  0.15066344527E+04  0.00000000000E+00 0. -1.
         22    1    3    3    0    0  0.96503192411E+02 -0.46623751457E+02  0.21063471319E+03  0.23633371056E+03  0.00000000000E+00 0. -1.
         22    1    3    3    0    0  0.20492755334E+03  0.78197639292E+02  0.34558287810E+03  0.40931369210E+03  0.00000000000E+00 0. -1.
</event>
<event>
 7    1  0.8278507E-006  0.8918179E+02  0.7818608E-02  0.1409247E+00
          2   -1    0    0  502    0  0.00000000000E+00  0.00000000000E+00  0.82550049937E+03  0.82550049937E+03  0.00000000000E+00 0. -1.
          1   -1    0    0  501    0 -0.00000000000E+00 -0.00000000000E+00 -0.15690646261E+03  0.15690646261E+03  0.00000000000E+00 0. -1.
         25    2    1    2    0    0  0.90651021116E+01 -0.57903926587E+02  0.34871072184E+03  0.37504562055E+03  0.12500003672E+03 0.  0.
          2    1    1    2  501    0  0.91269173261E+01  0.90002968105E+02 -0.12867233355E+03  0.15729082716E+03  0.00000000000E+00 0. -1.
          1    1    1    2  502    0 -0.18192019438E+02 -0.32099041518E+02  0.44855564847E+03  0.45007051426E+03  0.00000000000E+00 0. -1.
         22    1    3    3    0    0 -0.25159958158E+02  0.28835148206E+02  0.55888283052E+02  0.67734699003E+02  0.00000000000E+00 0. -1.
         22    1    3    3    0    0  0.34225060269E+02 -0.86739074793E+02  0.29282243879E+03  0.30731092155E+03  0.00000000000E+00 0. -1.
</event>
<event>
 7    1  0.8278507E-006  0.1424676E+03  0.7818608E-02  0.1250917E+00
          2   -1    0    0  502    0  0.00000000000E+00  0.00000000000E+00  0.51070691436E+03  0.51070691436E+03  0.00000000000E+00 0. -1.
          1   -1    0    0  501    0 -0.00000000000E+00 -0.00000000000E+00 -0.76049380711E+03  0.76049380711E+03  0.00000000000E+00 0. -1.
         25    2    1    2    0    0 -0.12944908897E+03  0.98693191029E+02 -0.31022171104E+03  0.37196714016E+03  0.12499852309E+03 0.  0.
          2    1    1    2  501    0  0.85735786529E+02  0.37164914072E+02 -0.40332611122E+03  0.41400942975E+03  0.00000000000E+00 0. -1.
          1    1    1    2  502    0  0.43713302441E+02 -0.13585810510E+03  0.46376092950E+03  0.48522415156E+03  0.00000000000E+00 0. -1.
         22    1    3    3    0    0 -0.11879577728E+03  0.16710262606E+02 -0.21195231426E+03  0.24354764030E+03  0.00000000000E+00 0.  1.
         22    1    3    3    0    0 -0.10653311689E+02  0.81982928423E+02 -0.98269396780E+02  0.12841949987E+03  0.00000000000E+00 0.  1.
</event>
<event>
 7    1  0.8278507E-006  0.6639642E+02  0.7818608E-02  0.1494308E+00
          2   -1    0    0  502    0  0.00000000000E+00  0.00000000000E+00  0.16444621946E+03  0.16444621946E+03  0.00000000000E+00 0. -1.
          1   -1    0    0  501    0 -0.00000000000E+00 -0.00000000000E+00 -0.16686947291E+04  0.16686947291E+04  0.00000000000E+00 0. -1.
         25    2    1    2    0    0 -0.21810695573E+02  0.49758804819E+02 -0.13994279300E+04  0.14060495216E+04  0.12500032329E+03 0.  0.
          2    1    1    2  501    0  0.20582584799E+02  0.16705917393E+02 -0.25839276302E+03  0.25974901434E+03  0.00000000000E+00 0. -1.
          1    1    1    2  502    0  0.12281107744E+01 -0.66464722212E+02  0.15357218337E+03  0.16734241262E+03  0.00000000000E+00 0. -1.
         22    1    3    3    0    0  0.24443690805E+02  0.12177312795E+01 -0.10478104244E+04  0.10480962086E+04  0.00000000000E+00 0.  1.
         22    1    3    3    0    0 -0.46254386378E+02  0.48541073539E+02 -0.35161750559E+03  0.35795331305E+03  0.00000000000E+00 0.  1.
</event>
<event>
 7    1  0.8278507E-006  0.1382917E+03  0.7818608E-02  0.1347448E+00
          2   -1    0    0  502    0  0.00000000000E+00  0.00000000000E+00  0.19529147594E+03  0.19529147594E+03  0.00000000000E+00 0. -1.
          1   -1    0    0  501    0 -0.00000000000E+00 -0.00000000000E+00 -0.53040709960E+03  0.53040709960E+03  0.00000000000E+00 0. -1.
         25    2    1    2    0    0  0.79244457632E+02  0.74146816175E+02  0.45682283747E+02  0.17172418661E+03  0.12499956322E+03 0.  0.
          2    1    1    2  501    0 -0.11858305846E+03 -0.77034942741E+02 -0.45143827380E+03  0.47306747850E+03  0.00000000000E+00 0. -1.
          1    1    1    2  502    0  0.39338600829E+02  0.28881265656E+01  0.70640366403E+02  0.80906910433E+02  0.00000000000E+00 0. -1.
         22    1    3    3    0    0  0.38908075566E+02  0.10282159123E+03  0.93583192302E+01  0.11033447379E+03  0.00000000000E+00 0. -1.
         22    1    3    3    0    0  0.40336382065E+02 -0.28674775053E+02  0.36323964517E+02  0.61389712825E+02  0.00000000000E+00 0. -1.
</event>
<event>
 7    1  0.8278507E-006  0.2934174E+02  0.7818608E-02  0.1608600E+00
          2   -1    0    0  502    0  0.00000000000E+00  0.00000000000E+00  0.10726170258E+02  0.10726170258E+02  0.00000000000E+00 0. -1.
          1   -1    0    0  501    0 -0.00000000000E+00 -0.00000000000E+00 -0.11188880290E+04  0.11188880290E+04  0.00000000000E+00 0. -1.
         25    2    1    2    0    0 -0.34831665828E+01 -0.54386985017E+01 -0.62154098949E+03  0.63401845870E+03  0.12499796984E+03 0.  0.
          2    1    1    2  501    0 -0.13478303603E+02  0.28715532305E+02 -0.43754085093E+03  0.43868923248E+03  0.00000000000E+00 0. -1.
          1    1    1    2  502    0  0.16961470186E+02 -0.23276833803E+02 -0.49080018313E+02  0.56906508067E+02  0.00000000000E+00 0. -1.
         22    1    3    3    0    0 -0.35270279122E+02  0.47558013062E+02 -0.38555581691E+03  0.39007569157E+03  0.00000000000E+00 0.  1.
         22    1    3    3    0    0  0.31787112540E+02 -0.52996711564E+02 -0.23598517258E+03  0.24394276713E+03  0.00000000000E+00 0.  1.
</event>
<event>
 7    1  0.8278507E-006  0.1326115E+03  0.7818608E-02  0.1295531E+00
          2   -1    0    0  502    0  0.00000000000E+00  0.00000000000E+00  0.12025081569E+04  0.12025081569E+04  0.00000000000E+00 0. -1.
          1   -1    0    0  501    0 -0.00000000000E+00 -0.00000000000E+00 -0.31163393875E+03  0.31163393875E+03  0.00000000000E+00 0. -1.
         25    2    1    2    0    0 -0.10050011375E+02 -0.78280963955E+02 -0.54170849733E+01  0.14793007477E+03  0.12500020066E+03 0.  0.
          2    1    1    2  501    0  0.35246526964E+02 -0.55030479105E+02 -0.22625144197E+03  0.23550028936E+03  0.00000000000E+00 0. -1.
          1    1    1    2  502    0 -0.25196515589E+02  0.13331144306E+03  0.11225427451E+04  0.11307117316E+04  0.00000000000E+00 0. -1.
         22    1    3    3    0    0  0.24728176104E+02  0.21625242088E+02 -0.23790234848E+02  0.40559944069E+02  0.00000000000E+00 0. -1.
         22    1    3    3    0    0 -0.34778187479E+02 -0.99906206043E+02  0.18373149874E+02  0.10737013070E+03  0.00000000000E+00 0. -1.
</event>
<event>
 7    1  0.8278507E-006  0.1389843E+03  0.7818608E-02  0.1318643E+00
          2   -1    0    0  502    0  0.00000000000E+00  0.00000000000E+00  0.74703441844E+03  0.74703441844E+03  0.00000000000E+00 0. -1.
          1   -1    0    0  501    0 -0.00000000000E+00 -0.00000000000E+00 -0.88806226981E+02  0.88806226981E+02  0.00000000000E+00 0. -1.
         25    2    1    2    0    0  0.13842516756E+03  0.10566077011E+03  0.18642069995E+03  0.28407924948E+03  0.12499046868E+03 0.  0.
          2    1    1    2  501    0 -0.95152871343E+02 -0.79611954510E+02  0.61709369013E+02  0.13856470853E+03  0.00000000000E+00 0. -1.
          1    1    1    2  502    0 -0.43272296212E+02 -0.26048815603E+02  0.41009812249E+03  0.41319668741E+03  0.00000000000E+00 0. -1.
         22    1    3    3    0    0  0.27279481169E+02 -0.54828387808E+01  0.10186505474E+03  0.10559697435E+03  0.00000000000E+00 0. -1.
         22    1    3    3    0    0  0.11114568639E+03  0.11114360889E+03  0.84555645213E+02  0.17848227514E+03  0.00000000000E+00 0. -1.
</event>
<event>
 7    1  0.8278507E-006  0.1257558E+03  0.7818608E-02  0.1266240E+00
          2   -1    0    0  502    0  0.00000000000E+00  0.00000000000E+00  0.98199262441E+02  0.98199262441E+02  0.00000000000E+00 0. -1.
          1   -1    0    0  501    0 -0.00000000000E+00 -0.00000000000E+00 -0.94304538633E+03  0.94304538633E+03  0.00000000000E+00 0. -1.
         25    2    1    2    0    0  0.11156222113E+02  0.12479000531E+03 -0.41909056251E+03  0.45492706057E+03  0.12499889656E+03 0.  0.
          2    1    1    2  501    0 -0.97641425476E+02 -0.96381620723E+02 -0.46673896806E+03  0.48648589814E+03  0.00000000000E+00 0. -1.
          1    1    1    2  502    0  0.86485203363E+02 -0.28408384585E+02  0.40983406684E+02  0.99831690053E+02  0.00000000000E+00 0. -1.
         22    1    3    3    0    0 -0.34535118737E+02  0.38860502726E+02 -0.28230718453E+03  0.28705427977E+03  0.00000000000E+00 0. -1.
         22    1    3    3    0    0  0.45691340851E+02  0.85929502583E+02 -0.13678337798E+03  0.16787278080E+03  0.00000000000E+00 0. -1.
</event>
<event>
 7    1  0.8278507E-006  0.5375668E+02  0.7818608E-02  0.1481273E+00
          2   -1    0    0  502    0  0.00000000000E+00  0.00000000000E+00  0.39519493996E+03  0.39519493996E+03  0.00000000000E+00 0. -1.
          1   -1    0    0  501    0 -0.00000000000E+00 -0.00000000000E+00 -0.77189385869E+02  0.77189385869E+02  0.00000000000E+00 0. -1.
         25    2    1    2    0    0 -0.30580020426E+02 -0.64990794619E+02  0.89148918299E+02  0.16950074482E+03  0.12499612724E+03 0.  0.
          2    1    1    2  501    0 -0.12286202795E+02  0.33694309620E+02 -0.24883845416E+02  0.43651609851E+02  0.00000000000E+00 0. -1.
          1    1    1    2  502    0  0.42866223221E+02  0.31296484998E+02  0.25374048120E+03  0.25923197115E+03  0.00000000000E+00 0. -1.
         22    1    3    3    0    0  0.35242215294E+02  0.16883709355E+02  0.25788644480E+02  0.46820161944E+02  0.00000000000E+00 0.  1.
         22    1    3    3    0    0 -0.65822235720E+02 -0.81874503974E+02  0.63360273820E+02  0.12268058288E+03  0.00000000000E+00 0.  1.
</event>
<event>
 7    1  0.8278507E-006  0.3085825E+02  0.7818608E-02  0.1599594E+00
          2   -1    0    0  502    0  0.00000000000E+00  0.00000000000E+00  0.10598548100E+03  0.10598548100E+03  0.00000000000E+00 0. -1.
          1   -1    0    0  501    0 -0.00000000000E+00 -0.00000000000E+00 -0.27731849820E+04  0.27731849820E+04  0.00000000000E+00 0. -1.
         25    2    1    2    0    0  0.87942956498E+01 -0.26278355478E+01 -0.90968155322E+03  0.91827631496E+03  0.12500646857E+03 0.  0.
          2    1    1    2  501    0 -0.50887561826E+01  0.31291524619E+02 -0.18570143394E+04  0.18572849301E+04  0.00000000000E+00 0. -1.
          1    1    1    2  502    0 -0.37055394672E+01 -0.28663689071E+02  0.99496391615E+02  0.10360921792E+03  0.00000000000E+00 0. -1.
         22    1    3    3    0    0  0.62246080554E+02 -0.24330243369E+02 -0.54013274222E+03  0.54425170142E+03  0.00000000000E+00 0. -1.
         22    1    3    3    0    0 -0.53451784905E+02  0.21702407821E+02 -0.36954881100E+03  0.37402461353E+03  0.00000000000E+00 0. -1.
</event>
<event>
 7    1  0.8278507E-006  0.9514200E+02  0.7818608E-02  0.1390688E+00
          2   -1    0    0  502    0  0.00000000000E+00  0.00000000000E+00  0.67985548320E+03  0.67985548320E+03  0.00000000000E+00 0. -1.
          1   -1    0    0  501    0 -0.00000000000E+00 -0.00000000000E+00 -0.16898859498E+04  0.16898859498E+04  0.00000000000E+00 0. -1.
         25    2    1    2    0    0  0.84932876524E+02  0.50606526580E+02  0.72579315346E+02  0.17511998277E+03  0.12499854920E+03 0.  0.
          2    1    1    2  501    0 -0.94471044780E+02 -0.11699366968E+02 -0.16365091396E+04  0.16392753941E+04  0.00000000000E+00 0. -1.
          1    1    1    2  502    0  0.95381682561E+01 -0.38907159612E+02  0.55389935765E+03  0.55534605619E+03  0.00000000000E+00 0. -1.
         22    1    3    3    0    0  0.20577377622E+02 -0.31301457250E+02 -0.13675652581E+02  0.39877727735E+02  0.00000000000E+00 0. -1.
         22    1    3    3    0    0  0.64355498902E+02  0.81907983830E+02  0.86254967927E+02  0.13524225503E+03  0.00000000000E+00 0. -1.
</event>
<event>
 7    1  0.8278507E-006  0.1014979E+03  0.7818608E-02  0.1342364E+00
          2   -1    0    0  502    0  0.00000000000E+00  0.00000000000E+00  0.11371581687E+03  0.11371581687E+03  0.00000000000E+00 0. -1.
          1   -1    0    0  501    0 -0.00000000000E+00 -0.00000000000E+00 -0.32675909936E+04  0.32675909936E+04  0.00000000000E+00 0. -1.
         25    2    1    2    0    0 -0.95843229558E+02  0.92744996164E+02 -0.37516640866E+02  0.18660975565E+03  0.12501257376E+03 0.  0.
          2    1    1    2  501    0  0.54323590392E+02 -0.14183782973E+02 -0.31045502499E+04  0.31050578877E+04  0.00000000000E+00 0. -1.
          1    1    1    2  502    0  0.41519639167E+02 -0.78561213190E+02 -0.11808285974E+02  0.89639167065E+02  0.00000000000E+00 0. -1.
         22    1    3    3    0    0 -0.51340833476E+01 -0.28501420759E+02 -0.17584665460E+02  0.33880824318E+02  0.00000000000E+00 0. -1.
         22    1    3    3    0    0 -0.90709146211E+02  0.12124641692E+03 -0.19931975406E+02  0.15272893133E+03  0.00000000000E+00 0. -1.
</event>
<event>
 7    1  0.8278507E-006  0.2392976E+03  0.7818608E-02  0.1258078E+00
          2   -1    0    0  502    0  0.00000000000E+00  0.00000000000E+00  0.17599707983E+04  0.17599707983E+04  0.00000000000E+00 0. -1.
          1   -1    0    0  501    0 -0.00000000000E+00 -0.00000000000E+00 -0.11900695705E+04  0.11900695705E+04  0.00000000000E+00 0. -1.
         25    2    1    2    0    0 -0.17288364214E+03 -0.21202614099E+03 -0.32104600910E+03  0.43993243151E+03  0.12500466453E+03 0.  0.
          2    1    1    2  501    0  0.12440980421E+03  0.19370756317E+03 -0.79280704396E+03  0.82555643561E+03  0.00000000000E+00 0. -1.
          1    1    1    2  502    0  0.48473837929E+02  0.18318577817E+02  0.16837542809E+04  0.16845515017E+04  0.00000000000E+00 0. -1.
         22    1    3    3    0    0 -0.13274353084E+03 -0.22219982385E+03 -0.26723014223E+03  0.37202897148E+03  0.00000000000E+00 0. -1.
         22    1    3    3    0    0 -0.40140111297E+02  0.10173682862E+02 -0.53815866864E+02  0.67903460032E+02  0.00000000000E+00 0. -1.
</event>
<event>
 7    1  0.8278507E-006  0.5448208E+02  0.7818608E-02  0.1522690E+00
          2   -1    0    0  502    0  0.00000000000E+00  0.00000000000E+00  0.22096153442E+04  0.22096153442E+04  0.00000000000E+00 0. -1.
          1   -1    0    0  501    0 -0.00000000000E+00 -0.00000000000E+00 -0.18336438744E+03  0.18336438744E+03  0.00000000000E+00 0. -1.
         25    2    1    2    0    0  0.30945393127E+02 -0.13526647943E+02  0.34075315085E+03  0.36452369386E+03  0.12499690401E+03 0.  0.
          2    1    1    2  501    0  0.24271311163E+02  0.10985391032E+02 -0.17003027969E+03  0.17210482670E+03  0.00000000000E+00 0. -1.
          1    1    1    2  502    0 -0.55216704290E+02  0.25412569116E+01  0.18555280856E+04  0.18563512111E+04  0.00000000000E+00 0. -1.
         22    1    3    3    0    0 -0.19235082424E+02 -0.22901635765E+02  0.29331615718E+03  0.29483697424E+03  0.00000000000E+00 0. -1.
         22    1    3    3    0    0  0.50180475551E+02  0.93749878215E+01  0.47436993665E+02  0.69686719618E+02  0.00000000000E+00 0. -1.
</event>
<event>
 7    1  0.8278507E-006  0.1679368E+03  0.7818608E-02  0.1246929E+00
          2   -1    0    0  502    0  0.00000000000E+00  0.00000000000E+00  0.15185443020E+04  0.15185443020E+04  0.00000000000E+00 0. -1.
          1   -1    0    0  501    0 -0.00000000000E+00 -0.00000000000E+00 -0.14096185587E+04  0.14096185587E+04  0.00000000000E+00 0. -1.
         25    2    1    2    0    0  0.12856442058E+03 -0.14148969584E+03  0.34261733672E+03  0.41177653734E+03  0.12500053206E+03 0.  0.
          2    1    1    2  501    0 -0.80508353403E+02 -0.18019802011E+02 -0.13677104282E+04  0.13701963814E+04  0.00000000000E+00 0. -1.
          1    1    1    2  502    0 -0.48056067177E+02  0.15950949785E+03  0.11340188347E+04  0.11461899420E+04  0.00000000000E+00 0. -1.
         22    1    3    3    0    0  0.82899599972E+02 -0.14280360604E+03  0.18640950732E+03  0.24902553683E+03  0.00000000000E+00 0. -1.
         22    1    3    3    0    0  0.45664820608E+02  0.13139102059E+01  0.15620782940E+03  0.16275100051E+03  0.00000000000E+00 0. -1.
</event>
<event>
 7    1  0.8278507E-006  0.5110339E+02  0.7818608E-02  0.1439596E+00
          2   -1    0    0  502    0  0.00000000000E+00  0.00000000000E+00  0.20111798952E+03  0.20111798952E+03  0.00000000000E+00 0. -1.
          1   -1    0    0  501    0 -0.00000000000E+00 -0.00000000000E+00 -0.23699536246E+03  0.23699536246E+03  0.00000000000E+00 0. -1.
         25    2    1    2    0    0 -0.34665743697E+02  0.54808405684E+02  0.80480673279E+02  0.16221339477E+03  0.12502148436E+03 0.  0.
          2    1    1    2  501    0 -0.16038469894E+02 -0.48801133120E+02 -0.18406506564E+03  0.19109874803E+03  0.00000000000E+00 0. -1.
          1    1    1    2  502    0  0.50704213591E+02 -0.60072725639E+01  0.67707019415E+02  0.84801209175E+02  0.00000000000E+00 0. -1.
         22    1    3    3    0    0  0.37464085433E+02  0.56629729613E+02  0.30473104858E+02  0.74425090481E+02  0.00000000000E+00 0.  1.
         22    1    3    3    0    0 -0.72129829129E+02 -0.18213239294E+01  0.50007568421E+02  0.87788304292E+02  0.00000000000E+00 0.  1.
</event>
<event>
 7    1  0.8278507E-006  0.1835305E+03  0.7818608E-02  0.1303055E+00
          2   -1    0    0  502    0  0.00000000000E+00  0.00000000000E+00  0.28839245468E+03  0.28839245468E+03  0.00000000000E+00 0. -1.
          1   -1    0    0  501    0 -0.00000000000E+00 -0.00000000000E+00 -0.41078564497E+03  0.41078564497E+03  0.00000000000E+00 0. -1.
         25    2    1    2    0    0 -0.16204711721E+03 -0.13988704938E+03 -0.81263202621E+02  0.26087655397E+03  0.12500085413E+03 0.  0.
          2    1    1    2  501    0  0.13978041619E+03  0.10187659592E+03 -0.20522704279E+03  0.26839438265E+03  0.00000000000E+00 0. -1.
          1    1    1    2  502    0  0.22266701018E+02  0.38010453462E+02  0.16409705513E+03  0.16990716303E+03  0.00000000000E+00 0. -1.
         22    1    3    3    0    0 -0.15106020811E+03 -0.66072766645E+02 -0.86264651629E+02  0.18608166779E+03  0.00000000000E+00 0. -1.
         22    1    3    3    0    0 -0.10986909095E+02 -0.73814282735E+02  0.50014490076E+01  0.74794886184E+02  0.00000000000E+00 0. -1.
</event>
<event>
 7    1  0.8278507E-006  0.1794592E+03  0.7818608E-02  0.1269405E+00
          2   -1    0    0  502    0  0.00000000000E+00  0.00000000000E+00  0.94180129881E+03  0.94180129881E+03  0.00000000000E+00 0. -1.
          1   -1    0    0  501    0 -0.00000000000E+00 -0.00000000000E+00 -0.18989272623E+03  0.18989272623E+03  0.00000000000E+00 0. -1.
         25    2    1    2    0    0 -0.14831810608E+03  0.13528412588E+03  0.10652007541E+03  0.25936777632E+03  0.12500024649E+03 0.  0.
          2    1    1    2  501    0 -0.12816158882E+02 -0.60518716161E+02 -0.93651458211E+02  0.11223798180E+03  0.00000000000E+00 0. -1.
          1    1    1    2  502    0  0.16113426496E+03 -0.74765409724E+02  0.73903995539E+03  0.76008826691E+03  0.00000000000E+00 0. -1.
         22    1    3    3    0    0 -0.10096628997E+03  0.11694290190E+02  0.65039226287E+02  0.12066917208E+03  0.00000000000E+00 0.  1.
         22    1    3    3    0    0 -0.47351816100E+02  0.12358983570E+03  0.41480849118E+02  0.13869860424E+03  0.00000000000E+00 0.  1.
</event>
<event>
 7    1  0.8278507E-006  0.9645301E+02  0.7818608E-02  0.1375697E+00
          2   -1    0    0  502    0  0.00000000000E+00  0.00000000000E+00  0.18061092516E+04  0.18061092516E+04  0.00000000000E+00 0. -1.
          1   -1    0    0  501    0 -0.00000000000E+00 -0.00000000000E+00 -0.10625202199E+04  0.10625202199E+04  0.00000000000E+00 0. -1.
         25    2    1    2    0    0  0.43948747625E+02 -0.68687038169E+02  0.18434587559E+02  0.15037955699E+03  0.12499910205E+03 0.  0.
          2    1    1    2  501    0 -0.83931262064E+02  0.48861688974E+02 -0.99389130314E+03  0.99862497658E+03  0.00000000000E+00 0. -1.
          1    1    1    2  502    0  0.39982514439E+02  0.19825349195E+02  0.17190457473E+04  0.17196249380E+04  0.00000000000E+00 0. -1.
         22    1    3    3    0    0 -0.36032093330E+02 -0.44252154216E+02 -0.17011180448E+02  0.59547839278E+02  0.00000000000E+00 0.  1.
         22    1    3    3    0    0  0.79980840955E+02 -0.24434883953E+02  0.35445768007E+02  0.90831717716E+02  0.00000000000E+00 0.  1.
</event>
<event>
 7    1  0.8278507E-006  0.4943987E+02  0.7818608E-02  0.1561305E+00
          2   -1    0    0  502    0  0.00000000000E+00  0.00000000000E+00  0.18852506567E+04  0.18852506567E+04  0.00000000000E+00 0. -1.
          1   -1    0    0  501    0 -0.00000000000E+00 -0.00000000000E+00 -0.23808466565E+03  0.23808466565E+03  0.00000000000E+00 0. -1.
         25    2    1    2    0    0 -0.54304715846E+02 -0.99842563449E+01  0.51908305312E+03  0.53676869451E+03  0.12499891130E+03 0.  0.
          2    1    1    2  501    0  0.47965263903E+02 -0.11966825385E+02 -0.22647921577E+03  0.23181179139E+03  0.00000000000E+00 0. -1.
          1    1    1    2  502    0  0.63394519425E+01  0.21951081730E+02  0.13545621537E+04  0.13547548365E+04  0.00000000000E+00 0. -1.
         22    1    3    3    0    0 -0.31950328796E+02  0.26922674390E+02  0.47683672743E+02  0.63398632105E+02  0.00000000000E+00 0.  1.
         22    1    3    3    0    0 -0.22354387050E+02 -0.36906930735E+02  0.47139938038E+03  0.47337006240E+03  0.00000000000E+00 0.  1.
</event>
<event>
 7    1  0.8278507E-006  0.5303516E+02  0.7818608E-02  0.1447451E+00
          2   -1    0    0  502    0  0.00000000000E+00  0.00000000000E+00  0.66632167657E+03  0.66632167657E+03  0.00000000000E+00 0. -1.
          1   -1    0    0  501    0 -0.00000000000E+00 -0.00000000000E+00 -0.61663251574E+02  0.61663251574E+02  0.00000000000E+00 0. -1.
         25    2    1    2    0    0  0.41517311083E+02 -0.45507423760E+02  0.15186329583E+03  0.20611717400E+03  0.12500886393E+03 0.  0.
          2    1    1    2  501    0  0.12070502955E+02  0.44810658856E+02 -0.16701919465E+02  0.49321864345E+02  0.00000000000E+00 0. -1.
          1    1    1    2  502    0 -0.53587814037E+02  0.69676490436E+00  0.46949704863E+03  0.47254588980E+03  0.00000000000E+00 0. -1.
         22    1    3    3    0    0 -0.22243295842E+01 -0.72892173981E+02  0.40594878186E+02  0.83463529788E+02  0.00000000000E+00 0.  1.
         22    1    3    3    0    0  0.43741640667E+02  0.27384750221E+02  0.11126841765E+03  0.12265364421E+03  0.00000000000E+00 0.  1.
</event>
<event>
 7    1  0.8278507E-006  0.6515550E+02  0.7818608E-02  0.1420175E+00
          2   -1    0    0  502    0  0.00000000000E+00  0.00000000000E+00  0.21713630189E+04  0.21713630189E+04  0.00000000000E+00 0. -1.
          1   -1    0    0  501    0 -0.00000000000E+00 -0.00000000000E+00 -0.18788241749E+04  0.18788241749E+04  0.00000000000E+00 0. -1.
         25    2    1    2    0    0 -0.29876018389E+02  0.50156277204E+02  0.17706480257E+03  0.22446585977E+03  0.12499899710E+03 0.  0.
          2    1    1    2  501    0 -0.14540371936E+02 -0.63579379110E+02 -0.18542770976E+04  0.18554237561E+04  0.00000000000E+00 0. -1.
          1    1    1    2  502    0  0.44416390324E+02  0.13423101905E+02  0.19697511391E+04  0.19702975779E+04  0.00000000000E+00 0. -1.
         22    1    3    3    0    0 -0.24209517892E+02  0.90322377294E+02  0.97129080186E+02  0.13482689203E+03  0.00000000000E+00 0.  1.
         22    1    3    3    0    0 -0.56665004972E+01 -0.40166100089E+02  0.79935722388E+02  0.89638967743E+02  0.00000000000E+00 0.  1.
</event>
<event>
 7    1  0.8278507E-006  0.1076231E+03  0.7818608E-02  0.1374515E+00
          2   -1    0    0  502    0  0.00000000000E+00  0.00000000000E+00  0.33336183303E+04  0.33336183303E+04  0.00000000000E+00 0. -1.
          1   -1    0    0  501    0 -0.00000000000E+00 -0.00000000000E+00 -0.51440027282E+03  0.51440027282E+03  0.00000000000E+00 0. -1.
         25    2    1    2    0    0 -0.14159292637E+03  0.30482357997E+02  0.35675248662E+03  0.40481495910E+03  0.12500033379E+03 0.  0.
          2    1    1    2  501    0  0.10656107809E+03 -0.10387511119E+02 -0.48438487122E+03  0.49607647316E+03  0.00000000000E+00 0. -1.
          1    1    1    2  502    0  0.35031848289E+02 -0.20094846878E+02  0.29468504421E+04  0.29471271709E+04  0.00000000000E+00 0. -1.
         22    1    3    3    0    0 -0.67266195772E+02 -0.47058851489E+02  0.18256188439E+03  0.20017022314E+03  0.00000000000E+00 0.  1.
         22    1    3    3    0    0 -0.74326730602E+02  0.77541209486E+02  0.17419060223E+03  0.20464473596E+03  0.00000000000E+00 0.  1.
</event>
<event>
 7    1  0.8278507E-006  0.1746760E+03  0.7818608E-02  0.1224608E+00
          2   -1    0    0  502    0  0.00000000000E+00  0.00000000000E+00  0.22384133674E+04  0.22384133674E+04  0.00000000000E+00 0. -1.
          1   -1    0    0  501    0 -0.00000000000E+00 -0.00000000000E+00 -0.44356137442E+03  0.44356137442E+03  0.00000000000E+00 0. -1.
         25    2    1    2    0    0 -0.16197035819E+03  0.18449871331E+03  0.68027737157E+03  0.73394567998E+03  0.12499914698E+03 0.  0.
          2    1    1    2  501    0  0.22858419771E+02 -0.96999536586E+02 -0.40627849878E+03  0.41832240679E+03  0.00000000000E+00 0. -1.
          1    1    1    2  502    0  0.13911193842E+03 -0.87499176726E+02  0.15208531202E+04  0.15297066551E+04  0.00000000000E+00 0. -1.
         22    1    3    3    0    0 -0.67501175771E+02  0.14048342105E+03  0.28142432096E+03  0.32170117928E+03  0.00000000000E+00 0. -1.
         22    1    3    3    0    0 -0.94469182417E+02  0.44015292262E+02  0.39885305061E+03  0.41224450070E+03  0.00000000000E+00 0. -1.
</event>
<event>
 7    1  0.8278507E-006  0.3177905E+03  0.7818608E-02  0.1144054E+00
          2   -1    0    0  502    0  0.00000000000E+00  0.00000000000E+00  0.26763397627E+04  0.26763397627E+04  0.00000000000E+00 0. -1.
          1   -1    0    0  501    0 -0.00000000000E+00 -0.00000000000E+00 -0.15575295080E+04  0.15575295080E+04  0.00000000000E+00 0. -1.
         25    2    1    2    0    0 -0.31124485868E+03 -0.16230615639E+02 -0.82458547070E+03  0.89033877547E+03  0.12500056670E+03 0.  0.
          2    1    1    2  501    0  0.31938805424E+03 -0.11821198101E+03 -0.65680252387E+03  0.73984617118E+03  0.00000000000E+00 0. -1.
          1    1    1    2  502    0 -0.81431955617E+01  0.13444259665E+03  0.26001982493E+04  0.26036843240E+04  0.00000000000E+00 0. -1.
         22    1    3    3    0    0 -0.52610824973E+01  0.16248527227E+02 -0.10515377177E+02  0.20056589522E+02  0.00000000000E+00 0. -1.
         22    1    3    3    0    0 -0.30598377618E+03 -0.32479142866E+02 -0.81407009352E+03  0.87028218595E+03  0.00000000000E+00 0. -1.
</event>
<event>
 7    1  0.8278507E-006  0.6165460E+02  0.7818608E-02  0.1526582E+00
          2   -1    0    0  502    0  0.00000000000E+00  0.00000000000E+00  0.10606998379E+03  0.10606998379E+03  0.00000000000E+00 0. -1.
          1   -1    0    0  501    0 -0.00000000000E+00 -0.00000000000E+00 -0.11233907723E+04  0.11233907723E+04  0.00000000000E+00 0. -1.
         25    2    1    2    0    0  0.56147297239E+02  0.14787953271E+02 -0.20843874710E+03  0.24988787344E+03  0.12500414173E+03 0.  0.
          2    1    1    2  501    0  0.54229036138E+01 -0.22291102398E+02 -0.88278927143E+03  0.88308731102E+03  0.00000000000E+00 0. -1.
          1    1    1    2  502    0 -0.61570200853E+02  0.75031491272E+01  0.73907230026E+02  0.96485571616E+02  0.00000000000E+00 0. -1.
         22    1    3    3    0    0 -0.49699109084E+01 -0.34987482275E+02 -0.14342086055E+03  0.14771041659E+03  0.00000000000E+00 0.  1.
         22    1    3    3    0    0  0.61117208148E+02  0.49775435546E+02 -0.65017886551E+02  0.10217745684E+03  0.00000000000E+00 0.  1.
</event>
<event>
 7    1  0.8278507E-006  0.1065997E+03  0.7818608E-02  0.1327396E+00
          2   -1    0    0  502    0  0.00000000000E+00  0.00000000000E+00  0.21159173634E+04  0.21159173634E+04  0.00000000000E+00 0. -1.
          1   -1    0    0  501    0 -0.00000000000E+00 -0.00000000000E+00 -0.18611954657E+02  0.18611954657E+02  0.00000000000E+00 0. -1.
         25    2    1    2    0    0  0.24026913186E+02 -0.12925761331E+03  0.85338736057E+03  0.87245612841E+03  0.12499954264E+03 0.  0.
          2    1    1    2  501    0 -0.60746450679E+02  0.80646959869E+02  0.30699770899E+03  0.32317434417E+03  0.00000000000E+00 0. -1.
          1    1    1    2  502    0  0.36719537493E+02  0.48610653445E+02  0.93692033913E+03  0.93889884542E+03  0.00000000000E+00 0. -1.
         22    1    3    3    0    0 -0.21307046454E+00 -0.14019626704E+03  0.53859906819E+03  0.55654648947E+03  0.00000000000E+00 0.  1.
         22    1    3    3    0    0  0.24239983650E+02  0.10938653723E+02  0.31478829239E+03  0.31590963894E+03  0.00000000000E+00 0.  1.
</event>
<event>
 7    1  0.8278507E-006  0.2133907E+03  0.7818608E-02  0.1248346E+00
          2   -1    0    0  502    0  0.00000000000E+00  0.00000000000E+00  0.21807241722E+04  0.21807241722E+04  0.00000000000E+00 0. -1.
          1   -1    0    0  501    0 -0.00000000000E+00 -0.00000000000E+00 -0.13826054422E+03  0.13826054422E+03  0.00000000000E+00 0. -1.
         25    2    1    2    0    0 -0.11627230269E+03  0.15854658959E+03  0.31328522261E+03  0.39041915582E+03  0.12499286812E+03 0.  0.
          2    1    1    2  501    0  0.43956453928E+02  0.46531898104E+02 -0.82198609152E+02  0.10418252603E+03  0.00000000000E+00 0. -1.
          1    1    1    2  502    0  0.72315848764E+02 -0.20507848769E+03  0.18113770145E+04  0.18243830346E+04  0.00000000000E+00 0. -1.
         22    1    3    3    0    0  0.27053987952E+02  0.20248248693E+02  0.43798205027E+02  0.55319007609E+02  0.00000000000E+00 0. -1.
         22    1    3    3    0    0 -0.14332629064E+03  0.13829834090E+03  0.26948701759E+03  0.33510014821E+03  0.00000000000E+00 0. -1.
</event>
<event>
 7    1  0.8278507E-006  0.9404467E+02  0.7818608E-02  0.1428588E+00
          2   -1    0    0  502    0  0.00000000000E+00  0.00000000000E+00  0.11237272881E+03  0.11237272881E+03  0.00000000000E+00 0. -1.
          1   -1    0    0  501    0 -0.00000000000E+00 -0.00000000000E+00 -0.30709835089E+03  0.30709835089E+03  0.00000000000E+00 0. -1.
         25    2    1    2    0    0 -0.72921848684E+02  0.87196269554E+02 -0.23607570933E+03  0.29028204271E+03  0.12494454107E+03 0.  0.
          2    1    1    2  501    0  0.84245756630E+00 -0.30133312614E+02  0.62670050508E+01  0.30789634882E+02  0.00000000000E+00 0. -1.
          1    1    1    2  502    0  0.72079391118E+02 -0.57062956940E+02  0.35083082198E+02  0.98399402108E+02  0.00000000000E+00 0. -1.
         22    1    3    3    0    0  0.28181459387E+02  0.31061694670E+02 -0.11701799688E+03  0.12430701960E+03  0.00000000000E+00 0. -1.
         22    1    3    3    0    0 -0.10110330807E+03  0.56134574884E+02 -0.11905771245E+03  0.16597502311E+03  0.00000000000E+00 0. -1.
</event>
<event>
 7    1  0.8278507E-006  0.6012653E+02  0.7818608E-02  0.1468440E+00
          2   -1    0    0  502    0  0.00000000000E+00  0.00000000000E+00  0.75244316267E+03  0.75244316267E+03  0.00000000000E+00 0. -1.
          1   -1    0    0  501    0 -0.00000000000E+00 -0.00000000000E+00 -0.26194559049E+04  0.26194559049E+04  0.00000000000E+00 0. -1.
         25    2    1    2    0    0  0.66113131200E+02  0.61977045475E+02 -0.11469971986E+04  0.11573416604E+04  0.12500018049E+03 0.  0.
          2    1    1    2  501    0 -0.35726364837E+02 -0.44347899530E+02 -0.14663205617E+04  0.14674260114E+04  0.00000000000E+00 0. -1.
          1    1    1    2  502    0 -0.30386766363E+02 -0.17629145945E+02  0.74630501810E+03  0.74713139567E+03  0.00000000000E+00 0. -1.
         22    1    3    3    0    0  0.31222642723E+02  0.48900761336E+02 -0.16987841685E+03  0.17951271372E+03  0.00000000000E+00 0.  1.
         22    1    3    3    0    0  0.34890488478E+02  0.13076284138E+02 -0.97711878174E+03  0.97782894671E+03  0.00000000000E+00 0.  1.
</event>
<event>
 7    1  0.8278507E-006  0.3607511E+02  0.7818608E-02  0.1563923E+00
          2   -1    0    0  502    0  0.00000000000E+00  0.00000000000E+00  0.37577686534E+02  0.37577686534E+02  0.00000000000E+00 0. -1.
          1   -1    0    0  501    0 -0.00000000000E+00 -0.00000000000E+00 -0.67098731404E+03  0.67098731404E+03  0.00000000000E+00 0. -1.
         25    2    1    2    0    0  0.22376715013E+02 -0.57709703472E+02 -0.16348139904E+03  0.21490564370E+03  0.12500856217E+03 0.  0.
          2    1    1    2  501    0 -0.10775341789E+01  0.35462462984E+02 -0.45990311802E+03  0.46126957988E+03  0.00000000000E+00 0. -1.
          1    1    1    2  502    0 -0.21299180834E+02  0.22247240488E+02 -0.10025110442E+02  0.32389776982E+02  0.00000000000E+00 0. -1.
         22    1    3    3    0    0  0.21487958217E+02 -0.55894316330E+02 -0.91693910930E+01  0.60580398474E+02  0.00000000000E+00 0.  1.
         22    1    3    3    0    0  0.88875679540E+00 -0.18153871426E+01 -0.15431200795E+03  0.15432524523E+03  0.00000000000E+00 0.  1.
</event>
<event>
 7    1  0.9131144E-006  0.9688228E+02  0.7818608E-02  0.1437950E+00
          2   -1    0    0  502    0  0.00000000000E+00  0.00000000000E+00  0.14034518650E+04  0.14034518650E+04  0.00000000000E+00 0. -1.
          1   -1    0    0  501    0 -0.00000000000E+00 -0.00000000000E+00 -0.13804351346E+04  0.13804351346E+04  0.00000000000E+00 0. -1.
         25    2    1    2    0    0  0.88352162040E+02 -0.14909639742E+00 -0.12383488395E+03  0.19689256215E+03  0.12500190311E+03 0.  0.
          2    1    1    2  501    0  0.48298314485E+01 -0.26835118828E+02 -0.12181974592E+04  0.12185025649E+04  0.00000000000E+00 0. -1.
          1    1    1    2  502    0 -0.93181993489E+02  0.26984215225E+02  0.13650490737E+04  0.13684918726E+04  0.00000000000E+00 0. -1.
         22    1    3    3    0    0  0.11345747790E+03  0.12018461185E+02 -0.12465117270E+03  0.16898212200E+03  0.00000000000E+00 0.  1.
         22    1    3    3    0    0 -0.25105315862E+02 -0.12167557582E+02  0.81628875086E+00  0.27910440150E+02  0.00000000000E+00 0.  1.
</event>
<event>
 7    1  0.8278507E-006  0.3672525E+02  0.7818608E-02  0.1622243E+00
          2   -1    0    0  502    0  0.00000000000E+00  0.00000000000E+00  0.93760546678E+03  0.93760546678E+03  0.00000000000E+00 0. -1.
          1   -1    0    0  501    0 -0.00000000000E+00 -0.00000000000E+00 -0.22905584105E+02  0.22905584105E+02  0.00000000000E+00 0. -1.
         25    2    1    2    0    0 -0.41115402252E+02 -0.16731641965E+02  0.38444677000E+03  0.40668530692E+03  0.12499278283E+03 0.  0.
          2    1    1    2  501    0  0.23235515615E+02  0.28180934623E+02  0.17267148788E+02  0.40400602587E+02  0.00000000000E+00 0. -1.
          1    1    1    2  502    0  0.17879886637E+02 -0.11449292658E+02  0.51298596389E+03  0.51342514137E+03  0.00000000000E+00 0. -1.
         22    1    3    3    0    0 -0.21647422106E+02  0.28705768557E+01  0.59953760651E+00  0.21845149133E+02  0.00000000000E+00 0. -1.
         22    1    3    3    0    0 -0.19467980146E+02 -0.19602218821E+02  0.38384723239E+03  0.38484015779E+03  0.00000000000E+00 0. -1.
</event>
<event>
 7    1  0.8278507E-006  0.3526613E+02  0.7818608E-02  0.1618993E+00
          2   -1    0    0  502    0  0.00000000000E+00  0.00000000000E+00  0.77005044303E+03  0.77005044303E+03  0.00000000000E+00 0. -1.
          1   -1    0    0  501    0 -0.00000000000E+00 -0.00000000000E+00 -0.23462477303E+04  0.23462477303E+04  0.00000000000E+00 0. -1.
         25    2    1    2    0    0 -0.54919003582E+02  0.16911520077E+02  0.16834582619E+03  0.21740886153E+03  0.12499679761E+03 0.  0.
          2    1    1    2  501    0  0.32695783834E+02 -0.13176088663E+02 -0.23213623824E+04  0.23216300166E+04  0.00000000000E+00 0. -1.
          1    1    1    2  502    0  0.22223219748E+02 -0.37354314133E+01  0.57681926891E+03  0.57725929523E+03  0.00000000000E+00 0. -1.
         22    1    3    3    0    0 -0.31754529311E+02 -0.51908520922E+02  0.50921625098E+02  0.79346433938E+02  0.00000000000E+00 0.  1.
         22    1    3    3    0    0 -0.23164474271E+02  0.68820040998E+02  0.11742420109E+03  0.13806242759E+03  0.00000000000E+00 0.  1.
</event>
<event>
 7    1  0.8278507E-006  0.2978483E+02  0.7818608E-02  0.1621991E+00
          2   -1    0    0  502    0  0.00000000000E+00  0.00000000000E+00  0.16860579339E+03  0.16860579339E+03  0.00000000000E+00 0. -1.
          1   -1    0    0  501    0 -0.00000000000E+00 -0.00000000000E+00 -0.11399999304E+04  0.11399999304E+04  0.00000000000E+00 0. -1.
         25    2    1    2    0    0 -0.17017102250E+01  0.12387288169E+02 -0.56532832896E+03  0.57911771118E+03  0.12499945261E+03 0.  0.
          2    1    1    2  501    0  0.27868927096E+02 -0.14008232690E+02 -0.56628227110E+03  0.56714065120E+03  0.00000000000E+00 0. -1.
          1    1    1    2  502    0 -0.26167216870E+02  0.16209445217E+01  0.16021646308E+03  0.16234736137E+03  0.00000000000E+00 0. -1.
         22    1    3    3    0    0 -0.44452003449E+02  0.51046447502E+02 -0.32506218975E+03  0.33203485904E+03  0.00000000000E+00 0.  1.
         22    1    3    3    0    0  0.42750293224E+02 -0.38659159333E+02 -0.24026613922E+03  0.24708285215E+03  0.00000000000E+00 0.  1.
</event>
<event>
 7    1  0.8278507E-006  0.1313613E+03  0.7818608E-02  0.1436774E+00
          2   -1    0    0  502    0  0.00000000000E+00  0.00000000000E+00  0.27582939558E+03  0.27582939558E+03  0.00000000000E+00 0. -1.
          1   -1    0    0  501    0 -0.00000000000E+00 -0.00000000000E+00 -0.70442481378E+03  0.70442481378E+03  0.00000000000E+00 0. -1.
         25    2    1    2    0    0  0.14648948806E+03 -0.18146837643E+02  0.25996982675E+01  0.19344525240E+03  0.12500331762E+03 0.  0.
          2    1    1    2  501    0 -0.12766857912E+03  0.25721158842E+02 -0.60143026489E+03  0.61536916370E+03  0.00000000000E+00 0. -1.
          1    1    1    2  502    0 -0.18820908933E+02 -0.75743211997E+01  0.17023514842E+03  0.17143979326E+03  0.00000000000E+00 0. -1.
         22    1    3    3    0    0  0.12370885494E+03  0.56751680384E+01 -0.48200530197E+02  0.13288859784E+03  0.00000000000E+00 0.  1.
         22    1    3    3    0    0  0.22780633113E+02 -0.23822005681E+02  0.50800228464E+02  0.60556654562E+02  0.00000000000E+00 0.  1.
</event>
<event>
 7    1  0.8278507E-006  0.1159708E+03  0.7818608E-02  0.1289249E+00
          2   -1    0    0  502    0  0.00000000000E+00  0.00000000000E+00  0.15601964675E+04  0.15601964675E+04  0.00000000000E+00 0. -1.
          1   -1    0    0  501    0 -0.00000000000E+00 -0.00000000000E+00 -0.55034912852E+03  0.55034912852E+03  0.00000000000E+00 0. -1.
         25    2    1    2    0    0 -0.10814338021E+03  0.51114295520E+02 -0.17099457565E+02  0.17385338226E+03  0.12499978074E+03 0.  0.
          2    1    1    2  501    0  0.51267913590E+02 -0.10628516050E+03 -0.44613675605E+03  0.46147907797E+03  0.00000000000E+00 0. -1.
          1    1    1    2  502    0  0.56875466615E+02  0.55170864982E+02  0.14730835526E+04  0.14752131358E+04  0.00000000000E+00 0. -1.
         22    1    3    3    0    0  0.89471959911E+01  0.22249174306E+02  0.35046890045E+02  0.42466016710E+02  0.00000000000E+00 0.  1.
         22    1    3    3    0    0 -0.11709057620E+03  0.28865121214E+02 -0.52146347610E+02  0.13138736555E+03  0.00000000000E+00 0.  1.
</event>
<event>
 7    1  0.8278507E-006  0.1481647E+03  0.7818608E-02  0.1324115E+00
          2   -1    0    0  502    0  0.00000000000E+00  0.00000000000E+00  0.19488102049E+04  0.19488102049E+04  0.00000000000E+00 0. -1.
          1   -1    0    0  501    0 -0.00000000000E+00 -0.00000000000E+00 -0.76949845638E+03  0.76949845638E+03  0.00000000000E+00 0. -1.
         25    2    1    2    0    0 -0.25704302246E+02  0.10976972564E+03  0.34258983838E+03  0.38171079473E+03  0.12500091850E+03 0.  0.
          2    1    1    2  501    0 -0.26948608113E+02  0.36191400678E+02 -0.74546049828E+03  0.74682487871E+03  0.00000000000E+00 0. -1.
          1    1    1    2  502    0  0.52652910359E+02 -0.14596112632E+03  0.15821824084E+04  0.15897729879E+04  0.00000000000E+00 0. -1.
         22    1    3    3    0    0  0.30393211959E+02  0.22344040698E+01  0.15750032146E+03  0.16042160439E+03  0.00000000000E+00 0. -1.
         22    1    3    3    0    0 -0.56097514205E+02  0.10753532157E+03  0.18508951692E+03  0.22128919033E+03  0.00000000000E+00 0. -1.
</event>
<event>
 7    1  0.8278507E-006  0.6585256E+02  0.7818608E-02  0.1490741E+00
          2   -1    0    0  502    0  0.00000000000E+00  0.00000000000E+00  0.29788690433E+03  0.29788690433E+03  0.00000000000E+00 0. -1.
          1   -1    0    0  501    0 -0.00000000000E+00 -0.00000000000E+00 -0.69527972254E+03  0.69527972254E+03  0.00000000000E+00 0. -1.
         25    2    1    2    0    0  0.37250507805E+02  0.17484072932E+02 -0.50165148111E+03  0.51862428804E+03  0.12499460189E+03 0.  0.
          2    1    1    2  501    0  0.27217000336E+02 -0.31447437968E+01 -0.18032570816E+03  0.18239521798E+03  0.00000000000E+00 0. -1.
          1    1    1    2  502    0 -0.64467508141E+02 -0.14339329135E+02  0.28458437106E+03  0.29214712084E+03  0.00000000000E+00 0. -1.
         22    1    3    3    0    0 -0.11062696700E+02  0.68964769799E+01 -0.43714184166E+03  0.43733618005E+03  0.00000000000E+00 0.  1.
         22    1    3    3    0    0  0.48313204505E+02  0.10587595952E+02 -0.64509639453E+02  0.81288107986E+02  0.00000000000E+00 0.  1.
</event>
<event>
 7    1  0.8278507E-006  0.1631119E+03  0.7818608E-02  0.1278702E+00
          2   -1    0    0  502    0  0.00000000000E+00  0.00000000000E+00  0.12157240222E+04  0.12157240222E+04  0.00000000000E+00 0. -1.
          1   -1    0    0  501    0 -0.00000000000E+00 -0.00000000000E+00 -0.76420096668E+03  0.76420096668E+03  0.00000000000E+00 0. -1.
         25    2    1    2    0    0  0.11741060585E+03 -0.61171245954E+01  0.27446284584E+03  0.32369205881E+03  0.12499610238E+03 0.  0.
          2    1    1    2  501    0  0.62007195709E+02  0.54361173178E+01 -0.72946861062E+03  0.73211945580E+03  0.00000000000E+00 0. -1.
          1    1    1    2  502    0 -0.17941780156E+03  0.68100727760E+00  0.90652882027E+03  0.92411347424E+03  0.00000000000E+00 0. -1.
         22    1    3    3    0    0  0.12696660260E+03  0.32520532171E+02  0.22256153937E+03  0.25828616299E+03  0.00000000000E+00 0. -1.
         22    1    3    3    0    0 -0.95559967429E+01 -0.38637656766E+02  0.51901306477E+02  0.65405895821E+02  0.00000000000E+00 0. -1.
</event>
<event>
 7    1  0.8278507E-006  0.9906444E+02  0.7818608E-02  0.1330308E+00
          2   -1    0    0  502    0  0.00000000000E+00  0.00000000000E+00  0.79416893154E+03  0.79416893154E+03  0.00000000000E+00 0. -1.
          1   -1    0    0  501    0 -0.00000000000E+00 -0.00000000000E+00 -0.10730064249E+04  0.10730064249E+04  0.00000000000E+00 0. -1.
         25    2    1    2    0    0 -0.14802528143E+03  0.99686063780E+01 -0.16379926642E+03  0.25390152484E+03  0.12499971033E+03 0.  0.
          2    1    1    2  501    0  0.57318425837E+02  0.28231623858E+02 -0.85973261925E+03  0.86210359188E+03  0.00000000000E+00 0. -1.
          1    1    1    2  502    0  0.90706855597E+02 -0.38200230236E+02  0.74469439226E+03  0.75117023976E+03  0.00000000000E+00 0. -1.
         22    1    3    3    0    0  0.35241965522E+01 -0.56910539096E+01 -0.79494463907E+02  0.79775797381E+02  0.00000000000E+00 0. -1.
         22    1    3    3    0    0 -0.15154947799E+03  0.15659660288E+02 -0.84304802510E+02  0.17412572746E+03  0.00000000000E+00 0. -1.
</event>
<event>
 7    1  0.8278507E-006  0.7961575E+02  0.7818608E-02  0.1340805E+00
          2   -1    0    0  502    0  0.00000000000E+00  0.00000000000E+00  0.33472820394E+03  0.33472820394E+03  0.00000000000E+00 0. -1.
          1   -1    0    0  501    0 -0.00000000000E+00 -0.00000000000E+00 -0.33032428557E+03  0.33032428557E+03  0.00000000000E+00 0. -1.
         25    2    1    2    0    0  0.18755285560E+02 -0.22923721232E+02 -0.97564273962E+02  0.16130069066E+03  0.12498746946E+03 0.  0.
          2    1    1    2  501    0 -0.84136029380E+02  0.54362602723E+02 -0.18358054453E+03  0.20913149056E+03  0.00000000000E+00 0. -1.
          1    1    1    2  502    0  0.65380743819E+02 -0.31438881491E+02  0.28554873686E+03  0.29462030829E+03  0.00000000000E+00 0. -1.
         22    1    3    3    0    0  0.59746399908E+01 -0.59449996076E+01  0.30418971910E+02  0.31565062893E+02  0.00000000000E+00 0. -1.
         22    1    3    3    0    0  0.12780645569E+02 -0.16978721624E+02 -0.12798324587E+03  0.12973562777E+03  0.00000000000E+00 0. -1.
</event>
<event>
 7    1  0.8278507E-006  0.6191448E+02  0.7818608E-02  0.1432926E+00
          2   -1    0    0  502    0  0.00000000000E+00  0.00000000000E+00  0.91123644448E+03  0.91123644448E+03  0.00000000000E+00 0. -1.
          1   -1    0    0  501    0 -0.00000000000E+00 -0.00000000000E+00 -0.56278660642E+03  0.56278660642E+03  0.00000000000E+00 0. -1.
         25    2    1    2    0    0 -0.21766534329E+02 -0.27770360924E+02  0.24580568622E+03  0.27801223389E+03  0.12500156740E+03 0.  0.
          2    1    1    2  501    0  0.23375417939E+02 -0.37641157181E+02 -0.54413217423E+03  0.54593322844E+03  0.00000000000E+00 0. -1.
          1    1    1    2  502    0 -0.16088836100E+01  0.65411518105E+02  0.64677632608E+03  0.65007758858E+03  0.00000000000E+00 0. -1.
         22    1    3    3    0    0  0.52418598736E+02 -0.14932147845E+02  0.10847668697E+03  0.12139962994E+03  0.00000000000E+00 0.  1.
         22    1    3    3    0    0 -0.74185133065E+02 -0.12838213079E+02  0.13732899924E+03  0.15661260395E+03  0.00000000000E+00 0.  1.
</event>
<event>
 7    1  0.8278507E-006  0.2374087E+03  0.7818608E-02  0.1214890E+00
          2   -1    0    0  502    0  0.00000000000E+00  0.00000000000E+00  0.44069785574E+04  0.44069785574E+04  0.00000000000E+00 0. -1.
          1   -1    0    0  501    0 -0.00000000000E+00 -0.00000000000E+00 -0.93226592566E+03  0.93226592566E+03  0.00000000000E+00 0. -1.
         25    2    1    2    0    0  0.25802073144E+03  0.14371164410E+02  0.59916581196E+03  0.66438214053E+03  0.12499092055E+03 0.  0.
          2    1    1    2  501    0 -0.37953986601E+02  0.71787178528E+02 -0.89411740387E+03  0.89779721319E+03  0.00000000000E+00 0. -1.
          1    1    1    2  502    0 -0.22006674484E+03 -0.86158342939E+02  0.37696642236E+04  0.37770651293E+04  0.00000000000E+00 0. -1.
         22    1    3    3    0    0  0.24562013187E+03 -0.20444676322E+02  0.47945140916E+03  0.53909265226E+03  0.00000000000E+00 0.  1.
         22    1    3    3    0    0  0.12400599569E+02  0.34815840733E+02  0.11971440280E+03  0.12528948827E+03  0.00000000000E+00 0.  1.
</event>
<event>
 7    1  0.8278507E-006  0.2050737E+03  0.7818608E-02  0.1190702E+00
          2   -1    0    0  502    0  0.00000000000E+00  0.00000000000E+00  0.10327904307E+04  0.10327904307E+04  0.00000000000E+00 0. -1.
          1   -1    0    0  501    0 -0.00000000000E+00 -0.00000000000E+00 -0.16144469820E+04  0.16144469820E+04  0.00000000000E+00 0. -1.
         25    2    1    2    0    0 -0.17448530818E+03 -0.41578482594E+01 -0.26883957650E+03  0.34403894346E+03  0.12500266500E+03 0.  0.
          2    1    1    2  501    0  0.18435211469E+03 -0.11754012742E+03 -0.12950651996E+04  0.13133907473E+04  0.00000000000E+00 0. -1.
          1    1    1    2  502    0 -0.98668065104E+01  0.12169797568E+03  0.98224822488E+03  0.98980772195E+03  0.00000000000E+00 0. -1.
         22    1    3    3    0    0 -0.14865844056E+03  0.17723696070E+01 -0.11505948984E+03  0.18799244518E+03  0.00000000000E+00 0.  1.
         22    1    3    3    0    0 -0.25826867620E+02 -0.59302178664E+01 -0.15378008665E+03  0.15604649828E+03  0.00000000000E+00 0.  1.
</event>
<event>
 7    1  0.8278507E-006  0.1588946E+03  0.7818608E-02  0.1218597E+00
          2   -1    0    0  502    0  0.00000000000E+00  0.00000000000E+00  0.55697485891E+03  0.55697485891E+03  0.00000000000E+00 0. -1.
          1   -1    0    0  501    0 -0.00000000000E+00 -0.00000000000E+00 -0.16098677911E+04  0.16098677911E+04  0.00000000000E+00 0. -1.
         25    2    1    2    0    0  0.40858697346E+02 -0.17381906644E+03 -0.40726061156E+02  0.22173425354E+03  0.12499986452E+03 0.  0.
          2    1    1    2  501    0  0.87569967526E+02  0.77096291169E+02 -0.14623912994E+04  0.14670380533E+04  0.00000000000E+00 0. -1.
          1    1    1    2  502    0 -0.12842866487E+03  0.96722775272E+02  0.45022442831E+03  0.47807034321E+03  0.00000000000E+00 0. -1.
         22    1    3    3    0    0  0.69459943373E+02 -0.12618167587E+03 -0.68636895718E+02  0.15955413662E+03  0.00000000000E+00 0. -1.
         22    1    3    3    0    0 -0.28601246027E+02 -0.47637390568E+02  0.27910834563E+02  0.62180116922E+02  0.00000000000E+00 0. -1.
</event>
<event>
 7    1  0.8278507E-006  0.6235036E+02  0.7818608E-02  0.1502846E+00
          2   -1    0    0  502    0  0.00000000000E+00  0.00000000000E+00  0.35194637364E+03  0.35194637364E+03  0.00000000000E+00 0. -1.
          1   -1    0    0  501    0 -0.00000000000E+00 -0.00000000000E+00 -0.51228727039E+03  0.51228727039E+03  0.00000000000E+00 0. -1.
         25    2    1    2    0    0  0.85567698548E+00 -0.77103553076E+02 -0.12407412010E+03  0.19226264672E+03  0.12499939185E+03 0.  0.
          2    1    1    2  501    0  0.19305261164E+02  0.18325234204E+02 -0.35057246619E+03  0.35158151454E+03  0.00000000000E+00 0. -1.
          1    1    1    2  502    0 -0.20160938150E+02  0.58778318872E+02  0.31430568954E+03  0.32038948277E+03  0.00000000000E+00 0. -1.
         22    1    3    3    0    0 -0.13949960133E+02 -0.23575792555E+02 -0.13319344645E+03  0.13598129856E+03  0.00000000000E+00 0.  1.
         22    1    3    3    0    0  0.14805637118E+02 -0.53527760521E+02  0.91193263435E+01  0.56281348152E+02  0.00000000000E+00 0.  1.
</event>
<event>
 7    1  0.8278507E-006  0.9368105E+02  0.7818608E-02  0.1355009E+00
          2   -1    0    0  502    0  0.00000000000E+00  0.00000000000E+00  0.25730796618E+04  0.25730796618E+04  0.00000000000E+00 0. -1.
          1   -1    0    0  501    0 -0.00000000000E+00 -0.00000000000E+00 -0.42421454439E+02  0.42421454439E+02  0.00000000000E+00 0. -1.
         25    2    1    2    0    0 -0.24376126991E+02 -0.14462550735E+03  0.19248360016E+04  0.19344584447E+04  0.12500043279E+03 0.  0.
          2    1    1    2  501    0  0.14443370410E+02  0.90939673843E+02  0.21997417368E+02  0.94670595215E+02  0.00000000000E+00 0. -1.
          1    1    1    2  502    0  0.99327565814E+01  0.53685833506E+02  0.58382478841E+03  0.58637207636E+03  0.00000000000E+00 0. -1.
         22    1    3    3    0    0 -0.52435417409E+02 -0.46999359327E+02  0.12540000226E+04  0.12559755051E+04  0.00000000000E+00 0. -1.
         22    1    3    3    0    0  0.28059290418E+02 -0.97626148023E+02  0.67083597901E+03  0.67848293957E+03  0.00000000000E+00 0. -1.
</event>
<event>
 7    1  0.8278507E-006  0.6079118E+02  0.7818608E-02  0.1463226E+00
          2   -1    0    0  502    0  0.00000000000E+00  0.00000000000E+00  0.35998828147E+03  0.35998828147E+03  0.00000000000E+00 0. -1.
          1   -1    0    0  501    0 -0.00000000000E+00 -0.00000000000E+00 -0.20570392071E+03  0.20570392071E+03  0.00000000000E+00 0. -1.
         25    2    1    2    0    0  0.50123610066E+01 -0.62944857803E+02 -0.11247531701E+03  0.17962124622E+03  0.12500366503E+03 0.  0.
          2    1    1    2  501    0 -0.34738492717E+02  0.97334899847E+01 -0.51026855900E+02  0.62491949294E+02  0.00000000000E+00 0. -1.
          1    1    1    2  502    0  0.29726131710E+02  0.53211367819E+02  0.31778653367E+03  0.32357900666E+03  0.00000000000E+00 0. -1.
         22    1    3    3    0    0 -0.54107355079E+02 -0.15996062486E+02 -0.19149109098E+02  0.59583288495E+02  0.00000000000E+00 0.  1.
         22    1    3    3    0    0  0.59119716085E+02 -0.46948795318E+02 -0.93326207910E+02  0.12003795772E+03  0.00000000000E+00 0.  1.
</event>
<event>
 7    1  0.8278507E-006  0.7463130E+02  0.7818608E-02  0.1400207E+00
          2   -1    0    0  502    0  0.00000000000E+00  0.00000000000E+00  0.91723018039E+03  0.91723018039E+03  0.00000000000E+00 0. -1.
          1   -1    0    0  501    0 -0.00000000000E+00 -0.00000000000E+00 -0.47082135926E+03  0.47082135926E+03  0.00000000000E+00 0. -1.
         25    2    1    2    0    0 -0.10786573441E+03 -0.22018590318E+02  0.46591266060E+02  0.17295874146E+03  0.12499658073E+03 0.  0.
          2    1    1    2  501    0  0.44554654332E+02 -0.15989733737E+02 -0.40456644710E+03  0.40732640343E+03  0.00000000000E+00 0. -1.
          1    1    1    2  502    0  0.63311080082E+02  0.38008324055E+02  0.80438400218E+03  0.80776639477E+03  0.00000000000E+00 0. -1.
         22    1    3    3    0    0 -0.12062280342E+03  0.17664022017E+02  0.20060234905E+02  0.12354874100E+03  0.00000000000E+00 0.  1.
         22    1    3    3    0    0  0.12757069006E+02 -0.39682612335E+02  0.26531031155E+02  0.49410000460E+02  0.00000000000E+00 0.  1.
</event>
<event>
 7    1  0.8278507E-006  0.7808396E+02  0.7818608E-02  0.1501205E+00
          2   -1    0    0  502    0  0.00000000000E+00  0.00000000000E+00  0.25741907876E+03  0.25741907876E+03  0.00000000000E+00 0. -1.
          1   -1    0    0  501    0 -0.00000000000E+00 -0.00000000000E+00 -0.36404204299E+03  0.36404204299E+03  0.00000000000E+00 0. -1.
         25    2    1    2    0    0  0.42179649054E+01 -0.88997834326E+02 -0.14919228172E+03  0.21405713001E+03  0.12499484886E+03 0.  0.
          2    1    1    2  501    0 -0.17558113073E+02  0.12399073581E+02 -0.17502273859E+03  0.17633769700E+03  0.00000000000E+00 0. -1.
          1    1    1    2  502    0  0.13340148167E+02  0.76598760745E+02  0.21759205607E+03  0.23106629474E+03  0.00000000000E+00 0. -1.
         22    1    3    3    0    0 -0.31786035242E+02 -0.18443618125E+02  0.83830101314E+01  0.37693420444E+02  0.00000000000E+00 0.  1.
         22    1    3    3    0    0  0.36004000147E+02 -0.70554216201E+02 -0.15757529185E+03  0.17636370957E+03  0.00000000000E+00 0.  1.
</event>
<event>
 7    1  0.8278507E-006  0.9791444E+02  0.7818608E-02  0.1383916E+00
          2   -1    0    0  502    0  0.00000000000E+00  0.00000000000E+00  0.18167352372E+03  0.18167352372E+03  0.00000000000E+00 0. -1.
          1   -1    0    0  501    0 -0.00000000000E+00 -0.00000000000E+00 -0.18524532681E+04  0.18524532681E+04  0.00000000000E+00 0. -1.
         25    2    1    2    0    0 -0.99710455338E+02 -0.86744517346E+02 -0.12448819168E+03  0.22042993744E+03  0.12500104503E+03 0.  0.
          2    1    1    2  501    0  0.59971624778E+02  0.76212323295E+02 -0.16753983110E+04  0.16782027335E+04  0.00000000000E+00 0. -1.
          1    1    1    2  502    0  0.39738830560E+02  0.10532194051E+02  0.12910675832E+03  0.13549412094E+03  0.00000000000E+00 0. -1.
         22    1    3    3    0    0 -0.38886237293E+02 -0.93175012750E+02 -0.12315663065E+03  0.15925224685E+03  0.00000000000E+00 0. -1.
         22    1    3    3    0    0 -0.60824218045E+02  0.64304954040E+01 -0.13315610273E+01  0.61177690596E+02  0.00000000000E+00 0. -1.
</event>
<event>
 7    1  0.8278507E-006  0.9362580E+02  0.7818608E-02  0.1356062E+00
          2   -1    0    0  502    0  0.00000000000E+00  0.00000000000E+00  0.19796627311E+04  0.19796627311E+04  0.00000000000E+00 0. -1.
          1   -1    0    0  501    0 -0.00000000000E+00 -0.00000000000E+00 -0.15715134509E+03  0.15715134509E+03  0.00000000000E+00 0. -1.
         25    2    1    2    0    0  0.56313817899E+02  0.75924784416E+00  0.18269881385E+02  0.13831161945E+03  0.12499797185E+03 0.  0.
          2    1    1    2  501    0 -0.10622000860E+03 -0.21759055378E+02 -0.66357584862E+02  0.12711992679E+03  0.00000000000E+00 0. -1.
          1    1    1    2  502    0  0.49906190701E+02  0.20999807534E+02  0.18705990895E+04  0.18713825300E+04  0.00000000000E+00 0. -1.
         22    1    3    3    0    0  0.36599734415E+02  0.44221188441E+02 -0.34650817605E+02  0.67050229135E+02  0.00000000000E+00 0. -1.
         22    1    3    3    0    0  0.19714083483E+02 -0.43461940596E+02  0.52920698991E+02  0.71261390315E+02  0.00000000000E+00 0. -1.
</event>
<event>
 7    1  0.8278507E-006  0.1348095E+03  0.7818608E-02  0.1424085E+00
          2   -1    0    0  502    0  0.00000000000E+00  0.00000000000E+00  0.54201247930E+03  0.54201247930E+03  0.00000000000E+00 0. -1.
          1   -1    0    0  501    0 -0.00000000000E+00 -0.00000000000E+00 -0.12138882032E+03  0.12138882032E+03  0.00000000000E+00 0. -1.
         25    2    1    2    0    0 -0.13307455938E+03 -0.17617546973E+02  0.23187879813E+03  0.29565471218E+03  0.12499886198E+03 0.  0.
          2    1    1    2  501    0  0.13514620711E+03 -0.40473342060E+01 -0.37616009506E+02  0.14034187679E+03  0.00000000000E+00 0. -1.
          1    1    1    2  502    0 -0.20716477282E+01  0.21664881179E+02  0.22636087035E+03  0.22740471065E+03  0.00000000000E+00 0. -1.
         22    1    3    3    0    0 -0.14359287166E+03 -0.38928336509E+02  0.22697480015E+03  0.27138881347E+03  0.00000000000E+00 0. -1.
         22    1    3    3    0    0  0.10518312281E+02  0.21310789536E+02  0.49039979847E+01  0.24265898709E+02  0.00000000000E+00 0. -1.
</event>
<event>
 7    1  0.8278507E-006  0.1281877E+03  0.7818608E-02  0.1299009E+00
          2   -1    0    0  502    0  0.00000000000E+00  0.00000000000E+00  0.12233015236E+04  0.12233015236E+04  0.00000000000E+00 0. -1.
          1   -1    0    0  501    0 -0.00000000000E+00 -0.00000000000E+00 -0.58283549711E+03  0.58283549711E+03  0.00000000000E+00 0. -1.
         25    2    1    2    0    0  0.18550128659E+03 -0.16285611231E+02  0.26520752777E+03  0.34732795150E+03  0.12500289856E+03 0.  0.
          2    1    1    2  501    0 -0.65148537582E+02 -0.64146234614E+01 -0.53568449619E+03  0.53966967564E+03  0.00000000000E+00 0. -1.
          1    1    1    2  502    0 -0.12035274901E+03  0.22700234692E+02  0.91094299489E+03  0.91913939356E+03  0.00000000000E+00 0. -1.
         22    1    3    3    0    0 -0.30722346448E+01 -0.90866339223E+01  0.87791562947E+02  0.88314008325E+02  0.00000000000E+00 0. -1.
         22    1    3    3    0    0  0.18857352123E+03 -0.71989773085E+01  0.17741596483E+03  0.25901394318E+03  0.00000000000E+00 0. -1.
</event>
<event>
 7    1  0.8278507E-006  0.9911571E+02  0.7818608E-02  0.1380842E+00
          2   -1    0    0  502    0  0.00000000000E+00  0.00000000000E+00  0.34901565895E+03  0.34901565895E+03  0.00000000000E+00 0. -1.
          1   -1    0    0  501    0 -0.00000000000E+00 -0.00000000000E+00 -0.37318194554E+03  0.37318194554E+03  0.00000000000E+00 0. -1.
         25    2    1    2    0    0 -0.10370468209E+03 -0.65039122290E+02  0.58043637812E+02  0.18434046457E+03  0.12501037745E+03 0.  0.
          2    1    1    2  501    0  0.10891573413E+02  0.40190144643E+02 -0.29839280054E+03  0.30128414746E+03  0.00000000000E+00 0. -1.
          1    1    1    2  502    0  0.92813108678E+02  0.24848977647E+02  0.21618287613E+03  0.23657299247E+03  0.00000000000E+00 0. -1.
         22    1    3    3    0    0 -0.51748647982E+02 -0.94529565957E+01 -0.35722264022E+02  0.63587428814E+02  0.00000000000E+00 0. -1.
         22    1    3    3    0    0 -0.51956034109E+02 -0.55586165694E+02  0.93765901834E+02  0.12075303575E+03  0.00000000000E+00 0. -1.
</event>
<event>
 7    1  0.8278507E-006  0.1946835E+03  0.7818608E-02  0.1211912E+00
          2   -1    0    0  502    0  0.00000000000E+00  0.00000000000E+00  0.25331760834E+04  0.25331760834E+04  0.00000000000E+00 0. -1.
          1   -1    0    0  501    0 -0.00000000000E+00 -0.00000000000E+00 -0.74742988635E+02  0.74742988635E+02  0.00000000000E+00 0. -1.
         25    2    1    2    0    0 -0.56259561503E+02 -0.20845814401E+03  0.13409969986E+04  0.13640080170E+04  0.12499993699E+03 0.  0.
          2    1    1    2  501    0 -0.44224956022E+02  0.18979031994E+03  0.95752878066E+02  0.21712859309E+03  0.00000000000E+00 0. -1.
          1    1    1    2  502    0  0.10048451752E+03  0.18667824072E+02  0.10216832181E+04  0.10267824619E+04  0.00000000000E+00 0. -1.
         22    1    3    3    0    0 -0.53586487568E+01 -0.18273509083E+02  0.49651435370E+03  0.49687940155E+03  0.00000000000E+00 0. -1.
         22    1    3    3    0    0 -0.50900912746E+02 -0.19018463493E+03  0.84448264485E+03  0.86712861545E+03  0.00000000000E+00 0. -1.
</event>
<event>
 7    1  0.8278507E-006  0.1791513E+03  0.7818608E-02  0.1342538E+00
          2   -1    0    0  502    0  0.00000000000E+00  0.00000000000E+00  0.42008406893E+03  0.42008406893E+03  0.00000000000E+00 0. -1.
          1   -1    0    0  501    0 -0.00000000000E+00 -0.00000000000E+00 -0.41997268325E+03  0.41997268325E+03  0.00000000000E+00 0. -1.
         25    2    1    2    0    0  0.18173097101E+03 -0.34854586551E+02 -0.51968530020E+02  0.22927333715E+03  0.12499818794E+03 0.  0.
          2    1    1    2  501    0 -0.17787994857E+03  0.33279917171E+01 -0.25010824544E+03  0.30693075126E+03  0.00000000000E+00 0. -1.
          1    1    1    2  502    0 -0.38510224374E+01  0.31526594834E+02  0.30218816114E+03  0.30385266378E+03  0.00000000000E+00 0. -1.
         22    1    3    3    0    0 -0.42383333336E+01  0.20304960911E+02  0.13264513347E+02  0.24621174248E+02  0.00000000000E+00 0. -1.
         22    1    3    3    0    0  0.18596930434E+03 -0.55159547462E+02 -0.65233043366E+02  0.20465216290E+03  0.00000000000E+00 0. -1.
</event>
<event>
 7    1  0.8278507E-006  0.3001791E+02  0.7818608E-02  0.1638040E+00
          2   -1    0    0  502    0  0.00000000000E+00  0.00000000000E+00  0.86924761908E+02  0.86924761908E+02  0.00000000000E+00 0. -1.
          1   -1    0    0  501    0 -0.00000000000E+00 -0.00000000000E+00 -0.99287377907E+03  0.99287377907E+03  0.00000000000E+00 0. -1.
         25    2    1    2    0    0  0.22629547213E+02  0.77418565215E+01 -0.40207928696E+02  0.13346161059E+03  0.12499316470E+03 0.  0.
          2    1    1    2  501    0  0.41396742450E+01 -0.23340992207E+02 -0.89990459802E+03  0.90021676520E+03  0.00000000000E+00 0. -1.
          1    1    1    2  502    0 -0.26769221458E+02  0.15599135686E+02  0.34163509554E+02  0.46120165184E+02  0.00000000000E+00 0. -1.
         22    1    3    3    0    0 -0.39711107367E+02  0.59390582022E+01  0.21652687602E+02  0.45618892370E+02  0.00000000000E+00 0. -1.
         22    1    3    3    0    0  0.62340654580E+02  0.18027983194E+01 -0.61860616298E+02  0.87842718218E+02  0.00000000000E+00 0. -1.
</event>
<event>
 7    1  0.8278507E-006  0.2192096E+03  0.7818608E-02  0.1226557E+00
          2   -1    0    0  502    0  0.00000000000E+00  0.00000000000E+00  0.76502431069E+03  0.76502431069E+03  0.00000000000E+00 0. -1.
          1   -1    0    0  501    0 -0.00000000000E+00 -0.00000000000E+00 -0.62384208446E+03  0.62384208446E+03  0.00000000000E+00 0. -1.
         25    2    1    2    0    0 -0.25035781800E+02 -0.20694200425E+03  0.13786217333E+02  0.24345094255E+03  0.12500607244E+03 0.  0.
          2    1    1    2  501    0 -0.77314587624E+02  0.88317008325E+01 -0.48628798570E+03  0.49247492264E+03  0.00000000000E+00 0. -1.
          1    1    1    2  502    0  0.10235036942E+03  0.19811030342E+03  0.61368399459E+03  0.65294052995E+03  0.00000000000E+00 0. -1.
         22    1    3    3    0    0 -0.69537120657E+02 -0.14777597171E+03 -0.15024623863E+02  0.16400880551E+03  0.00000000000E+00 0.  1.
         22    1    3    3    0    0  0.44501338856E+02 -0.59166032539E+02  0.28810841197E+02  0.79442137036E+02  0.00000000000E+00 0.  1.
</event>
<event>
 7    1  0.9135224E-006  0.7602489E+02  0.7818608E-02  0.1406071E+00
          2   -1    0    0  502    0  0.00000000000E+00  0.00000000000E+00  0.16232344448E+04  0.16232344448E+04  0.00000000000E+00 0. -1.
          1   -1    0    0  501    0 -0.00000000000E+00 -0.00000000000E+00 -0.64722814666E+03  0.64722814666E+03  0.00000000000E+00 0. -1.
         25    2    1    2    0    0 -0.67844611163E+02  0.33949798819E+02 -0.17488295768E+03  0.22795706530E+03  0.12499957852E+03 0.  0.
          2    1    1    2  501    0  0.38512298351E+02 -0.67242073947E+02 -0.44212958508E+03  0.44886887132E+03  0.00000000000E+00 0. -1.
          1    1    1    2  502    0  0.29332312812E+02  0.33292275128E+02  0.15930188409E+04  0.15936366549E+04  0.00000000000E+00 0. -1.
         22    1    3    3    0    0 -0.77395545133E+02  0.40587544004E+02 -0.46395472711E+02  0.98944221775E+02  0.00000000000E+00 0.  1.
         22    1    3    3    0    0  0.95509339694E+01 -0.66377451850E+01 -0.12848748497E+03  0.12901284353E+03  0.00000000000E+00 0.  1.
</event>
<event>
 7    1  0.8278507E-006  0.6914962E+02  0.7818608E-02  0.1501692E+00
          2   -1    0    0  502    0  0.00000000000E+00  0.00000000000E+00  0.46759242557E+03  0.46759242557E+03  0.00000000000E+00 0. -1.
          1   -1    0    0  501    0 -0.00000000000E+00 -0.00000000000E+00 -0.20725360227E+03  0.20725360227E+03  0.00000000000E+00 0. -1.
         25    2    1    2    0    0 -0.53465643916E+02  0.25948966159E+02  0.12883897641E+03  0.18909274272E+03  0.12499863832E+03 0.  0.
          2    1    1    2  501    0  0.31892395191E+01  0.23979913807E+02 -0.17220321294E+03  0.17389408863E+03  0.00000000000E+00 0. -1.
          1    1    1    2  502    0  0.50276404397E+02 -0.49928879966E+02  0.30370305983E+03  0.31185919650E+03  0.00000000000E+00 0. -1.
         22    1    3    3    0    0 -0.42473083558E+01 -0.32967916377E+02 -0.61462153308E+01  0.33803832643E+02  0.00000000000E+00 0.  1.
         22    1    3    3    0    0 -0.49218335560E+02  0.58916882535E+02  0.13498519174E+03  0.15528891007E+03  0.00000000000E+00 0.  1.
</event>
<event>
 7    1  0.8278507E-006  0.5038308E+02  0.7818608E-02  0.1465431E+00
          2   -1    0    0  502    0  0.00000000000E+00  0.00000000000E+00  0.67825411903E+03  0.67825411903E+03  0.00000000000E+00 0. -1.
          1   -1    0    0  501    0 -0.00000000000E+00 -0.00000000000E+00 -0.18802936199E+03  0.18802936199E+03  0.00000000000E+00 0. -1.
         25    2    1    2    0    0 -0.46934555488E+01 -0.87617333728E+01  0.29924624352E+03  0.32445734661E+03  0.12500183603E+03 0.  0.
          2    1    1    2  501    0 -0.38881037910E+01  0.50734897840E+02 -0.17044202261E+03  0.17787532230E+03  0.00000000000E+00 0. -1.
          1    1    1    2  502    0  0.85815593398E+01 -0.41973164467E+02  0.36142053613E+03  0.36395081210E+03  0.00000000000E+00 0. -1.
         22    1    3    3    0    0  0.33582218280E+02  0.27186736594E+02  0.24566440290E+03  0.24943512760E+03  0.00000000000E+00 0.  1.
         22    1    3    3    0    0 -0.38275673828E+02 -0.35948469967E+02  0.53581840625E+02  0.75022219007E+02  0.00000000000E+00 0.  1.
</event>
<event>
 7    1  0.8278507E-006  0.4007875E+02  0.7818608E-02  0.1543210E+00
          2   -1    0    0  502    0  0.00000000000E+00  0.00000000000E+00  0.16099528291E+04  0.16099528291E+04  0.00000000000E+00 0. -1.
          1   -1    0    0  501    0 -0.00000000000E+00 -0.00000000000E+00 -0.15406953174E+04  0.15406953174E+04  0.00000000000E+00 0. -1.
         25    2    1    2    0    0 -0.57584424110E+02 -0.49321907515E+01  0.37118256349E+03  0.39590630148E+03  0.12500004685E+03 0.  0.
          2    1    1    2  501    0  0.35793241121E+02 -0.18017998014E+02 -0.15278665304E+04  0.15283919455E+04  0.00000000000E+00 0. -1.
          1    1    1    2  502    0  0.21791182989E+02  0.22950188765E+02  0.12259414787E+04  0.12263498995E+04  0.00000000000E+00 0. -1.
         22    1    3    3    0    0  0.56562604063E+00 -0.48612440504E+02  0.24912112441E+03  0.25382045609E+03  0.00000000000E+00 0.  1.
         22    1    3    3    0    0 -0.58150050150E+02  0.43680249752E+02  0.12206143908E+03  0.14208584539E+03  0.00000000000E+00 0.  1.
</event>
<event>
 7    1  0.8278507E-006  0.8345163E+02  0.7818608E-02  0.1394093E+00
          2   -1    0    0  502    0  0.00000000000E+00  0.00000000000E+00  0.31228826580E+03  0.31228826580E+03  0.00000000000E+00 0. -1.
          1   -1    0    0  501    0 -0.00000000000E+00 -0.00000000000E+00 -0.12521704336E+04  0.12521704336E+04  0.00000000000E+00 0. -1.
         25    2    1    2    0    0 -0.10537585616E+03  0.63558294403E+02 -0.23690679857E+03  0.29477743601E+03  0.12500071088E+03 0.  0.
          2    1    1    2  501    0  0.62489244995E+02 -0.51901255661E+02 -0.98289978778E+03  0.98625079919E+03  0.00000000000E+00 0. -1.
          1    1    1    2  502    0  0.42886611168E+02 -0.11657038742E+02  0.27992441852E+03  0.28343046423E+03  0.00000000000E+00 0. -1.
         22    1    3    3    0    0 -0.47579089221E+02 -0.10775809551E+02 -0.17600054055E+03  0.18263646426E+03  0.00000000000E+00 0. -1.
         22    1    3    3    0    0 -0.57796766942E+02  0.74334103954E+02 -0.60906258023E+02  0.11214097175E+03  0.00000000000E+00 0. -1.
</event>
<event>
 7    1  0.8278507E-006  0.1101569E+03  0.7818608E-02  0.1265078E+00
          2   -1    0    0  502    0  0.00000000000E+00  0.00000000000E+00  0.81440712147E+03  0.81440712147E+03  0.00000000000E+00 0. -1.
          1   -1    0    0  501    0 -0.00000000000E+00 -0.00000000000E+00 -0.95796120791E+02  0.95796120791E+02  0.00000000000E+00 0. -1.
         25    2    1    2    0    0  0.16990407524E+02 -0.47819464150E+01  0.37031845812E+03  0.39124481007E+03  0.12500080010E+03 0.  0.
          2    1    1    2  501    0 -0.10162452277E+03  0.67103481057E+02 -0.30759201323E+02  0.12560473425E+03  0.00000000000E+00 0. -1.
          1    1    1    2  502    0  0.84634115250E+02 -0.62321534642E+02  0.37905174388E+03  0.39335369794E+03  0.00000000000E+00 0. -1.
         22    1    3    3    0    0 -0.46297926145E+02  0.53099984219E+00  0.25880118718E+03  0.26291031629E+03  0.00000000000E+00 0. -1.
         22    1    3    3    0    0  0.63288333669E+02 -0.53129462571E+01  0.11151727094E+03  0.12833449378E+03  0.00000000000E+00 0. -1.
</event>
<event>
 7    1  0.8278507E-006  0.1547287E+03  0.7818608E-02  0.1275269E+00
          2   -1    0    0  502    0  0.00000000000E+00  0.00000000000E+00  0.17249518848E+04  0.17249518848E+04  0.00000000000E+00 0. -1.
          1   -1    0    0  501    0 -0.00000000000E+00 -0.00000000000E+00 -0.52959230734E+03  0.52959230734E+03  0.00000000000E+00 0. -1.
         25    2    1    2    0    0  0.10116843355E+03  0.34294973116E+02  0.39125475525E+01  0.16447350505E+03  0.12500011483E+03 0.  0.
          2    1    1    2  501    0  0.56063480764E+02 -0.38141254897E+02 -0.44295684266E+03  0.44811676342E+03  0.00000000000E+00 0. -1.
          1    1    1    2  502    0 -0.15723191431E+03  0.38462817809E+01  0.16344038726E+04  0.16419539237E+04  0.00000000000E+00 0. -1.
         22    1    3    3    0    0  0.73039832440E+02  0.81359836706E+02 -0.17711256715E+01  0.10934979213E+03  0.00000000000E+00 0.  1.
         22    1    3    3    0    0  0.28128601109E+02 -0.47064863590E+02  0.56836732239E+01  0.55123712923E+02  0.00000000000E+00 0.  1.
</event>
<event>
 7    1  0.8278507E-006  0.7227210E+02  0.7818608E-02  0.1430243E+00
          2   -1    0    0  502    0  0.00000000000E+00  0.00000000000E+00  0.14338512732E+04  0.14338512732E+04  0.00000000000E+00 0. -1.
          1   -1    0    0  501    0 -0.00000000000E+00 -0.00000000000E+00 -0.33382897759E+03  0.33382897759E+03  0.00000000000E+00 0. -1.
         25    2    1    2    0    0 -0.73468434670E+02  0.73032891402E+02  0.26510621869E+01  0.16236968673E+03  0.12500189166E+03 0.  0.
          2    1    1    2  501    0  0.60342774873E+02 -0.36587397888E+02 -0.24878361448E+03  0.25859848220E+03  0.00000000000E+00 0. -1.
          1    1    1    2  502    0  0.13125659796E+02 -0.36445493514E+02  0.13461548479E+04  0.13467120819E+04  0.00000000000E+00 0. -1.
         22    1    3    3    0    0 -0.80151738889E+02 -0.83279050802E+01  0.45650430294E+01  0.80712420778E+02  0.00000000000E+00 0.  1.
         22    1    3    3    0    0  0.66833042195E+01  0.81360796482E+02 -0.19139808424E+01  0.81657265948E+02  0.00000000000E+00 0.  1.
</event>
<event>
 7    1  0.8278507E-006  0.2018966E+03  0.7818608E-02  0.1267233E+00
          2   -1    0    0  502    0  0.00000000000E+00  0.00000000000E+00  0.57363736484E+03  0.57363736484E+03  0.00000000000E+00 0. -1.
          1   -1    0    0  501    0 -0.00000000000E+00 -0.00000000000E+00 -0.29897965768E+03  0.29897965768E+03  0.00000000000E+00 0. -1.
         25    2    1    2    0    0 -0.18009395189E+03  0.17844635450E+02  0.26126217388E+03  0.34151621698E+03  0.12499256151E+03 0.  0.
          2    1    1    2  501    0 -0.41455639859E+02  0.37880798591E+02 -0.20650918751E+03  0.21400833980E+03  0.00000000000E+00 0. -1.
          1    1    1    2  502    0  0.22154959175E+03 -0.55725434041E+02  0.21990472079E+03  0.31709246574E+03  0.00000000000E+00 0. -1.
         22    1    3    3    0    0 -0.67220453803E+02 -0.52029731827E+02  0.12601319547E+03  0.15200331521E+03  0.00000000000E+00 0. -1.
         22    1    3    3    0    0 -0.11287349809E+03  0.69874367277E+02  0.13524897842E+03  0.18951290176E+03  0.00000000000E+00 0. -1.
</event>
<event>
 7    1  0.8278507E-006  0.3587104E+03  0.7818608E-02  0.1236353E+00
          2   -1    0    0  502    0  0.00000000000E+00  0.00000000000E+00  0.12628487946E+04  0.12628487946E+04  0.00000000000E+00 0. -1.
          1   -1    0    0  501    0 -0.00000000000E+00 -0.00000000000E+00 -0.15005472084E+04  0.15005472084E+04  0.00000000000E+00 0. -1.
         25    2    1    2    0    0 -0.33572370712E+03 -0.14820224113E+03  0.54088085118E+03  0.66547175502E+03  0.12500499896E+03 0.  0.
          2    1    1    2  501    0  0.34253858965E+03  0.10575521589E+03 -0.14151764324E+04  0.14598771132E+04  0.00000000000E+00 0. -1.
          1    1    1    2  502    0 -0.68148825288E+01  0.42447025238E+02  0.63659716737E+03  0.63804713469E+03  0.00000000000E+00 0. -1.
         22    1    3    3    0    0 -0.58611145059E+02  0.16038379514E+02  0.12889621773E+03  0.14250168731E+03  0.00000000000E+00 0. -1.
         22    1    3    3    0    0 -0.27711256206E+03 -0.16424062064E+03  0.41198463345E+03  0.52297006771E+03  0.00000000000E+00 0. -1.
</event>
<event>
 7    1  0.8278507E-006  0.2362414E+03  0.7818608E-02  0.1160681E+00
          2   -1    0    0  502    0  0.00000000000E+00  0.00000000000E+00  0.31146085201E+04  0.31146085201E+04  0.00000000000E+00 0. -1.
          1   -1    0    0  501    0 -0.00000000000E+00 -0.00000000000E+00 -0.20120343329E+04  0.20120343329E+04  0.00000000000E+00 0. -1.
         25    2    1    2    0    0  0.81884027112E+02 -0.36450031022E+03  0.21521268064E+03  0.44889437329E+03  0.12499676165E+03 0.  0.
          2    1    1    2  501    0 -0.64048482754E+02  0.13443108349E+03 -0.18874717396E+04  0.18933366030E+04  0.00000000000E+00 0. -1.
          1    1    1    2  502    0 -0.17835544358E+02  0.23006922672E+03  0.27748332461E+04  0.27844118768E+04  0.00000000000E+00 0. -1.
         22    1    3    3    0    0 -0.17938609273E+02 -0.15162467498E+03  0.12404107075E+03  0.19671813083E+03  0.00000000000E+00 0. -1.
         22    1    3    3    0    0  0.99822636385E+02 -0.21287563523E+03  0.91171609895E+02  0.25217624246E+03  0.00000000000E+00 0. -1.
</event>
<event>
 7    1  0.8278507E-006  0.1312447E+03  0.7818608E-02  0.1230734E+00
          2   -1    0    0  502    0  0.00000000000E+00  0.00000000000E+00  0.18979274094E+04  0.18979274094E+04  0.00000000000E+00 0. -1.
          1   -1    0    0  501    0 -0.00000000000E+00 -0.00000000000E+00 -0.25144458793E+03  0.25144458793E+03  0.00000000000E+00 0. -1.
         25    2    1    2    0    0 -0.16670078596E+03  0.11722262495E+02  0.37777034914E+03  0.43158043012E+03  0.12499867000E+03 0.  0.
          2    1    1    2  501    0  0.95923693694E+02  0.90672630148E+02 -0.20228274185E+03  0.24153920701E+03  0.00000000000E+00 0. -1.
          1    1    1    2  502    0  0.70777092265E+02 -0.10239489264E+03  0.14709952142E+04  0.14762523602E+04  0.00000000000E+00 0. -1.
         22    1    3    3    0    0 -0.12828474329E+03  0.45365146947E+02  0.34510487142E+03  0.37096137830E+03  0.00000000000E+00 0. -1.
         22    1    3    3    0    0 -0.38416042672E+02 -0.33642884453E+02  0.32665477721E+02  0.60619051820E+02  0.00000000000E+00 0. -1.
</event>
<event>
 7    1  0.8278507E-006  0.6789033E+02  0.7818608E-02  0.1412374E+00
          2   -1    0    0  502    0  0.00000000000E+00  0.00000000000E+00  0.10973036926E+04  0.10973036926E+04  0.00000000000E+00 0. -1.
          1   -1    0    0  501    0 -0.00000000000E+00 -0.00000000000E+00 -0.24951912216E+04  0.24951912216E+04  0.00000000000E+00 0. -1.
         25    2    1    2    0    0 -0.29465833081E+02 -0.41853917928E+01  0.52309837271E+01  0.12860966896E+03  0.12500932339E+03 0.  0.
          2    1    1    2  501    0  0.60476131413E+02 -0.31530856939E+02 -0.24324808245E+04  0.24334367711E+04  0.00000000000E+00 0. -1.
          1    1    1    2  502    0 -0.31010298333E+02  0.35716248732E+02  0.10293623117E+04  0.10304484741E+04  0.00000000000E+00 0. -1.
         22    1    3    3    0    0  0.20153700321E+02  0.50408380237E+02  0.74846298930E+01  0.54801424428E+02  0.00000000000E+00 0. -1.
         22    1    3    3    0    0 -0.49619533401E+02 -0.54593772029E+02 -0.22536461659E+01  0.73808244529E+02  0.00000000000E+00 0. -1.
</event>
<event>
 7    1  0.8278507E-006  0.4022389E+02  0.7818608E-02  0.1541215E+00
          2   -1    0    0  502    0  0.00000000000E+00  0.00000000000E+00  0.31740917584E+03  0.31740917584E+03  0.00000000000E+00 0. -1.
          1   -1    0    0  501    0 -0.00000000000E+00 -0.00000000000E+00 -0.62075818327E+03  0.62075818327E+03  0.00000000000E+00 0. -1.
         25    2    1    2    0    0 -0.64284167002E+02  0.60602910947E+01 -0.95173423300E+02  0.16987218862E+03  0.12501759359E+03 0.  0.
          2    1    1    2  501    0  0.35031323621E+02 -0.18894073187E+02 -0.48650912144E+03  0.48813451515E+03  0.00000000000E+00 0. -1.
          1    1    1    2  502    0  0.29252843381E+02  0.12833782092E+02  0.27833353731E+03  0.28016065534E+03  0.00000000000E+00 0. -1.
         22    1    3    3    0    0 -0.35216259119E+02  0.65310590541E+02 -0.57569314338E+02  0.93914237985E+02  0.00000000000E+00 0. -1.
         22    1    3    3    0    0 -0.29067907884E+02 -0.59250299446E+02 -0.37604108963E+02  0.75957950631E+02  0.00000000000E+00 0. -1.
</event>
<event>
 7    1  0.8278507E-006  0.1139298E+03  0.7818608E-02  0.1329907E+00
          2   -1    0    0  502    0  0.00000000000E+00  0.00000000000E+00  0.71377960653E+03  0.71377960653E+03  0.00000000000E+00 0. -1.
          1   -1    0    0  501    0 -0.00000000000E+00 -0.00000000000E+00 -0.68291469770E+03  0.68291469770E+03  0.00000000000E+00 0. -1.
         25    2    1    2    0    0  0.74965074619E+02  0.45498286238E+02 -0.19064767953E+03  0.24425672602E+03  0.12499981613E+03 0.  0.
          2    1    1    2  501    0 -0.71501781244E+02 -0.10114420951E+03 -0.45605664830E+03  0.47257837688E+03  0.00000000000E+00 0. -1.
          1    1    1    2  502    0 -0.34632933753E+01  0.55645923276E+02  0.67756923665E+03  0.67985920133E+03  0.00000000000E+00 0. -1.
         22    1    3    3    0    0  0.59905528551E+01 -0.40197590904E+02 -0.34855245683E+02  0.53540836654E+02  0.00000000000E+00 0. -1.
         22    1    3    3    0    0  0.68974521764E+02  0.85695877142E+02 -0.15579243385E+03  0.19071588936E+03  0.00000000000E+00 0. -1.
</event>
<event>
 7    1  0.8278507E-006  0.4417654E+02  0.7818608E-02  0.1533945E+00
          2   -1    0    0  502    0  0.00000000000E+00  0.00000000000E+00  0.65556079006E+02  0.65556079006E+02  0.00000000000E+00 0. -1.
          1   -1    0    0  501    0 -0.00000000000E+00 -0.00000000000E+00 -0.52498898370E+03  0.52498898370E+03  0.00000000000E+00 0. -1.
         25    2    1    2    0    0  0.74666298706E+01  0.57171477655E+02 -0.32366614324E+03  0.35172205694E+03  0.12499721853E+03 0.  0.
          2    1    1    2  501    0 -0.26802227372E+02 -0.33583431556E+02 -0.18002025218E+03  0.18507700414E+03  0.00000000000E+00 0. -1.
          1    1    1    2  502    0  0.19335597501E+02 -0.23588046100E+02  0.44253490723E+02  0.53746001626E+02  0.00000000000E+00 0. -1.
         22    1    3    3    0    0 -0.82586238721E+01 -0.19412607467E+02 -0.25786468977E+01  0.21253320134E+02  0.00000000000E+00 0. -1.
         22    1    3    3    0    0  0.15725253743E+02  0.76584085122E+02 -0.32108749634E+03  0.33046873681E+03  0.00000000000E+00 0. -1.
</event>
<event>
 7    1  0.8278507E-006  0.1063981E+03  0.7818608E-02  0.1349924E+00
          2   -1    0    0  502    0  0.00000000000E+00  0.00000000000E+00  0.18931002824E+04  0.18931002824E+04  0.00000000000E+00 0. -1.
          1   -1    0    0  501    0 -0.00000000000E+00 -0.00000000000E+00 -0.52023734808E+02  0.52023734808E+02  0.00000000000E+00 0. -1.
         25    2    1    2    0    0  0.10262257287E+03 -0.15578804090E+02  0.13955287821E+04  0.14049555960E+04  0.12500221380E+03 0.  0.
          2    1    1    2  501    0 -0.10126960123E+03 -0.34597272679E+02  0.16602791546E+02  0.10829661166E+03  0.00000000000E+00 0. -1.
          1    1    1    2  502    0 -0.13529716471E+01  0.50176076769E+02  0.42894497395E+03  0.43187180956E+03  0.00000000000E+00 0. -1.
         22    1    3    3    0    0 -0.17716033358E+01  0.22548566884E+02  0.71924211114E+03  0.71959765903E+03  0.00000000000E+00 0.  1.
         22    1    3    3    0    0  0.10439417621E+03 -0.38127370974E+02  0.67628667094E+03  0.68535793695E+03  0.00000000000E+00 0.  1.
</event>
<event>
 7    1  0.8278507E-006  0.1262567E+03  0.7818608E-02  0.1311248E+00
          2   -1    0    0  502    0  0.00000000000E+00  0.00000000000E+00  0.75987781357E+03  0.75987781357E+03  0.00000000000E+00 0. -1.
          1   -1    0    0  501    0 -0.00000000000E+00 -0.00000000000E+00 -0.64257094409E+03  0.64257094409E+03  0.00000000000E+00 0. -1.
         25    2    1    2    0    0  0.24745657314E+01  0.98064507744E+02  0.17277710970E+03  0.23473021486E+03  0.12499429177E+03 0.  0.
          2    1    1    2  501    0  0.54389974490E+02 -0.11532973015E+03 -0.60332376376E+03  0.61665126279E+03  0.00000000000E+00 0. -1.
          1    1    1    2  502    0 -0.56864540221E+02  0.17265222401E+02  0.54785352355E+03  0.55106728001E+03  0.00000000000E+00 0. -1.
         22    1    3    3    0    0 -0.15755313124E+02  0.62861014230E+02  0.18270887304E+03  0.19386146932E+03  0.00000000000E+00 0.  1.
         22    1    3    3    0    0  0.18229878855E+02  0.35203493514E+02 -0.99317633321E+01  0.40868745535E+02  0.00000000000E+00 0.  1.
</event>
<event>
 7    1  0.8278507E-006  0.1915873E+03  0.7818608E-02  0.1232058E+00
          2   -1    0    0  502    0  0.00000000000E+00  0.00000000000E+00  0.24563086526E+04  0.24563086526E+04  0.00000000000E+00 0. -1.
          1   -1    0    0  501    0 -0.00000000000E+00 -0.00000000000E+00 -0.11752795486E+03  0.11752795486E+03  0.00000000000E+00 0. -1.
         25    2    1    2    0    0  0.15281258536E+03 -0.64169802952E+02  0.11961486080E+04  0.12140290642E+04  0.12500250665E+03 0.  0.
          2    1    1    2  501    0 -0.19438843468E+03 -0.89522614894E+01 -0.18647194850E+02  0.19548586752E+03  0.00000000000E+00 0. -1.
          1    1    1    2  502    0  0.41575849325E+02  0.73122064441E+02  0.11612792847E+04  0.11643216757E+04  0.00000000000E+00 0. -1.
         22    1    3    3    0    0  0.13110197588E+02  0.34176402418E+02  0.19448080308E+03  0.19789564555E+03  0.00000000000E+00 0. -1.
         22    1    3    3    0    0  0.13970238777E+03 -0.98346205370E+02  0.10016678049E+04  0.10161334187E+04  0.00000000000E+00 0. -1.
</event>
<event>
 7    1  0.8278507E-006  0.1521392E+03  0.7818608E-02  0.1271347E+00
          2   -1    0    0  502    0  0.00000000000E+00  0.00000000000E+00  0.55797108006E+03  0.55797108006E+03  0.00000000000E+00 0. -1.
          1   -1    0    0  501    0 -0.00000000000E+00 -0.00000000000E+00 -0.74327064178E+03  0.74327064178E+03  0.00000000000E+00 0. -1.
         25    2    1    2    0    0 -0.10914097682E+03  0.13837686326E+02 -0.34137875081E+03  0.37982754331E+03  0.12500510697E+03 0.  0.
          2    1    1    2  501    0 -0.37108677312E+02 -0.61248222683E+02 -0.36817847049E+03  0.37507837161E+03  0.00000000000E+00 0. -1.
          1    1    1    2  502    0  0.14624965413E+03  0.47410536358E+02  0.52425765958E+03  0.54633580692E+03  0.00000000000E+00 0. -1.
         22    1    3    3    0    0 -0.10602187346E+03  0.48217661954E+01 -0.35074960127E+03  0.36645486745E+03  0.00000000000E+00 0. -1.
         22    1    3    3    0    0 -0.31191033594E+01  0.90159201302E+01  0.93708504597E+01  0.13372675869E+02  0.00000000000E+00 0. -1.
</event>
<event>
 7    1  0.8278507E-006  0.7223870E+02  0.7818608E-02  0.1413040E+00
          2   -1    0    0  502    0  0.00000000000E+00  0.00000000000E+00  0.26355149129E+04  0.26355149129E+04  0.00000000000E+00 0. -1.
          1   -1    0    0  501    0 -0.00000000000E+00 -0.00000000000E+00 -0.13995440509E+04  0.13995440509E+04  0.00000000000E+00 0. -1.
         25    2    1    2    0    0 -0.73306539043E+02  0.80445833071E+02  0.10283344922E+04  0.10416053769E+04  0.12499821014E+03 0.  0.
          2    1    1    2  501    0  0.38687306549E+02 -0.21423997433E+02 -0.13918259303E+04  0.13925283177E+04  0.00000000000E+00 0. -1.
          1    1    1    2  502    0  0.34619232494E+02 -0.59021835638E+02  0.15994623000E+04  0.16009252692E+04  0.00000000000E+00 0. -1.
         22    1    3    3    0    0 -0.62340050231E+02  0.59850163025E+02  0.10046421883E+04  0.10083522452E+04  0.00000000000E+00 0. -1.
         22    1    3    3    0    0 -0.10966488813E+02  0.20595670045E+02  0.23692303888E+02  0.33253131657E+02  0.00000000000E+00 0. -1.
</event>
<event>
 7    1  0.8278507E-006  0.6400931E+02  0.7818608E-02  0.1453670E+00
          2   -1    0    0  502    0  0.00000000000E+00  0.00000000000E+00  0.15994540538E+04  0.15994540538E+04  0.00000000000E+00 0. -1.
          1   -1    0    0  501    0 -0.00000000000E+00 -0.00000000000E+00 -0.49161737541E+03  0.49161737541E+03  0.00000000000E+00 0. -1.
         25    2    1    2    0    0 -0.68515514006E+02  0.13317972026E+02 -0.53023531853E+02  0.15267383390E+03  0.12500424229E+03 0.  0.
          2    1    1    2  501    0  0.60167119114E+02  0.22451685508E+02 -0.38589710610E+03  0.39120421381E+03  0.00000000000E+00 0. -1.
          1    1    1    2  502    0  0.83483948918E+01 -0.35769657534E+02  0.15467573163E+04  0.15471933815E+04  0.00000000000E+00 0. -1.
         22    1    3    3    0    0  0.12859521221E+02 -0.33123875857E+02  0.13235570532E+02  0.37917525831E+02  0.00000000000E+00 0. -1.
         22    1    3    3    0    0 -0.81375035227E+02  0.46441847883E+02 -0.66259102386E+02  0.11475630807E+03  0.00000000000E+00 0. -1.
</event>
<event>
 7    1  0.8278507E-006  0.1299977E+03  0.7818608E-02  0.1240809E+00
          2   -1    0    0  502    0  0.00000000000E+00  0.00000000000E+00  0.12005004282E+04  0.12005004282E+04  0.00000000000E+00 0. -1.
          1   -1    0    0  501    0 -0.00000000000E+00 -0.00000000000E+00 -0.12682759693E+04  0.12682759693E+04  0.00000000000E+00 0. -1.
         25    2    1    2    0    0 -0.49322063143E+02 -0.21772202345E+03 -0.12528381535E+03  0.28487960739E+03  0.12499924364E+03 0.  0.
          2    1    1    2  501    0  0.68506579569E+02  0.10599016133E+03 -0.10565623971E+04  0.10640729132E+04  0.00000000000E+00 0. -1.
          1    1    1    2  502    0 -0.19184516426E+02  0.11173186212E+03  0.11140706713E+04  0.11198238769E+04  0.00000000000E+00 0. -1.
         22    1    3    3    0    0 -0.77569189295E+02 -0.82163034025E+02 -0.30377396955E+02  0.11700653629E+03  0.00000000000E+00 0.  1.
         22    1    3    3    0    0  0.28247126151E+02 -0.13555898942E+03 -0.94906418398E+02  0.16787307110E+03  0.00000000000E+00 0.  1.
</event>
<event>
 7    1  0.8278507E-006  0.3142876E+02  0.7818608E-02  0.1598903E+00
          2   -1    0    0  502    0  0.00000000000E+00  0.00000000000E+00  0.51787981097E+03  0.51787981097E+03  0.00000000000E+00 0. -1.
          1   -1    0    0  501    0 -0.00000000000E+00 -0.00000000000E+00 -0.58977623631E+02  0.58977623631E+02  0.00000000000E+00 0. -1.
         25    2    1    2    0    0  0.81767556540E+01 -0.31914261212E+02  0.22854479873E+03  0.26256893974E+03  0.12499737473E+03 0.  0.
          2    1    1    2  501    0 -0.29102651059E+02  0.12572000543E+02 -0.35105053412E+02  0.47300996516E+02  0.00000000000E+00 0. -1.
          1    1    1    2  502    0  0.20925895405E+02  0.19342260669E+02  0.26546244203E+03  0.26698749835E+03  0.00000000000E+00 0. -1.
         22    1    3    3    0    0  0.14347908952E+02 -0.15234832595E+02  0.24032651506E+03  0.24123597671E+03  0.00000000000E+00 0.  1.
         22    1    3    3    0    0 -0.61711532980E+01 -0.16679428617E+02 -0.11781716335E+02  0.21332963034E+02  0.00000000000E+00 0.  1.
</event>
<event>
 7    1  0.8278507E-006  0.6230939E+02  0.7818608E-02  0.1473866E+00
          2   -1    0    0  502    0  0.00000000000E+00  0.00000000000E+00  0.15159395663E+03  0.15159395663E+03  0.00000000000E+00 0. -1.
          1   -1    0    0  501    0 -0.00000000000E+00 -0.00000000000E+00 -0.29584983492E+03  0.29584983492E+03  0.00000000000E+00 0. -1.
         25    2    1    2    0    0 -0.66098220859E+02  0.45925871040E+02 -0.20904732390E+03  0.25652454976E+03  0.12500360223E+03 0.  0.
          2    1    1    2  501    0  0.33690796551E+02 -0.42302232226E+02 -0.48737179787E+02  0.72800146409E+02  0.00000000000E+00 0. -1.
          1    1    1    2  502    0  0.32407424308E+02 -0.36236388136E+01  0.11352862539E+03  0.11811909538E+03  0.00000000000E+00 0. -1.
         22    1    3    3    0    0 -0.80690372912E+01  0.68002446020E+02 -0.47180993550E+02  0.83159414259E+02  0.00000000000E+00 0. -1.
         22    1    3    3    0    0 -0.58029183568E+02 -0.22076574980E+02 -0.16186633035E+03  0.17336513550E+03  0.00000000000E+00 0. -1.
</event>
<event>
 7    1  0.8278507E-006  0.4187580E+02  0.7818608E-02  0.1535221E+00
          2   -1    0    0  502    0  0.00000000000E+00  0.00000000000E+00  0.60130955060E+03  0.60130955060E+03  0.00000000000E+00 0. -1.
          1   -1    0    0  501    0 -0.00000000000E+00 -0.00000000000E+00 -0.33961398431E+03  0.33961398431E+03  0.00000000000E+00 0. -1.
         25    2    1    2    0    0 -0.10854862470E+02 -0.13630859216E+02  0.13027024950E+02  0.12687802620E+03  0.12499880716E+03 0.  0.
          2    1    1    2  501    0  0.14270917537E+02 -0.28538649674E+02 -0.28094181666E+03  0.28274797605E+03  0.00000000000E+00 0. -1.
          1    1    1    2  502    0 -0.34160550666E+01  0.42169508890E+02  0.52961035799E+03  0.53129753266E+03  0.00000000000E+00 0. -1.
         22    1    3    3    0    0 -0.22982407674E+02  0.22891208495E+02 -0.46077088161E+02  0.56349769674E+02  0.00000000000E+00 0.  1.
         22    1    3    3    0    0  0.12127545204E+02 -0.36522067711E+02  0.59104113111E+02  0.70528256531E+02  0.00000000000E+00 0.  1.
</event>
<event>
 7    1  0.8278507E-006  0.4329904E+02  0.7818608E-02  0.1544097E+00
          2   -1    0    0  502    0  0.00000000000E+00  0.00000000000E+00  0.20623136353E+04  0.20623136353E+04  0.00000000000E+00 0. -1.
          1   -1    0    0  501    0 -0.00000000000E+00 -0.00000000000E+00 -0.20766215217E+02  0.20766215217E+02  0.00000000000E+00 0. -1.
         25    2    1    2    0    0  0.30633992957E+02  0.63351857251E+02  0.32092028600E+03  0.35152067867E+03  0.12500023290E+03 0.  0.
          2    1    1    2  501    0 -0.18911209289E+02 -0.22151509722E+02  0.35639464372E+02  0.46027107670E+02  0.00000000000E+00 0. -1.
          1    1    1    2  502    0 -0.11722783669E+02 -0.41200347529E+02  0.16849876698E+04  0.16855320642E+04  0.00000000000E+00 0. -1.
         22    1    3    3    0    0 -0.34238585728E+02 -0.46234083582E+01  0.17199174006E+03  0.17542752151E+03  0.00000000000E+00 0.  1.
         22    1    3    3    0    0  0.64872578685E+02  0.67975265609E+02  0.14892854595E+03  0.17609315716E+03  0.00000000000E+00 0.  1.
</event>
<event>
 7    1  0.8278507E-006  0.8490620E+02  0.7818608E-02  0.1430165E+00
          2   -1    0    0  502    0  0.00000000000E+00  0.00000000000E+00  0.11171165764E+04  0.11171165764E+04  0.00000000000E+00 0. -1.
          1   -1    0    0  501    0 -0.00000000000E+00 -0.00000000000E+00 -0.13039709338E+03  0.13039709338E+03  0.00000000000E+00 0. -1.
         25    2    1    2    0    0  0.40347713808E+02 -0.86663338574E+02  0.46022607531E+03  0.48637296598E+03  0.12494858697E+03 0.  0.
          2    1    1    2  501    0 -0.74322839175E+01  0.84412253878E+02 -0.10153298721E+03  0.13224830789E+03  0.00000000000E+00 0. -1.
          1    1    1    2  502    0 -0.32915429890E+02  0.22510846966E+01  0.62802639491E+03  0.62889239589E+03  0.00000000000E+00 0. -1.
         22    1    3    3    0    0  0.55710255916E+02 -0.43506126483E+02  0.41843872260E+03  0.42436703480E+03  0.00000000000E+00 0. -1.
         22    1    3    3    0    0 -0.15362542109E+02 -0.43157212092E+02  0.41787352708E+02  0.62005931183E+02  0.00000000000E+00 0. -1.
</event>
<event>
 7    1  0.8278507E-006  0.1538050E+03  0.7818608E-02  0.1315747E+00
          2   -1    0    0  502    0  0.00000000000E+00  0.00000000000E+00  0.52902565697E+03  0.52902565697E+03  0.00000000000E+00 0. -1.
          1   -1    0    0  501    0 -0.00000000000E+00 -0.00000000000E+00 -0.75308051603E+03  0.75308051603E+03  0.00000000000E+00 0. -1.
         25    2    1    2    0    0  0.92073970155E+02 -0.16832817509E+03 -0.13370572993E+03  0.26516680314E+03  0.12499688299E+03 0.  0.
          2    1    1    2  501    0 -0.38604336755E+02  0.26531375064E+02 -0.54021115143E+03  0.54223822883E+03  0.00000000000E+00 0. -1.
          1    1    1    2  502    0 -0.53469633400E+02  0.14179680003E+03  0.44986202230E+03  0.47470114103E+03  0.00000000000E+00 0. -1.
         22    1    3    3    0    0 -0.39933269784E+01  0.18297911645E+01 -0.53925185030E+02  0.54103792627E+02  0.00000000000E+00 0.  1.
         22    1    3    3    0    0  0.96067297133E+02 -0.17015796626E+03 -0.79780544905E+02  0.21106301051E+03  0.00000000000E+00 0.  1.
</event>
<event>
 7    1  0.8278507E-006  0.1181509E+03  0.7818608E-02  0.1414626E+00
          2   -1    0    0  502    0  0.00000000000E+00  0.00000000000E+00  0.36703287388E+03  0.36703287388E+03  0.00000000000E+00 0. -1.
          1   -1    0    0  501    0 -0.00000000000E+00 -0.00000000000E+00 -0.41738644136E+03  0.41738644136E+03  0.00000000000E+00 0. -1.
         25    2    1    2    0    0  0.12705819538E+02 -0.10541358457E+03 -0.30802381270E+03  0.34896646530E+03  0.12500185220E+03 0.  0.
          2    1    1    2  501    0 -0.23501156786E+02 -0.12688562789E+02 -0.76412143501E+02  0.80945164589E+02  0.00000000000E+00 0. -1.
          1    1    1    2  502    0  0.10795337249E+02  0.11810214735E+03  0.33408238872E+03  0.35450768534E+03  0.00000000000E+00 0. -1.
         22    1    3    3    0    0  0.14582283939E+02 -0.65705105742E+02 -0.30120526600E+03  0.30863314176E+03  0.00000000000E+00 0.  1.
         22    1    3    3    0    0 -0.18764644012E+01 -0.39708478824E+02 -0.68185467023E+01  0.40333323547E+02  0.00000000000E+00 0.  1.
</event>
<event>
 7    1  0.8278507E-006  0.3016899E+03  0.7818608E-02  0.1168954E+00
          2   -1    0    0  502    0  0.00000000000E+00  0.00000000000E+00  0.14778702702E+03  0.14778702702E+03  0.00000000000E+00 0. -1.
          1   -1    0    0  501    0 -0.00000000000E+00 -0.00000000000E+00 -0.19856513119E+04  0.19856513119E+04  0.00000000000E+00 0. -1.
         25    2    1    2    0    0 -0.10348986143E+03 -0.24467286149E+03 -0.16862925438E+03  0.33857823547E+03  0.12499774211E+03 0.  0.
          2    1    1    2  501    0  0.19540798123E+02  0.30937021246E+03 -0.16597502667E+04  0.16884497976E+04  0.00000000000E+00 0. -1.
          1    1    1    2  502    0  0.83949063304E+02 -0.64697350961E+02 -0.94847638116E+01  0.10641030587E+03  0.00000000000E+00 0. -1.
         22    1    3    3    0    0 -0.10910014679E+03 -0.14577773125E+03 -0.60342406741E+02  0.19182073665E+03  0.00000000000E+00 0. -1.
         22    1    3    3    0    0  0.56102853627E+01 -0.98895130242E+02 -0.10828684764E+03  0.14675749882E+03  0.00000000000E+00 0. -1.
</event>
<event>
 7    1  0.8278507E-006  0.3333207E+02  0.7818608E-02  0.1593457E+00
          2   -1    0    0  502    0  0.00000000000E+00  0.00000000000E+00  0.92671456065E+02  0.92671456065E+02  0.00000000000E+00 0. -1.
          1   -1    0    0  501    0 -0.00000000000E+00 -0.00000000000E+00 -0.14517544287E+03  0.14517544287E+03  0.00000000000E+00 0. -1.
         25    2    1    2    0    0 -0.80912558268E+01  0.16096938203E+02 -0.21396236643E+02  0.12808304090E+03  0.12499154605E+03 0.  0.
          2    1    1    2  501    0 -0.26733059926E+02 -0.75110857770E+01 -0.58418677079E+02  0.64682414413E+02  0.00000000000E+00 0. -1.
          1    1    1    2  502    0  0.34824315753E+02 -0.85858524262E+01  0.27310926918E+02  0.45081443618E+02  0.00000000000E+00 0. -1.
         22    1    3    3    0    0 -0.37555942781E+01 -0.50543928424E+02  0.13889986333E+02  0.52552116125E+02  0.00000000000E+00 0. -1.
         22    1    3    3    0    0 -0.43356615487E+01  0.66640866627E+02 -0.35286222976E+02  0.75530924778E+02  0.00000000000E+00 0. -1.
</event>
<event>
 7    1  0.8278507E-006  0.2609768E+03  0.7818608E-02  0.1235065E+00
          2   -1    0    0  502    0  0.00000000000E+00  0.00000000000E+00  0.29315834346E+04  0.29315834346E+04  0.00000000000E+00 0. -1.
          1   -1    0    0  501    0 -0.00000000000E+00 -0.00000000000E+00 -0.44852157426E+03  0.44852157426E+03  0.00000000000E+00 0. -1.
         25    2    1    2    0    0 -0.12677922754E+03 -0.23070679676E+03  0.16853747971E+04  0.17103832685E+04  0.12499647973E+03 0.  0.
          2    1    1    2  501    0  0.17434163052E+03  0.19433795537E+03 -0.39611741861E+03  0.47441675177E+03  0.00000000000E+00 0. -1.
          1    1    1    2  502    0 -0.47562402988E+02  0.36368841392E+02  0.11938044819E+04  0.11953049886E+04  0.00000000000E+00 0. -1.
         22    1    3    3    0    0 -0.49562240268E+02 -0.29890602148E+01  0.35463205380E+03  0.35809111092E+03  0.00000000000E+00 0.  1.
         22    1    3    3    0    0 -0.77216987269E+02 -0.22771773655E+03  0.13307427433E+04  0.13522921576E+04  0.00000000000E+00 0.  1.
</event>
<event>
 7    1  0.8278507E-006  0.9054400E+02  0.7818608E-02  0.1328034E+00
          2   -1    0    0  502    0  0.00000000000E+00  0.00000000000E+00  0.68865657662E+03  0.68865657662E+03  0.00000000000E+00 0. -1.
          1   -1    0    0  501    0 -0.00000000000E+00 -0.00000000000E+00 -0.21142650602E+03  0.21142650602E+03  0.00000000000E+00 0. -1.
         25    2    1    2    0    0  0.14948739180E+02 -0.39008030933E+02  0.67681172135E+01  0.13196756855E+03  0.12499816182E+03 0.  0.
          2    1    1    2  501    0  0.14307978783E+02  0.10405195954E+03 -0.12791075878E+03  0.16550737371E+03  0.00000000000E+00 0. -1.
          1    1    1    2  502    0 -0.29256717963E+02 -0.65043928604E+02  0.59837271217E+03  0.60260814039E+03  0.00000000000E+00 0. -1.
         22    1    3    3    0    0  0.14756319648E+02  0.41925694825E+02  0.22030651553E+02  0.49607080785E+02  0.00000000000E+00 0.  1.
         22    1    3    3    0    0  0.19241953247E+00 -0.80933725758E+02 -0.15262534340E+02  0.82360487764E+02  0.00000000000E+00 0.  1.
</event>
<event>
 7    1  0.8278507E-006  0.3793301E+02  0.7818608E-02  0.1572034E+00
          2   -1    0    0  502    0  0.00000000000E+00  0.00000000000E+00  0.26674021208E+03  0.26674021208E+03  0.00000000000E+00 0. -1.
          1   -1    0    0  501    0 -0.00000000000E+00 -0.00000000000E+00 -0.99718987214E+03  0.99718987214E+03  0.00000000000E+00 0. -1.
         25    2    1    2    0    0  0.22949324722E+02  0.45032330469E+02  0.95276977626E+02  0.16509592321E+03  0.12499751639E+03 0.  0.
          2    1    1    2  501    0 -0.26757593940E+02 -0.76795859395E+01 -0.95949379832E+03  0.95989754343E+03  0.00000000000E+00 0. -1.
          1    1    1    2  502    0  0.38082692175E+01 -0.37352744530E+02  0.13376716064E+03  0.13893661757E+03  0.00000000000E+00 0. -1.
         22    1    3    3    0    0  0.37465672150E+02  0.14408854005E+02 -0.20066265410E+02  0.44877017179E+02  0.00000000000E+00 0. -1.
         22    1    3    3    0    0 -0.14516347427E+02  0.30623476464E+02  0.11534324304E+03  0.12021890603E+03  0.00000000000E+00 0. -1.
</event>
<event>
 7    1  0.8278507E-006  0.1248811E+03  0.7818608E-02  0.1316116E+00
          2   -1    0    0  502    0  0.00000000000E+00  0.00000000000E+00  0.84407785893E+03  0.84407785893E+03  0.00000000000E+00 0. -1.
          1   -1    0    0  501    0 -0.00000000000E+00 -0.00000000000E+00 -0.20002852190E+03  0.20002852190E+03  0.00000000000E+00 0. -1.
         25    2    1    2    0    0 -0.13342118523E+03 -0.84533732691E+02  0.11212200495E+03  0.23052924530E+03  0.12500089724E+03 0.  0.
          2    1    1    2  501    0  0.56489982175E+02 -0.10731443138E+02 -0.12908836826E+03  0.14131556453E+03  0.00000000000E+00 0. -1.
          1    1    1    2  502    0  0.76931203057E+02  0.95265175829E+02  0.66101570035E+03  0.67226157100E+03  0.00000000000E+00 0. -1.
         22    1    3    3    0    0 -0.92204916292E+02 -0.72461384111E+02  0.13744223018E+03  0.18067308990E+03  0.00000000000E+00 0. -1.
         22    1    3    3    0    0 -0.41216268940E+02 -0.12072348580E+02 -0.25320225230E+02  0.49856155400E+02  0.00000000000E+00 0. -1.
</event>
<event>
 7    1  0.8278507E-006  0.4808492E+02  0.7818608E-02  0.1522416E+00
          2   -1    0    0  502    0  0.00000000000E+00  0.00000000000E+00  0.14101508399E+03  0.14101508399E+03  0.00000000000E+00 0. -1.
          1   -1    0    0  501    0 -0.00000000000E+00 -0.00000000000E+00 -0.17289192303E+04  0.17289192303E+04  0.00000000000E+00 0. -1.
         25    2    1    2    0    0 -0.68286691850E+02  0.27244415143E+02  0.38619263549E+02  0.15007143546E+03  0.12499863113E+03 0.  0.
          2    1    1    2  501    0  0.27021257704E+02 -0.13578741119E+02 -0.16629036396E+04  0.16631785969E+04  0.00000000000E+00 0. -1.
          1    1    1    2  502    0  0.41265434145E+02 -0.13665674024E+02  0.36380229746E+02  0.56684281932E+02  0.00000000000E+00 0. -1.
         22    1    3    3    0    0 -0.74934673858E+02  0.69205804147E+02  0.21365182576E+02  0.10421669588E+03  0.00000000000E+00 0. -1.
         22    1    3    3    0    0  0.66479820086E+01 -0.41961389003E+02  0.17254080974E+02  0.45854739582E+02  0.00000000000E+00 0. -1.
</event>
<event>
 7    1  0.8278507E-006  0.1181661E+03  0.7818608E-02  0.1414974E+00
          2   -1    0    0  502    0  0.00000000000E+00  0.00000000000E+00  0.24041937590E+04  0.24041937590E+04  0.00000000000E+00 0. -1.
          1   -1    0    0  501    0 -0.00000000000E+00 -0.00000000000E+00 -0.57274996347E+02  0.57274996347E+02  0.00000000000E+00 0. -1.
         25    2    1    2    0    0  0.10432619312E+03 -0.80719319901E+02  0.30829942029E+03  0.35787623268E+03  0.12500920842E+03 0.  0.
          2    1    1    2  501    0 -0.25818334879E+02 -0.65347901876E+01 -0.25065309018E+02  0.36572662125E+02  0.00000000000E+00 0. -1.
          1    1    1    2  502    0 -0.78507858236E+02  0.87254110089E+02  0.20636846514E+04  0.20670198605E+04  0.00000000000E+00 0. -1.
         22    1    3    3    0    0  0.64415099396E+02  0.14113760225E+02  0.18986804347E+03  0.20099347549E+03  0.00000000000E+00 0. -1.
         22    1    3    3    0    0  0.39911093720E+02 -0.94833080126E+02  0.11843137682E+03  0.15688275719E+03  0.00000000000E+00 0. -1.
</event>
<event>
 7    1  0.8278507E-006  0.3216867E+02  0.7818608E-02  0.1619935E+00
          2   -1    0    0  502    0  0.00000000000E+00  0.00000000000E+00  0.49179457312E+03  0.49179457312E+03  0.00000000000E+00 0. -1.
          1   -1    0    0  501    0 -0.00000000000E+00 -0.00000000000E+00 -0.65599439633E+02  0.65599439633E+02  0.00000000000E+00 0. -1.
         25    2    1    2    0    0 -0.26698741706E+02 -0.27460017158E+02  0.16916973475E+03  0.21380474574E+03  0.12500877887E+03 0.  0.
          2    1    1    2  501    0 -0.53717446884E+01  0.23974247693E+02 -0.38846566192E+02  0.45963854259E+02  0.00000000000E+00 0. -1.
          1    1    1    2  502    0  0.32070486395E+02  0.34857694655E+01  0.29587196492E+03  0.29762541275E+03  0.00000000000E+00 0. -1.
         22    1    3    3    0    0 -0.16210640852E+02  0.41013391956E+02  0.12271338727E+03  0.13039731060E+03  0.00000000000E+00 0. -1.
         22    1    3    3    0    0 -0.10488100854E+02 -0.68473409114E+02  0.46456347480E+02  0.83407435139E+02  0.00000000000E+00 0. -1.
</event>
<event>
 7    1  0.8278507E-006  0.8773414E+02  0.7818608E-02  0.1353464E+00
          2   -1    0    0  502    0  0.00000000000E+00  0.00000000000E+00  0.10613095478E+04  0.10613095478E+04  0.00000000000E+00 0. -1.
          1   -1    0    0  501    0 -0.00000000000E+00 -0.00000000000E+00 -0.61813237306E+03  0.61813237306E+03  0.00000000000E+00 0. -1.
         25    2    1    2    0    0 -0.12087471063E+03  0.68243714396E+02  0.16080995438E+03  0.24647649200E+03  0.12499167755E+03 0.  0.
          2    1    1    2  501    0  0.62291485283E+02 -0.60707846331E+02 -0.57098468652E+03  0.57757179985E+03  0.00000000000E+00 0. -1.
          1    1    1    2  502    0  0.58583225348E+02 -0.75358680652E+01  0.85335190685E+03  0.85539362900E+03  0.00000000000E+00 0. -1.
         22    1    3    3    0    0 -0.47360354560E+02  0.96808995595E+02  0.97697304427E+02  0.14546390654E+03  0.00000000000E+00 0.  1.
         22    1    3    3    0    0 -0.73514356071E+02 -0.28565281199E+02  0.63112649956E+02  0.10101258547E+03  0.00000000000E+00 0.  1.
</event>
<event>
 7    1  0.8278507E-006  0.9090819E+02  0.7818608E-02  0.1444585E+00
          2   -1    0    0  502    0  0.00000000000E+00  0.00000000000E+00  0.69422505594E+03  0.69422505594E+03  0.00000000000E+00 0. -1.
          1   -1    0    0  501    0 -0.00000000000E+00 -0.00000000000E+00 -0.24570395788E+04  0.24570395788E+04  0.00000000000E+00 0. -1.
         25    2    1    2    0    0 -0.37622582732E+02 -0.90613820956E+02  0.11381032090E+03  0.19545779311E+03  0.12499854586E+03 0.  0.
          2    1    1    2  501    0  0.99689256448E+01  0.90341547634E+02 -0.24150060699E+04  0.24167158071E+04  0.00000000000E+00 0. -1.
          1    1    1    2  502    0  0.27653657087E+02  0.27227332201E+00  0.53838122611E+03  0.53909103453E+03  0.00000000000E+00 0. -1.
         22    1    3    3    0    0 -0.73393219248E+02 -0.88045034323E+02  0.11087782813E+03  0.15947534440E+03  0.00000000000E+00 0.  1.
         22    1    3    3    0    0  0.35770636516E+02 -0.25687866333E+01  0.29324927672E+01  0.35982448713E+02  0.00000000000E+00 0.  1.
</event>
<event>
 7    1  0.8278507E-006  0.9877498E+02  0.7818608E-02  0.1312514E+00
          2   -1    0    0  502    0  0.00000000000E+00  0.00000000000E+00  0.16203744595E+04  0.16203744595E+04  0.00000000000E+00 0. -1.
          1   -1    0    0  501    0 -0.00000000000E+00 -0.00000000000E+00 -0.24918797262E+02  0.24918797262E+02  0.00000000000E+00 0. -1.
         25    2    1    2    0    0 -0.61426791038E+02 -0.89840624286E+02  0.10135122220E+04  0.10269743947E+04  0.12499917939E+03 0.  0.
          2    1    1    2  501    0  0.98111106278E+02  0.24313545735E+02  0.15653865619E+03  0.18633649284E+03  0.00000000000E+00 0. -1.
          1    1    1    2  502    0 -0.36684315240E+02  0.65527078551E+02  0.42540478403E+03  0.43198236918E+03  0.00000000000E+00 0. -1.
         22    1    3    3    0    0  0.13318420709E+01 -0.81098849224E+02  0.80423624722E+03  0.80831598926E+03  0.00000000000E+00 0.  1.
         22    1    3    3    0    0 -0.62758633109E+02 -0.87417750623E+01  0.20927597478E+03  0.21865840547E+03  0.00000000000E+00 0.  1.
</event>
<event>
 7    1  0.8278507E-006  0.4608805E+02  0.7818608E-02  0.1512344E+00
          2   -1    0    0  502    0  0.00000000000E+00  0.00000000000E+00  0.42428502950E+03  0.42428502950E+03  0.00000000000E+00 0. -1.
          1   -1    0    0  501    0 -0.00000000000E+00 -0.00000000000E+00 -0.35499468893E+03  0.35499468893E+03  0.00000000000E+00 0. -1.
         25    2    1    2    0    0  0.45675342583E+02 -0.55649856544E+02 -0.69847920493E+02  0.16026999625E+03  0.12499838498E+03 0.  0.
          2    1    1    2  501    0 -0.39023996644E+02  0.22553996494E+02 -0.23705648531E+03  0.24130340300E+03  0.00000000000E+00 0. -1.
          1    1    1    2  502    0 -0.66513459391E+01  0.33095860050E+02  0.37619474637E+03  0.37770631919E+03  0.00000000000E+00 0. -1.
         22    1    3    3    0    0  0.29160854223E+02 -0.84551807341E+02 -0.85279362927E+02  0.12357966372E+03  0.00000000000E+00 0.  1.
         22    1    3    3    0    0  0.16514488360E+02  0.28901950797E+02  0.15431442434E+02  0.36690332531E+02  0.00000000000E+00 0.  1.
</event>
<event>
 7    1  0.8278507E-006  0.5898124E+02  0.7818608E-02  0.1426944E+00
          2   -1    0    0  502    0  0.00000000000E+00  0.00000000000E+00  0.33575299049E+03  0.33575299049E+03  0.00000000000E+00 0. -1.
          1   -1    0    0  501    0 -0.00000000000E+00 -0.00000000000E+00 -0.15735997008E+03  0.15735997008E+03  0.00000000000E+00 0. -1.
         25    2    1    2    0    0 -0.53788193527E+02 -0.83527598181E+02 -0.12683253230E+02  0.16017583231E+03  0.12500161169E+03 0.  0.
          2    1    1    2  501    0  0.38344951823E+02  0.37372228702E+02 -0.58124319287E+02  0.79028193077E+02  0.00000000000E+00 0. -1.
          1    1    1    2  502    0  0.15443241704E+02  0.46155369480E+02  0.24920059293E+03  0.25390893518E+03  0.00000000000E+00 0. -1.
         22    1    3    3    0    0  0.23185400768E+02  0.10696289196E+02  0.21953356651E+02  0.33673777329E+02  0.00000000000E+00 0. -1.
         22    1    3    3    0    0 -0.76973594296E+02 -0.94223887377E+02 -0.34636609881E+02  0.12650205498E+03  0.00000000000E+00 0. -1.
</event>
<event>
 7    1  0.8278507E-006  0.8766967E+02  0.7818608E-02  0.1392762E+00
          2   -1    0    0  502    0  0.00000000000E+00  0.00000000000E+00  0.51137552857E+03  0.51137552857E+03  0.00000000000E+00 0. -1.
          1   -1    0    0  501    0 -0.00000000000E+00 -0.00000000000E+00 -0.26235474503E+03  0.26235474503E+03  0.00000000000E+00 0. -1.
         25    2    1    2    0    0 -0.12592804685E+03 -0.24002761538E+02  0.33630350914E+03  0.38099773711E+03  0.12500087952E+03 0.  0.
          2    1    1    2  501    0  0.86454540099E+02  0.75709546299E+01 -0.22890088473E+03  0.24480057575E+03  0.00000000000E+00 0. -1.
          1    1    1    2  502    0  0.39473506748E+02  0.16431806908E+02  0.14161815913E+03  0.14793196074E+03  0.00000000000E+00 0. -1.
         22    1    3    3    0    0 -0.11270398128E+03 -0.39058377815E+02  0.14107186466E+03  0.18474039967E+03  0.00000000000E+00 0.  1.
         22    1    3    3    0    0 -0.13224065572E+02  0.15055616276E+02  0.19523164448E+03  0.19625733744E+03  0.00000000000E+00 0.  1.
</event>
<event>
 7    1  0.8278507E-006  0.9167465E+02  0.7818608E-02  0.1380690E+00
          2   -1    0    0  502    0  0.00000000000E+00  0.00000000000E+00  0.26619517177E+04  0.26619517177E+04  0.00000000000E+00 0. -1.
          1   -1    0    0  501    0 -0.00000000000E+00 -0.00000000000E+00 -0.18467936320E+03  0.18467936320E+03  0.00000000000E+00 0. -1.
         25    2    1    2    0    0 -0.13074231467E+03  0.85228464017E-01  0.15309406538E+04  0.15415893974E+04  0.12500009878E+03 0.  0.
          2    1    1    2  501    0  0.89559429131E+02  0.18238591772E+02 -0.16722549221E+03  0.19057256576E+03  0.00000000000E+00 0. -1.
          1    1    1    2  502    0  0.41182885538E+02 -0.18323820236E+02  0.11135571930E+04  0.11144691178E+04  0.00000000000E+00 0. -1.
         22    1    3    3    0    0 -0.10977128312E+03 -0.47802139339E+02  0.12582004511E+04  0.12638841539E+04  0.00000000000E+00 0. -1.
         22    1    3    3    0    0 -0.20971031551E+02  0.47887367803E+02  0.27274020263E+03  0.27770524354E+03  0.00000000000E+00 0. -1.
</event>
<event>
 7    1  0.8278507E-006  0.9419524E+02  0.7818608E-02  0.1314616E+00
          2   -1    0    0  502    0  0.00000000000E+00  0.00000000000E+00  0.19524133004E+04  0.19524133004E+04  0.00000000000E+00 0. -1.
          1   -1    0    0  501    0 -0.00000000000E+00 -0.00000000000E+00 -0.19888443847E+02  0.19888443847E+02  0.00000000000E+00 0. -1.
         25    2    1    2    0    0 -0.32018510297E+02  0.66497768744E+02  0.62045318438E+03  0.63720766299E+03  0.12499725406E+03 0.  0.
          2    1    1    2  501    0 -0.68952024156E+02 -0.34871506355E+02  0.15497116725E+03  0.17316600783E+03  0.00000000000E+00 0. -1.
          1    1    1    2  502    0  0.10097053445E+03 -0.31626262389E+02  0.11571005049E+04  0.11619280734E+04  0.00000000000E+00 0. -1.
         22    1    3    3    0    0 -0.88017198674E+01 -0.21635094251E+02  0.36914972393E+03  0.36988791039E+03  0.00000000000E+00 0.  1.
         22    1    3    3    0    0 -0.23216790429E+02  0.88132862996E+02  0.25130346045E+03  0.26731975260E+03  0.00000000000E+00 0.  1.
</event>
<event>
 7    1  0.8278507E-006  0.7181368E+02  0.7818608E-02  0.1383394E+00
          2   -1    0    0  502    0  0.00000000000E+00  0.00000000000E+00  0.31911596398E+02  0.31911596398E+02  0.00000000000E+00 0. -1.
          1   -1    0    0  501    0 -0.00000000000E+00 -0.00000000000E+00 -0.97056444134E+03  0.97056444134E+03  0.00000000000E+00 0. -1.
         25    2    1    2    0    0 -0.22235523622E+02 -0.51573413017E+01 -0.49280767878E+03  0.50892674129E+03  0.12500401213E+03 0.  0.
          2    1    1    2  501    0 -0.51181641054E+02 -0.23431906785E+02 -0.39673717439E+03  0.40071061900E+03  0.00000000000E+00 0. -1.
          1    1    1    2  502    0  0.73417164676E+02  0.28589248086E+02 -0.49107991769E+02  0.92838677451E+02  0.00000000000E+00 0. -1.
         22    1    3    3    0    0 -0.46816722747E+02  0.48562096072E+02 -0.28597007511E+03  0.29381791396E+03  0.00000000000E+00 0. -1.
         22    1    3    3    0    0  0.24581199125E+02 -0.53719437374E+02 -0.20683760367E+03  0.21510882733E+03  0.00000000000E+00 0. -1.
</event>
<event>
 7    1  0.8278507E-006  0.8256819E+02  0.7818608E-02  0.1355044E+00
          2   -1    0    0  502    0  0.00000000000E+00  0.00000000000E+00  0.15978203590E+04  0.15978203590E+04  0.00000000000E+00 0. -1.
          1   -1    0    0  501    0 -0.00000000000E+00 -0.00000000000E+00 -0.26222523475E+03  0.26222523475E+03  0.00000000000E+00 0. -1.
         25    2    1    2    0    0 -0.34790901576E+02  0.10323236855E+03  0.66906311308E+02  0.17879776150E+03  0.12499942510E+03 0.  0.
          2    1    1    2  501    0 -0.30999374926E+02 -0.53609093616E+02 -0.20045098149E+03  0.20979869433E+03  0.00000000000E+00 0. -1.
          1    1    1    2  502    0  0.65790276502E+02 -0.49623274938E+02  0.14691397944E+04  0.14714491379E+04  0.00000000000E+00 0. -1.
         22    1    3    3    0    0 -0.33205102451E+02  0.10930317494E+03  0.26813410421E+01  0.11426702267E+03  0.00000000000E+00 0.  1.
         22    1    3    3    0    0 -0.15857991249E+01 -0.60708063816E+01  0.64224970266E+02  0.64530738835E+02  0.00000000000E+00 0.  1.
</event>
<event>
 7    1  0.8278507E-006  0.4430915E+03  0.7818608E-02  0.1155310E+00
          2   -1    0    0  502    0  0.00000000000E+00  0.00000000000E+00  0.86569529336E+03  0.86569529336E+03  0.00000000000E+00 0. -1.
          1   -1    0    0  501    0 -0.00000000000E+00 -0.00000000000E+00 -0.37590997371E+03  0.37590997371E+03  0.00000000000E+00 0. -1.
         25    2    1    2    0    0 -0.35217980654E+03  0.33443125291E+03  0.31117493259E+03  0.59019373071E+03  0.12499568810E+03 0.  0.
          2    1    1    2  501    0  0.26772358819E+03 -0.33079662672E+03 -0.29705809004E+02  0.42659672175E+03  0.00000000000E+00 0. -1.
          1    1    1    2  502    0  0.84456218347E+02 -0.36346261908E+01  0.20831619607E+03  0.22481481461E+03  0.00000000000E+00 0. -1.
         22    1    3    3    0    0 -0.30584436219E+03  0.24414887265E+03  0.19936458402E+03  0.43919891081E+03  0.00000000000E+00 0. -1.
         22    1    3    3    0    0 -0.46335444349E+02  0.90282380263E+02  0.11181034857E+03  0.15099481990E+03  0.00000000000E+00 0. -1.
</event>
<event>
 7    1  0.8278507E-006  0.6973490E+02  0.7818608E-02  0.1390172E+00
          2   -1    0    0  502    0  0.00000000000E+00  0.00000000000E+00  0.10135556506E+04  0.10135556506E+04  0.00000000000E+00 0. -1.
          1   -1    0    0  501    0 -0.00000000000E+00 -0.00000000000E+00 -0.11184326861E+04  0.11184326861E+04  0.00000000000E+00 0. -1.
         25    2    1    2    0    0  0.10606001025E+03  0.54088416473E+02 -0.37433060441E+02  0.17663390864E+03  0.12499608432E+03 0.  0.
          2    1    1    2  501    0 -0.54264126929E+02 -0.82077408234E+01 -0.10093847314E+04  0.10108756098E+04  0.00000000000E+00 0. -1.
          1    1    1    2  502    0 -0.51795883321E+02 -0.45880675650E+02  0.94194075626E+03  0.94447881830E+03  0.00000000000E+00 0. -1.
         22    1    3    3    0    0  0.97185569041E+02  0.90870420857E+02 -0.18521574907E+02  0.13433360322E+03  0.00000000000E+00 0.  1.
         22    1    3    3    0    0  0.88744412087E+01 -0.36782004384E+02 -0.18911485534E+02  0.42300305417E+02  0.00000000000E+00 0.  1.
</event>
<event>
 7    1  0.8278507E-006  0.1022656E+03  0.7818608E-02  0.1419039E+00
          2   -1    0    0  502    0  0.00000000000E+00  0.00000000000E+00  0.20588361782E+03  0.20588361782E+03  0.00000000000E+00 0. -1.
          1   -1    0    0  501    0 -0.00000000000E+00 -0.00000000000E+00 -0.12431321176E+04  0.12431321176E+04  0.00000000000E+00 0. -1.
         25    2    1    2    0    0 -0.10543907715E+03 -0.32773790864E+00 -0.18072663036E+03  0.24374755997E+03  0.12503300231E+03 0.  0.
          2    1    1    2  501    0  0.73759476998E+01 -0.28895623201E+02 -0.10156458290E+04  0.10160835653E+04  0.00000000000E+00 0. -1.
          1    1    1    2  502    0  0.98063129450E+02  0.29223361110E+02  0.15912395962E+03  0.18918461015E+03  0.00000000000E+00 0. -1.
         22    1    3    3    0    0 -0.44988087857E+02  0.14650746921E+02 -0.17491143171E+03  0.18119763071E+03  0.00000000000E+00 0. -1.
         22    1    3    3    0    0 -0.60450989293E+02 -0.14978484829E+02 -0.58151986528E+01  0.62549929254E+02  0.00000000000E+00 0. -1.
</event>
<event>
 7    1  0.8278507E-006  0.5529483E+02  0.7818608E-02  0.1476813E+00
          2   -1    0    0  502    0  0.00000000000E+00  0.00000000000E+00  0.11524744343E+03  0.11524744343E+03  0.00000000000E+00 0. -1.
          1   -1    0    0  501    0 -0.00000000000E+00 -0.00000000000E+00 -0.19100672405E+04  0.19100672405E+04  0.00000000000E+00 0. -1.
         25    2    1    2    0    0 -0.21646756352E+02  0.11068685358E+02 -0.14612358574E+03  0.19383615731E+03  0.12501702171E+03 0.  0.
          2    1    1    2  501    0  0.32851669175E+02 -0.45264055379E+02 -0.17360773761E+04  0.17369780432E+04  0.00000000000E+00 0. -1.
          1    1    1    2  502    0 -0.11204912823E+02  0.34195370021E+02  0.87381164768E+02  0.94500483377E+02  0.00000000000E+00 0. -1.
         22    1    3    3    0    0 -0.70786249111E+02  0.46409854861E+01 -0.11560580642E+03  0.13563529882E+03  0.00000000000E+00 0. -1.
         22    1    3    3    0    0  0.49139492759E+02  0.64276998717E+01 -0.30517779323E+02  0.58200858491E+02  0.00000000000E+00 0. -1.
</event>
<event>
 7    1  0.8278507E-006  0.2787207E+02  0.7818608E-02  0.1632483E+00
          2   -1    0    0  502    0  0.00000000000E+00  0.00000000000E+00  0.71064862329E+03  0.71064862329E+03  0.00000000000E+00 0. -1.
          1   -1    0    0  501    0 -0.00000000000E+00 -0.00000000000E+00 -0.53144500840E+02  0.53144500840E+02  0.00000000000E+00 0. -1.
         25    2    1    2    0    0  0.26815220377E+02  0.21444511164E+02  0.27749177768E+03  0.30627439975E+03  0.12499359247E+03 0.  0.
          2    1    1    2  501    0 -0.27526245398E+02  0.49054757308E+01 -0.33234841098E+02  0.43431699721E+02  0.00000000000E+00 0. -1.
          1    1    1    2  502    0  0.71102502037E+00 -0.26349986895E+02  0.41324718586E+03  0.41408702465E+03  0.00000000000E+00 0. -1.
         22    1    3    3    0    0 -0.42785571906E+02  0.26320914119E+02  0.62155738949E+02  0.79917029272E+02  0.00000000000E+00 0.  1.
         22    1    3    3    0    0  0.69600792284E+02 -0.48764029542E+01  0.21533603874E+03  0.22635737048E+03  0.00000000000E+00 0.  1.
</event>
<event>
 7    1  0.8278507E-006  0.7979834E+02  0.7818608E-02  0.1335520E+00
          2   -1    0    0  502    0  0.00000000000E+00  0.00000000000E+00  0.12835374428E+04  0.12835374428E+04  0.00000000000E+00 0. -1.
          1   -1    0    0  501    0 -0.00000000000E+00 -0.00000000000E+00 -0.11761011236E+03  0.11761011236E+03  0.00000000000E+00 0. -1.
         25    2    1    2    0    0  0.63132895871E+02 -0.30273760646E+02  0.68470995832E+03  0.69953776792E+03  0.12499239414E+03 0.  0.
          2    1    1    2  501    0 -0.63956695579E+01  0.80510033355E+02 -0.92564475664E+02  0.12284523684E+03  0.00000000000E+00 0. -1.
          1    1    1    2  502    0 -0.56737226313E+02 -0.50236272709E+02  0.57378184780E+03  0.57876455041E+03  0.00000000000E+00 0. -1.
         22    1    3    3    0    0 -0.38315242645E+02 -0.59161345712E+01  0.20084139299E+03  0.20454907383E+03  0.00000000000E+00 0.  1.
         22    1    3    3    0    0  0.10144813852E+03 -0.24357626075E+02  0.48386856533E+03  0.49498869409E+03  0.00000000000E+00 0.  1.
</event>
<event>
 7    1  0.8278507E-006  0.9408537E+02  0.7818608E-02  0.1442753E+00
          2   -1    0    0  502    0  0.00000000000E+00  0.00000000000E+00  0.11266953347E+03  0.11266953347E+03  0.00000000000E+00 0. -1.
          1   -1    0    0  501    0 -0.00000000000E+00 -0.00000000000E+00 -0.10274165907E+04  0.10274165907E+04  0.00000000000E+00 0. -1.
         25    2    1    2    0    0 -0.59768892700E+02 -0.65914218551E+02 -0.11036623419E+03  0.18900463294E+03  0.12500016353E+03 0.  0.
          2    1    1    2  501    0  0.40902074911E+02  0.85350839401E+02 -0.87258100886E+03  0.87769890199E+03  0.00000000000E+00 0. -1.
          1    1    1    2  502    0  0.18866817789E+02 -0.19436620850E+02  0.68200185876E+02  0.73382589196E+02  0.00000000000E+00 0. -1.
         22    1    3    3    0    0 -0.74685781637E+02 -0.38015438428E+00 -0.93579179929E+02  0.11972958453E+03  0.00000000000E+00 0.  1.
         22    1    3    3    0    0  0.14916888937E+02 -0.65534064167E+02 -0.16787054261E+02  0.69275048413E+02  0.00000000000E+00 0.  1.
</event>
<event>
 7    1  0.8278507E-006  0.6722839E+02  0.7818608E-02  0.1493647E+00
          2   -1    0    0  502    0  0.00000000000E+00  0.00000000000E+00  0.49355770463E+02  0.49355770463E+02  0.00000000000E+00 0. -1.
          1   -1    0    0  501    0 -0.00000000000E+00 -0.00000000000E+00 -0.33352585639E+04  0.33352585639E+04  0.00000000000E+00 0. -1.
         25    2    1    2    0    0  0.59544419261E+02 -0.27675661142E+02 -0.11265815769E+04  0.11353952763E+04  0.12499961573E+03 0.  0.
          2    1    1    2  501    0 -0.67901006391E+02  0.27374260718E+01 -0.21998525965E+04  0.22009019712E+04  0.00000000000E+00 0. -1.
          1    1    1    2  502    0  0.83565871296E+01  0.24938235070E+02  0.40531380033E+02  0.48317086877E+02  0.00000000000E+00 0. -1.
         22    1    3    3    0    0  0.60356918776E+02 -0.68061844926E+02 -0.55667009549E+03  0.56405404669E+03  0.00000000000E+00 0. -1.
         22    1    3    3    0    0 -0.81249951489E+00  0.40386183784E+02 -0.56991148144E+03  0.57134122963E+03  0.00000000000E+00 0. -1.
</event>
<event>
 7    1  0.8278507E-006  0.1307261E+03  0.7818608E-02  0.1293079E+00
          2   -1    0    0  502    0  0.00000000000E+00  0.00000000000E+00  0.22047453055E+04  0.22047453055E+04  0.00000000000E+00 0. -1.
          1   -1    0    0  501    0 -0.00000000000E+00 -0.00000000000E+00 -0.60762734254E+03  0.60762734254E+03  0.00000000000E+00 0. -1.
         25    2    1    2    0    0 -0.82236458198E+02  0.16201769122E+03  0.10401976071E+04  0.10633201624E+04  0.12500455487E+03 0.  0.
          2    1    1    2  501    0  0.23379252373E+02 -0.12831819541E+03 -0.58791526023E+03  0.60220968269E+03  0.00000000000E+00 0. -1.
          1    1    1    2  502    0  0.58857205825E+02 -0.33699495810E+02  0.11448356162E+04  0.11468428030E+04  0.00000000000E+00 0. -1.
         22    1    3    3    0    0 -0.24661933606E+02  0.11238424215E+03  0.86117826040E+03  0.86883049270E+03  0.00000000000E+00 0.  1.
         22    1    3    3    0    0 -0.57574524592E+02  0.49633449069E+02  0.17901934666E+03  0.19448966972E+03  0.00000000000E+00 0.  1.
</event>
<event>
 7    1  0.8278507E-006  0.5713807E+02  0.7818608E-02  0.1514211E+00
          2   -1    0    0  502    0  0.00000000000E+00  0.00000000000E+00  0.28073460401E+04  0.28073460401E+04  0.00000000000E+00 0. -1.
          1   -1    0    0  501    0 -0.00000000000E+00 -0.00000000000E+00 -0.11804707082E+02  0.11804707082E+02  0.00000000000E+00 0. -1.
         25    2    1    2    0    0 -0.17541885219E+02  0.36442002819E+02  0.14282373493E+04  0.14342676507E+04  0.12500412209E+03 0.  0.
          2    1    1    2  501    0  0.44376319193E+02 -0.38143610614E+02  0.90339635541E+02  0.10763569336E+03  0.00000000000E+00 0. -1.
          1    1    1    2  502    0 -0.26834433974E+02  0.17016077953E+01  0.12769643482E+04  0.12772474031E+04  0.00000000000E+00 0. -1.
         22    1    3    3    0    0 -0.47856454268E+02 -0.95191089215E+00  0.12026129021E+04  0.12035650953E+04  0.00000000000E+00 0. -1.
         22    1    3    3    0    0  0.30314569049E+02  0.37393913711E+02  0.22562444717E+03  0.23070255534E+03  0.00000000000E+00 0. -1.
</event>
<event>
 7    1  0.8278507E-006  0.1570764E+03  0.7818608E-02  0.1221319E+00
          2   -1    0    0  502    0  0.00000000000E+00  0.00000000000E+00  0.28368967352E+04  0.28368967352E+04  0.00000000000E+00 0. -1.
          1   -1    0    0  501    0 -0.00000000000E+00 -0.00000000000E+00 -0.43747489368E+03  0.43747489368E+03  0.00000000000E+00 0. -1.
         25    2    1    2    0    0 -0.25117920327E+03 -0.44486737900E+02  0.10839205290E+04  0.11205260876E+04  0.12499975132E+03 0.  0.
          2    1    1    2  501    0  0.11445237507E+03  0.74821848626E+01 -0.40836656714E+03  0.42416810630E+03  0.00000000000E+00 0. -1.
          1    1    1    2  502    0  0.13672682820E+03  0.37004553037E+02  0.17238678796E+04  0.17296774349E+04  0.00000000000E+00 0. -1.
         22    1    3    3    0    0 -0.31276096116E+02  0.36003172197E+02  0.24152798335E+03  0.24619136731E+03  0.00000000000E+00 0.  1.
         22    1    3    3    0    0 -0.21990310715E+03 -0.80489910097E+02  0.84239254567E+03  0.87433472033E+03  0.00000000000E+00 0.  1.
</event>
<event>
 7    1  0.8278507E-006  0.1408684E+03  0.7818608E-02  0.1342408E+00
          2   -1    0    0  502    0  0.00000000000E+00  0.00000000000E+00  0.20934000547E+04  0.20934000547E+04  0.00000000000E+00 0. -1.
          1   -1    0    0  501    0 -0.00000000000E+00 -0.00000000000E+00 -0.45914731805E+03  0.45914731805E+03  0.00000000000E+00 0. -1.
         25    2    1    2    0    0 -0.84991084044E+02 -0.79363427633E+02 -0.17582296880E+03  0.24507359886E+03  0.12500125794E+03 0.  0.
          2    1    1    2  501    0  0.87552768212E+01 -0.39478448625E+02 -0.24461638272E+03  0.24793623670E+03  0.00000000000E+00 0. -1.
          1    1    1    2  502    0  0.76235807223E+02  0.11884187626E+03  0.20546920881E+04  0.20595375371E+04  0.00000000000E+00 0. -1.
         22    1    3    3    0    0 -0.26373789761E+02 -0.73393349240E+02 -0.23035975580E+02  0.81319226939E+02  0.00000000000E+00 0. -1.
         22    1    3    3    0    0 -0.58617294283E+02 -0.59700783929E+01 -0.15278699322E+03  0.16375437192E+03  0.00000000000E+00 0. -1.
</event>
<event>
 7    1  0.8278507E-006  0.7300401E+02  0.7818608E-02  0.1497070E+00
          2   -1    0    0  502    0  0.00000000000E+00  0.00000000000E+00  0.49481043904E+03  0.49481043904E+03  0.00000000000E+00 0. -1.
          1   -1    0    0  501    0 -0.00000000000E+00 -0.00000000000E+00 -0.69452033062E+03  0.69452033062E+03  0.00000000000E+00 0. -1.
         25    2    1    2    0    0 -0.24747524549E+02 -0.88841199705E+02 -0.68298523241E+02  0.16969065732E+03  0.12500012867E+03 0.  0.
          2    1    1    2  501    0  0.29830862834E+02  0.65740005718E+02 -0.57294406846E+03  0.57747427156E+03  0.00000000000E+00 0. -1.
          1    1    1    2  502    0 -0.50833382857E+01  0.23101193987E+02  0.44153270012E+03  0.44216584079E+03  0.00000000000E+00 0. -1.
         22    1    3    3    0    0  0.48473703969E+02 -0.50505798090E+02 -0.47074060075E+02  0.84359366695E+02  0.00000000000E+00 0.  1.
         22    1    3    3    0    0 -0.73221228518E+02 -0.38335401615E+02 -0.21224463167E+02  0.85331290623E+02  0.00000000000E+00 0.  1.
</event>
<event>
 7    1  0.8278507E-006  0.5956759E+02  0.7818608E-02  0.1523601E+00
          2   -1    0    0  502    0  0.00000000000E+00  0.00000000000E+00  0.55301456312E+03  0.55301456312E+03  0.00000000000E+00 0. -1.
          1   -1    0    0  501    0 -0.00000000000E+00 -0.00000000000E+00 -0.46785321318E+03  0.46785321318E+03  0.00000000000E+00 0. -1.
         25    2    1    2    0    0  0.49087613489E+02  0.15561472388E+02  0.31208535113E+02  0.13876533548E+03  0.12502036812E+03 0.  0.
          2    1    1    2  501    0  0.10594804976E+02 -0.21779495734E+02 -0.41179422168E+03  0.41250585128E+03  0.00000000000E+00 0. -1.
          1    1    1    2  502    0 -0.59682418465E+02  0.62180233457E+01  0.46574703652E+03  0.46959658955E+03  0.00000000000E+00 0. -1.
         22    1    3    3    0    0  0.80511913229E+02 -0.12861270047E+02  0.46329857749E+02  0.93776522425E+02  0.00000000000E+00 0. -1.
         22    1    3    3    0    0 -0.31424299740E+02  0.28422742435E+02 -0.15121322635E+02  0.44988813053E+02  0.00000000000E+00 0. -1.
</event>
<event>
 7    1  0.8278507E-006  0.9857401E+02  0.7818608E-02  0.1339741E+00
          2   -1    0    0  502    0  0.00000000000E+00  0.00000000000E+00  0.17561814217E+04  0.17561814217E+04  0.00000000000E+00 0. -1.
          1   -1    0    0  501    0 -0.00000000000E+00 -0.00000000000E+00 -0.10465691764E+04  0.10465691764E+04  0.00000000000E+00 0. -1.
         25    2    1    2    0    0 -0.41221007734E+02 -0.11387904732E+02  0.14581338065E+02  0.13291696341E+03  0.12500179154E+03 0.  0.
          2    1    1    2  501    0  0.10024273652E+03  0.77103941826E+01 -0.98432031697E+03  0.98944153076E+03  0.00000000000E+00 0. -1.
          1    1    1    2  502    0 -0.59021728784E+02  0.36775105493E+01  0.16793512242E+04  0.16803921039E+04  0.00000000000E+00 0. -1.
         22    1    3    3    0    0 -0.54559444406E+02 -0.59451186019E+02 -0.87732477117E+00  0.80696630609E+02  0.00000000000E+00 0. -1.
         22    1    3    3    0    0  0.13338436671E+02  0.48063281287E+02  0.15458662837E+02  0.52220332799E+02  0.00000000000E+00 0. -1.
</event>
<event>
 7    1  0.8278507E-006  0.4176103E+02  0.7818608E-02  0.1511898E+00
          2   -1    0    0  502    0  0.00000000000E+00  0.00000000000E+00  0.88490267538E+03  0.88490267538E+03  0.00000000000E+00 0. -1.
          1   -1    0    0  501    0 -0.00000000000E+00 -0.00000000000E+00 -0.10604668199E+04  0.10604668199E+04  0.00000000000E+00 0. -1.
         25    2    1    2    0    0  0.45873649954E+02 -0.23919235653E+02  0.62448196010E+02  0.14900136397E+03  0.12500043075E+03 0.  0.
          2    1    1    2  501    0 -0.12134465417E+02  0.39982480342E+02 -0.10163126912E+04  0.10171712394E+04  0.00000000000E+00 0. -1.
          1    1    1    2  502    0 -0.33739184538E+02 -0.16063244689E+02  0.77830035070E+03  0.77919689188E+03  0.00000000000E+00 0. -1.
         22    1    3    3    0    0  0.80391226972E+01 -0.22615373450E+02 -0.36145942689E+02  0.43389074465E+02  0.00000000000E+00 0. -1.
         22    1    3    3    0    0  0.37834527257E+02 -0.13038622031E+01  0.98594138699E+02  0.10561228951E+03  0.00000000000E+00 0. -1.
</event>
<event>
 7    1  0.8278507E-006  0.1065806E+03  0.7818608E-02  0.1272403E+00
          2   -1    0    0  502    0  0.00000000000E+00  0.00000000000E+00  0.19729650322E+04  0.19729650322E+04  0.00000000000E+00 0. -1.
          1   -1    0    0  501    0 -0.00000000000E+00 -0.00000000000E+00 -0.12726964172E+03  0.12726964172E+03  0.00000000000E+00 0. -1.
         25    2    1    2    0    0 -0.73671368403E+02  0.19041352487E+03  0.12854699602E+04  0.13075712052E+04  0.12499862871E+03 0.  0.
          2    1    1    2  501    0  0.50127808591E+02 -0.92002342194E+02 -0.87854232721E+02  0.13673183379E+03  0.00000000000E+00 0. -1.
          1    1    1    2  502    0  0.23543559813E+02 -0.98411182678E+02  0.64807966296E+03  0.65593163488E+03  0.00000000000E+00 0. -1.
         22    1    3    3    0    0  0.24498546660E+02  0.61668640566E+02  0.57883058651E+03  0.58262170222E+03  0.00000000000E+00 0.  1.
         22    1    3    3    0    0 -0.98169915063E+02  0.12874488431E+03  0.70663937370E+03  0.72494950301E+03  0.00000000000E+00 0.  1.
</event>
<event>
 7    1  0.8278507E-006  0.3028531E+03  0.7818608E-02  0.1120861E+00
          2   -1    0    0  502    0  0.00000000000E+00  0.00000000000E+00  0.20879338007E+03  0.20879338007E+03  0.00000000000E+00 0. -1.
          1   -1    0    0  501    0 -0.00000000000E+00 -0.00000000000E+00 -0.12099259431E+04  0.12099259431E+04  0.00000000000E+00 0. -1.
         25    2    1    2    0    0 -0.26642161219E+03  0.24963449278E+02 -0.34911401750E+03  0.45728446013E+03  0.12499932409E+03 0.  0.
          2    1    1    2  501    0  0.27890225149E+03 -0.21221632972E+03 -0.68635371237E+03  0.77065144843E+03  0.00000000000E+00 0. -1.
          1    1    1    2  502    0 -0.12480639297E+02  0.18725288044E+03  0.34335166874E+02  0.19078341457E+03  0.00000000000E+00 0. -1.
         22    1    3    3    0    0 -0.15572187832E+03 -0.29962701631E+02 -0.26140743183E+03  0.30574648370E+03  0.00000000000E+00 0. -1.
         22    1    3    3    0    0 -0.11069973387E+03  0.54926150909E+02 -0.87706585664E+02  0.15153797643E+03  0.00000000000E+00 0. -1.
</event>
<event>
 7    1  0.8278507E-006  0.7047779E+02  0.7818608E-02  0.1395442E+00
          2   -1    0    0  502    0  0.00000000000E+00  0.00000000000E+00  0.12004419929E+04  0.12004419929E+04  0.00000000000E+00 0. -1.
          1   -1    0    0  501    0 -0.00000000000E+00 -0.00000000000E+00 -0.46919595923E+03  0.46919595923E+03  0.00000000000E+00 0. -1.
         25    2    1    2    0    0  0.51900659357E+00  0.11656161220E+03  0.55774648323E+03  0.58334400848E+03  0.12498885496E+03 0.  0.
          2    1    1    2  501    0 -0.11390621021E+01 -0.52048139515E+02 -0.45325124703E+03  0.45623130014E+03  0.00000000000E+00 0. -1.
          1    1    1    2  502    0  0.62005550856E+00 -0.64513472689E+02  0.62675079751E+03  0.63006264356E+03  0.00000000000E+00 0. -1.
         22    1    3    3    0    0  0.14635373312E+02  0.44646011986E+02  0.45342354460E+03  0.45585126010E+03  0.00000000000E+00 0. -1.
         22    1    3    3    0    0 -0.14116366718E+02  0.71915600218E+02  0.10432293863E+03  0.12749274838E+03  0.00000000000E+00 0. -1.
</event>
<event>
 7    1  0.8278507E-006  0.8806400E+02  0.7818608E-02  0.1362169E+00
          2   -1    0    0  502    0  0.00000000000E+00  0.00000000000E+00  0.90931345053E+03  0.90931345053E+03  0.00000000000E+00 0. -1.
          1   -1    0    0  501    0 -0.00000000000E+00 -0.00000000000E+00 -0.25631599124E+03  0.25631599124E+03  0.00000000000E+00 0. -1.
         25    2    1    2    0    0  0.78732978773E+02 -0.69903639262E+01  0.27094837146E+03  0.30868432027E+03  0.12500096978E+03 0.  0.
          2    1    1    2  501    0 -0.74968581450E+02 -0.47560761315E+02 -0.22788296616E+03  0.24456688346E+03  0.00000000000E+00 0. -1.
          1    1    1    2  502    0 -0.37643973230E+01  0.54551125241E+02  0.60993205398E+03  0.61237823804E+03  0.00000000000E+00 0. -1.
         22    1    3    3    0    0 -0.71965757137E+01 -0.39060490591E+02  0.26900212409E+02  0.47970137115E+02  0.00000000000E+00 0. -1.
         22    1    3    3    0    0  0.85929554487E+02  0.32070126665E+02  0.24404815905E+03  0.26071418315E+03  0.00000000000E+00 0. -1.
</event>
<event>
 7    1  0.8278507E-006  0.1178429E+03  0.7818608E-02  0.1295161E+00
          2   -1    0    0  502    0  0.00000000000E+00  0.00000000000E+00  0.98992339400E+03  0.98992339400E+03  0.00000000000E+00 0. -1.
          1   -1    0    0  501    0 -0.00000000000E+00 -0.00000000000E+00 -0.67347039750E+03  0.67347039750E+03  0.00000000000E+00 0. -1.
         25    2    1    2    0    0  0.14611690108E+03 -0.69026073494E+02 -0.12787261161E+03  0.24102195179E+03  0.12500171537E+03 0.  0.
          2    1    1    2  501    0 -0.70791245736E+02 -0.20835074828E+02 -0.48252425815E+03  0.48813436728E+03  0.00000000000E+00 0. -1.
          1    1    1    2  502    0 -0.75325655341E+02  0.89861148323E+02  0.92684986625E+03  0.93423747243E+03  0.00000000000E+00 0. -1.
         22    1    3    3    0    0  0.65338009464E+02 -0.58395878801E+02  0.20627902070E+01  0.87654944214E+02  0.00000000000E+00 0. -1.
         22    1    3    3    0    0  0.80778891612E+02 -0.10630194693E+02 -0.12993540181E+03  0.15336700758E+03  0.00000000000E+00 0. -1.
</event>
<event>
 7    1  0.8278507E-006  0.1295948E+03  0.7818608E-02  0.1342879E+00
          2   -1    0    0  502    0  0.00000000000E+00  0.00000000000E+00  0.51433662284E+03  0.51433662284E+03  0.00000000000E+00 0. -1.
          1   -1    0    0  501    0 -0.00000000000E+00 -0.00000000000E+00 -0.49187680991E+03  0.49187680991E+03  0.00000000000E+00 0. -1.
         25    2    1    2    0    0  0.11961111732E+03 -0.87176358141E+01 -0.92997951956E+02  0.19661157563E+03  0.12499870416E+03 0.  0.
          2    1    1    2  501    0  0.63535835698E+01  0.43313734722E+02 -0.33640224713E+03  0.33923873528E+03  0.00000000000E+00 0. -1.
          1    1    1    2  502    0 -0.12596470089E+03 -0.34596098908E+02  0.45186001201E+03  0.47036312184E+03  0.00000000000E+00 0. -1.
         22    1    3    3    0    0  0.11599164803E+03  0.29438840489E+02 -0.10199991617E+03  0.15724086822E+03  0.00000000000E+00 0. -1.
         22    1    3    3    0    0  0.36194692950E+01 -0.38156476303E+02  0.90019642101E+01  0.39370707404E+02  0.00000000000E+00 0. -1.
</event>
<event>
 7    1  0.8278507E-006  0.3479618E+02  0.7818608E-02  0.1631668E+00
          2   -1    0    0  502    0  0.00000000000E+00  0.00000000000E+00  0.21527408561E+04  0.21527408561E+04  0.00000000000E+00 0. -1.
          1   -1    0    0  501    0 -0.00000000000E+00 -0.00000000000E+00 -0.26315019740E+02  0.26315019740E+02  0.00000000000E+00 0. -1.
         25    2    1    2    0    0 -0.11680861306E+02  0.27220059432E+02  0.14933911387E+03  0.19698831822E+03  0.12499940972E+03 0.  0.
          2    1    1    2  501    0  0.20159869936E+02  0.66035508035E+01  0.45890572552E+02  0.50556620616E+02  0.00000000000E+00 0. -1.
          1    1    1    2  502    0 -0.84790086294E+01 -0.33823610235E+02  0.19311961499E+04  0.19315109370E+04  0.00000000000E+00 0. -1.
         22    1    3    3    0    0 -0.67458354797E+02  0.26721521811E+02  0.80136617919E+02  0.10810433336E+03  0.00000000000E+00 0.  1.
         22    1    3    3    0    0  0.55777493490E+02  0.49853762082E+00  0.69202495948E+02  0.88883984863E+02  0.00000000000E+00 0.  1.
</event>
<event>
 7    1  0.8278507E-006  0.1337416E+03  0.7818608E-02  0.1227834E+00
          2   -1    0    0  502    0  0.00000000000E+00  0.00000000000E+00  0.58740003437E+03  0.58740003437E+03  0.00000000000E+00 0. -1.
          1   -1    0    0  501    0 -0.00000000000E+00 -0.00000000000E+00 -0.33961018028E+03  0.33961018028E+03  0.00000000000E+00 0. -1.
         25    2    1    2    0    0 -0.64454363637E+02  0.33032450270E+02  0.56303567994E+02  0.15504844358E+03  0.12499768128E+03 0.  0.
          2    1    1    2  501    0 -0.77827185300E+02 -0.98922804834E+02 -0.26279442010E+03  0.29138239364E+03  0.00000000000E+00 0. -1.
          1    1    1    2  502    0  0.14228154894E+03  0.65890354564E+02  0.45428070619E+03  0.48057937743E+03  0.00000000000E+00 0. -1.
         22    1    3    3    0    0 -0.19314856978E+02  0.56143930554E+02 -0.20672276944E+02  0.62869290375E+02  0.00000000000E+00 0.  1.
         22    1    3    3    0    0 -0.45139506659E+02 -0.23111480284E+02  0.76975844938E+02  0.92179153209E+02  0.00000000000E+00 0.  1.
</event>
<event>
 7    1  0.8278507E-006  0.6500212E+02  0.7818608E-02  0.1445061E+00
          2   -1    0    0  502    0  0.00000000000E+00  0.00000000000E+00  0.15333294688E+04  0.15333294688E+04  0.00000000000E+00 0. -1.
          1   -1    0    0  501    0 -0.00000000000E+00 -0.00000000000E+00 -0.63352062737E+02  0.63352062737E+02  0.00000000000E+00 0. -1.
         25    2    1    2    0    0 -0.42211786345E+02  0.29657709317E+02  0.26780566739E+03  0.30000944145E+03  0.12499749935E+03 0.  0.
          2    1    1    2  501    0  0.22703401276E+02 -0.62896132155E+02 -0.23136564629E+02  0.70757815769E+02  0.00000000000E+00 0. -1.
          1    1    1    2  502    0  0.19508385070E+02  0.33238422838E+02  0.12253083033E+04  0.12259142743E+04  0.00000000000E+00 0. -1.
         22    1    3    3    0    0 -0.30831733548E+02  0.78467512630E+02  0.18330704708E+03  0.20176525925E+03  0.00000000000E+00 0.  1.
         22    1    3    3    0    0 -0.11380052798E+02 -0.48809803313E+02  0.84498620311E+02  0.98244182197E+02  0.00000000000E+00 0.  1.
</event>
<event>
 7    1  0.8278507E-006  0.8326081E+02  0.7818608E-02  0.1339307E+00
          2   -1    0    0  502    0  0.00000000000E+00  0.00000000000E+00  0.12625025371E+04  0.12625025371E+04  0.00000000000E+00 0. -1.
          1   -1    0    0  501    0 -0.00000000000E+00 -0.00000000000E+00 -0.28457279772E+03  0.28457279772E+03  0.00000000000E+00 0. -1.
         25    2    1    2    0    0 -0.24915698690E+02  0.10198263807E+02  0.21221504174E+03  0.24776081272E+03  0.12500159899E+03 0.  0.
          2    1    1    2  501    0  0.76481502681E+02  0.37548218215E+02 -0.25876312300E+03  0.27242915183E+03  0.00000000000E+00 0. -1.
          1    1    1    2  502    0 -0.51565803991E+02 -0.47746482021E+02  0.10244778206E+04  0.10268853702E+04  0.00000000000E+00 0. -1.
         22    1    3    3    0    0 -0.47859253541E+02  0.57717447887E+02  0.11921535713E+03  0.14083363701E+03  0.00000000000E+00 0.  1.
         22    1    3    3    0    0  0.22943554851E+02 -0.47519184080E+02  0.92999684616E+02  0.10692717570E+03  0.00000000000E+00 0.  1.
</event>
<event>
 7    1  0.8278507E-006  0.6324961E+02  0.7818608E-02  0.1391158E+00
          2   -1    0    0  502    0  0.00000000000E+00  0.00000000000E+00  0.43743321358E+03  0.43743321358E+03  0.00000000000E+00 0. -1.
          1   -1    0    0  501    0 -0.00000000000E+00 -0.00000000000E+00 -0.15299312424E+04  0.15299312424E+04  0.00000000000E+00 0. -1.
         25    2    1    2    0    0  0.58534580224E+02  0.82420485401E+02  0.32364223471E+02  0.16398817330E+03  0.12500097810E+03 0.  0.
          2    1    1    2  501    0 -0.56544818755E+02 -0.20161458155E+02 -0.14606382057E+04  0.14618713243E+04  0.00000000000E+00 0. -1.
          1    1    1    2  502    0 -0.19897614694E+01 -0.62259027246E+02  0.33577595346E+03  0.34150495830E+03  0.00000000000E+00 0. -1.
         22    1    3    3    0    0 -0.18689970029E+02 -0.14553314221E+02 -0.18436578625E+02  0.30017017938E+02  0.00000000000E+00 0.  1.
         22    1    3    3    0    0  0.77224550253E+02  0.96973799622E+02  0.50800802096E+02  0.13397115536E+03  0.00000000000E+00 0.  1.
</event>
<event>
 7    1  0.8278507E-006  0.8430399E+02  0.7818608E-02  0.1334389E+00
          2   -1    0    0  502    0  0.00000000000E+00  0.00000000000E+00  0.20969386693E+04  0.20969386693E+04  0.00000000000E+00 0. -1.
          1   -1    0    0  501    0 -0.00000000000E+00 -0.00000000000E+00 -0.47211186717E+03  0.47211186717E+03  0.00000000000E+00 0. -1.
         25    2    1    2    0    0  0.13019156171E+03 -0.56916000064E+02  0.11734140358E+04  0.11885764277E+04  0.12499660519E+03 0.  0.
          2    1    1    2  501    0 -0.71289979592E+02  0.12872582284E+02 -0.46021631341E+03  0.46588305367E+03  0.00000000000E+00 0. -1.
          1    1    1    2  502    0 -0.58901582118E+02  0.44043417780E+02  0.91162907973E+03  0.91459105508E+03  0.00000000000E+00 0. -1.
         22    1    3    3    0    0  0.23632437961E+02  0.23788884898E+02  0.76223280231E+02  0.83272994529E+02  0.00000000000E+00 0. -1.
         22    1    3    3    0    0  0.10655912375E+03 -0.80704884962E+02  0.10971907556E+04  0.11053034332E+04  0.00000000000E+00 0. -1.
</event>
<event>
 7    1  0.8278507E-006  0.1314641E+03  0.7818608E-02  0.1298642E+00
          2   -1    0    0  502    0  0.00000000000E+00  0.00000000000E+00  0.28283345666E+03  0.28283345666E+03  0.00000000000E+00 0. -1.
          1   -1    0    0  501    0 -0.00000000000E+00 -0.00000000000E+00 -0.13255794868E+04  0.13255794868E+04  0.00000000000E+00 0. -1.
         25    2    1    2    0    0 -0.13234088260E+03  0.41318837332E+02 -0.25364887066E+03  0.31493503858E+03  0.12499989366E+03 0.  0.
          2    1    1    2  501    0  0.23960513906E+01 -0.64004043903E+02 -0.10229680479E+04  0.10249711634E+04  0.00000000000E+00 0. -1.
          1    1    1    2  502    0  0.12994483121E+03  0.22685206571E+02  0.23387088845E+03  0.26850674148E+03  0.00000000000E+00 0. -1.
         22    1    3    3    0    0 -0.57048629939E+02  0.61279411123E+02 -0.51492834209E+02  0.98291527511E+02  0.00000000000E+00 0.  1.
         22    1    3    3    0    0 -0.75292252665E+02 -0.19960573792E+02 -0.20215603645E+03  0.21664351107E+03  0.00000000000E+00 0.  1.
</event>
<event>
 7    1  0.8577547E-006  0.1947592E+03  0.7818608E-02  0.1286436E+00
          2   -1    0    0  502    0  0.00000000000E+00  0.00000000000E+00  0.11158729253E+04  0.11158729253E+04  0.00000000000E+00 0. -1.
          1   -1    0    0  501    0 -0.00000000000E+00 -0.00000000000E+00 -0.21999118035E+04  0.21999118035E+04  0.00000000000E+00 0. -1.
         25    2    1    2    0    0 -0.27165008002E+02  0.16222498983E+03 -0.21877433467E+03  0.30091891308E+03  0.12504038451E+03 0.  0.
          2    1    1    2  501    0  0.34963529351E+02  0.33535341119E+02 -0.19308308922E+04  0.19314385835E+04  0.00000000000E+00 0. -1.
          1    1    1    2  502    0 -0.77985213488E+01 -0.19576033094E+03  0.10655663487E+04  0.10834272322E+04  0.00000000000E+00 0. -1.
         22    1    3    3    0    0 -0.19352931645E+02  0.97504889776E+02 -0.34127092446E+02  0.10510184552E+03  0.00000000000E+00 0. -1.
         22    1    3    3    0    0 -0.78120763578E+01  0.64720100050E+02 -0.18464724222E+03  0.19581706756E+03  0.00000000000E+00 0. -1.
</event>
<event>
 7    1  0.8278507E-006  0.9775726E+02  0.7818608E-02  0.1389863E+00
          2   -1    0    0  502    0  0.00000000000E+00  0.00000000000E+00  0.24866715182E+04  0.24866715182E+04  0.00000000000E+00 0. -1.
          1   -1    0    0  501    0 -0.00000000000E+00 -0.00000000000E+00 -0.24053916378E+04  0.24053916378E+04  0.00000000000E+00 0. -1.
         25    2    1    2    0    0 -0.12633722279E+03  0.28968896827E+02  0.10962153680E+04  0.11109062909E+04  0.12499745298E+03 0.  0.
          2    1    1    2  501    0  0.88871699654E+02 -0.40659001028E+02 -0.23967717022E+04  0.23987634160E+04  0.00000000000E+00 0. -1.
          1    1    1    2  502    0  0.37465523137E+02  0.11690104200E+02  0.13818362146E+04  0.13823934491E+04  0.00000000000E+00 0. -1.
         22    1    3    3    0    0  0.14974487207E+02  0.27870291696E+02  0.35005397334E+03  0.35148082832E+03  0.00000000000E+00 0. -1.
         22    1    3    3    0    0 -0.14131171000E+03  0.10986051315E+01  0.74616139465E+03  0.75942546256E+03  0.00000000000E+00 0. -1.
</event>
<event>
 7    1  0.8278507E-006  0.9347933E+02  0.7818608E-02  0.1424882E+00
          2   -1    0    0  502    0  0.00000000000E+00  0.00000000000E+00  0.18648759922E+03  0.18648759922E+03  0.00000000000E+00 0. -1.
          1   -1    0    0  501    0 -0.00000000000E+00 -0.00000000000E+00 -0.37410586544E+03  0.37410586544E+03  0.00000000000E+00 0. -1.
         25    2    1    2    0    0  0.60427743188E+02  0.40533381266E+02 -0.12170041872E+02  0.14514717480E+03  0.12500050116E+03 0.  0.
          2    1    1    2  501    0 -0.90548886173E+02 -0.32417254646E+02 -0.28539223313E+03  0.30116225846E+03  0.00000000000E+00 0. -1.
          1    1    1    2  502    0  0.30121142985E+02 -0.81161266206E+01  0.10994400879E+03  0.11428403140E+03  0.00000000000E+00 0. -1.
         22    1    3    3    0    0  0.39342078670E+02  0.19948412250E+02  0.55761799939E+02  0.71099343442E+02  0.00000000000E+00 0.  1.
         22    1    3    3    0    0  0.21085664518E+02  0.20584969017E+02 -0.67931841811E+02  0.74047831362E+02  0.00000000000E+00 0.  1.
</event>
<event>
 7    1  0.8278507E-006  0.1041546E+03  0.7818608E-02  0.1331483E+00
          2   -1    0    0  502    0  0.00000000000E+00  0.00000000000E+00  0.19495044458E+04  0.19495044458E+04  0.00000000000E+00 0. -1.
          1   -1    0    0  501    0 -0.00000000000E+00 -0.00000000000E+00 -0.10338612383E+03  0.10338612383E+03  0.00000000000E+00 0. -1.
         25    2    1    2    0    0 -0.49790053742E+02 -0.27516172332E+02  0.87150653716E+03  0.88226103135E+03  0.12499877573E+03 0.  0.
          2    1    1    2  501    0  0.60907055033E+02  0.86627354074E+02 -0.68282744392E+02  0.12600198811E+03  0.00000000000E+00 0. -1.
          1    1    1    2  502    0 -0.11117001290E+02 -0.59111181741E+02  0.10428945292E+04  0.10446275502E+04  0.00000000000E+00 0. -1.
         22    1    3    3    0    0 -0.23629616067E+02 -0.26975803455E+02  0.57055501997E+02  0.67389784357E+02  0.00000000000E+00 0. -1.
         22    1    3    3    0    0 -0.26160437675E+02 -0.54036887709E+00  0.81445103516E+03  0.81487124699E+03  0.00000000000E+00 0. -1.
</event>
<event>
 7    1  0.8278507E-006  0.6542685E+02  0.7818608E-02  0.1475202E+00
          2   -1    0    0  502    0  0.00000000000E+00  0.00000000000E+00  0.15487348027E+04  0.15487348027E+04  0.00000000000E+00 0. -1.
          1   -1    0    0  501    0 -0.00000000000E+00 -0.00000000000E+00 -0.19855259401E+03  0.19855259401E+03  0.00000000000E+00 0. -1.
         25    2    1    2    0    0  0.33940877796E+02  0.27240682108E+02  0.56401186370E+01  0.13250600684E+03  0.12502796873E+03 0.  0.
          2    1    1    2  501    0 -0.64427751766E+02 -0.23137272065E+02 -0.12627790112E+03  0.14363974682E+03  0.00000000000E+00 0. -1.
          1    1    1    2  502    0  0.30486873970E+02 -0.41034100430E+01  0.14708199912E+04  0.14711416430E+04  0.00000000000E+00 0. -1.
         22    1    3    3    0    0 -0.24251134439E+02 -0.36714540345E+02 -0.87140591890E+01  0.44855432468E+02  0.00000000000E+00 0.  1.
         22    1    3    3    0    0  0.58192012235E+02  0.63955222453E+02  0.14354177826E+02  0.87650574374E+02  0.00000000000E+00 0.  1.
</event>
<event>
 7    1  0.8278507E-006  0.6261419E+02  0.7818608E-02  0.1510475E+00
          2   -1    0    0  502    0  0.00000000000E+00  0.00000000000E+00  0.34272771256E+03  0.34272771256E+03  0.00000000000E+00 0. -1.
          1   -1    0    0  501    0 -0.00000000000E+00 -0.00000000000E+00 -0.40940798315E+03  0.40940798315E+03  0.00000000000E+00 0. -1.
         25    2    1    2    0    0  0.69063565414E+02 -0.27606017000E+01 -0.14892210081E+03  0.20635170394E+03  0.12500334644E+03 0.  0.
          2    1    1    2  501    0 -0.11708009008E+02 -0.22274372770E+02 -0.22795379455E+03  0.22933852186E+03  0.00000000000E+00 0. -1.
          1    1    1    2  502    0 -0.57355556407E+02  0.25034974470E+02  0.31019562477E+03  0.31644546991E+03  0.00000000000E+00 0. -1.
         22    1    3    3    0    0  0.12410233510E+02  0.57252801903E+02 -0.77899458360E+02  0.97469086557E+02  0.00000000000E+00 0. -1.
         22    1    3    3    0    0  0.56653331904E+02 -0.60013403603E+02 -0.71022642446E+02  0.10888261738E+03  0.00000000000E+00 0. -1.
</event>
<event>
 7    1  0.8278507E-006  0.4378433E+02  0.7818608E-02  0.1488018E+00
          2   -1    0    0  502    0  0.00000000000E+00  0.00000000000E+00  0.15934847595E+04  0.15934847595E+04  0.00000000000E+00 0. -1.
          1   -1    0    0  501    0 -0.00000000000E+00 -0.00000000000E+00 -0.44198716831E+03  0.44198716831E+03  0.00000000000E+00 0. -1.
         25    2    1    2    0    0  0.29780084968E+02  0.70509761678E+02  0.55325280799E+03  0.57233908697E+03  0.12499952386E+03 0.  0.
          2    1    1    2  501    0  0.25156004574E+01 -0.43662910428E+02 -0.43090886541E+03  0.43312264809E+03  0.00000000000E+00 0. -1.
          1    1    1    2  502    0 -0.32295685426E+02 -0.26846851250E+02  0.10291536486E+04  0.10300101927E+04  0.00000000000E+00 0. -1.
         22    1    3    3    0    0  0.45762550427E+02 -0.19974491586E+02  0.13074030170E+03  0.13995076929E+03  0.00000000000E+00 0. -1.
         22    1    3    3    0    0 -0.15982465459E+02  0.90484253264E+02  0.42251250629E+03  0.43238831767E+03  0.00000000000E+00 0. -1.
</event>
<event>
 7    1  0.8278507E-006  0.1035751E+03  0.7818608E-02  0.1327113E+00
          2   -1    0    0  502    0  0.00000000000E+00  0.00000000000E+00  0.73103631393E+02  0.73103631393E+02  0.00000000000E+00 0. -1.
          1   -1    0    0  501    0 -0.00000000000E+00 -0.00000000000E+00 -0.19298776269E+04  0.19298776269E+04  0.00000000000E+00 0. -1.
         25    2    1    2    0    0 -0.86309267994E+02 -0.74953819173E+02 -0.20218498005E+03  0.26376600838E+03  0.12500550494E+03 0.  0.
          2    1    1    2  501    0  0.28620662348E+02  0.99914144459E+02 -0.16710177805E+04  0.16742468161E+04  0.00000000000E+00 0. -1.
          1    1    1    2  502    0  0.57688605646E+02 -0.24960325286E+02  0.16428765096E+02  0.64968433738E+02  0.00000000000E+00 0. -1.
         22    1    3    3    0    0 -0.10629319417E+02  0.24849158222E+02 -0.95456339870E+02  0.99208749196E+02  0.00000000000E+00 0. -1.
         22    1    3    3    0    0 -0.75679948577E+02 -0.99802977395E+02 -0.10672864018E+03  0.16455725918E+03  0.00000000000E+00 0. -1.
</event>
<event>
 7    1  0.8278507E-006  0.1425042E+03  0.7818608E-02  0.1245178E+00
          2   -1    0    0  502    0  0.00000000000E+00  0.00000000000E+00  0.30413913230E+04  0.30413913230E+04  0.00000000000E+00 0. -1.
          1   -1    0    0  501    0 -0.00000000000E+00 -0.00000000000E+00 -0.19893083475E+04  0.19893083475E+04  0.00000000000E+00 0. -1.
         25    2    1    2    0    0  0.14182869900E+03 -0.16378964625E+03 -0.14207267663E+03  0.28766594754E+03  0.12499849539E+03 0.  0.
          2    1    1    2  501    0 -0.94312487503E+02  0.29939748887E+02 -0.17713585221E+04  0.17741201334E+04  0.00000000000E+00 0. -1.
          1    1    1    2  502    0 -0.47516211492E+02  0.13384989737E+03  0.29655141742E+04  0.29689135896E+04  0.00000000000E+00 0. -1.
         22    1    3    3    0    0  0.14974713499E+02 -0.58883750372E+02 -0.10122807684E+03  0.11806210926E+03  0.00000000000E+00 0. -1.
         22    1    3    3    0    0  0.12685398550E+03 -0.10490589588E+03 -0.40844599793E+02  0.16960383828E+03  0.00000000000E+00 0. -1.
</event>
<event>
 7    1  0.8278507E-006  0.6455022E+02  0.7818608E-02  0.1394125E+00
          2   -1    0    0  502    0  0.00000000000E+00  0.00000000000E+00  0.34623623386E+04  0.34623623386E+04  0.00000000000E+00 0. -1.
          1   -1    0    0  501    0 -0.00000000000E+00 -0.00000000000E+00 -0.22760006395E+04  0.22760006395E+04  0.00000000000E+00 0. -1.
         25    2    1    2    0    0  0.11264437857E+03  0.31263348817E+02 -0.11381970231E+03  0.20553817038E+03  0.12499944739E+03 0.  0.
          2    1    1    2  501    0 -0.57408296889E+02  0.19614555606E+01 -0.21156278046E+04  0.21164074672E+04  0.00000000000E+00 0. -1.
          1    1    1    2  502    0 -0.55236081677E+02 -0.33224804377E+02  0.34158092060E+04  0.34164173404E+04  0.00000000000E+00 0. -1.
         22    1    3    3    0    0  0.90507009408E+02  0.83219042087E+01 -0.13819662047E+03  0.16540580024E+03  0.00000000000E+00 0.  1.
         22    1    3    3    0    0  0.22137369158E+02  0.22941444608E+02  0.24376918166E+02  0.40132370142E+02  0.00000000000E+00 0.  1.
</event>
<event>
 7    1  0.8278507E-006  0.6966849E+02  0.7818608E-02  0.1412869E+00
          2   -1    0    0  502    0  0.00000000000E+00  0.00000000000E+00  0.27532727954E+04  0.27532727954E+04  0.00000000000E+00 0. -1.
          1   -1    0    0  501    0 -0.00000000000E+00 -0.00000000000E+00 -0.68533270861E+03  0.68533270861E+03  0.00000000000E+00 0. -1.
         25    2    1    2    0    0 -0.83798382113E+02  0.51491602229E+02  0.23408449260E+02  0.16076804791E+03  0.12499942315E+03 0.  0.
          2    1    1    2  501    0  0.38303489594E+02 -0.57691883956E+02 -0.61450991640E+03  0.61839950529E+03  0.00000000000E+00 0. -1.
          1    1    1    2  502    0  0.45494892519E+02  0.62002817272E+01  0.26590415539E+04  0.26594379508E+04  0.00000000000E+00 0. -1.
         22    1    3    3    0    0  0.26754961375E+01  0.49972456951E+02  0.49541863914E+02  0.70418754699E+02  0.00000000000E+00 0. -1.
         22    1    3    3    0    0 -0.86473878251E+02  0.15191452784E+01 -0.26133414653E+02  0.90349293210E+02  0.00000000000E+00 0. -1.
</event>
<event>
 7    1  0.8278507E-006  0.9165798E+02  0.7818608E-02  0.1319974E+00
          2   -1    0    0  502    0  0.00000000000E+00  0.00000000000E+00  0.16249094090E+04  0.16249094090E+04  0.00000000000E+00 0. -1.
          1   -1    0    0  501    0 -0.00000000000E+00 -0.00000000000E+00 -0.91144621000E+02  0.91144621000E+02  0.00000000000E+00 0. -1.
         25    2    1    2    0    0  0.41092856158E+02 -0.70758080765E+02  0.11663388049E+03  0.18953462490E+03  0.12499833253E+03 0.  0.
          2    1    1    2  501    0 -0.99063889230E+02  0.22107007494E+02 -0.57157857875E+01  0.10166141912E+03  0.00000000000E+00 0. -1.
          1    1    1    2  502    0  0.57971033072E+02  0.48651073270E+02  0.14228466933E+04  0.14248579860E+04  0.00000000000E+00 0. -1.
         22    1    3    3    0    0  0.85487700491E+02 -0.42040752785E+02  0.62950817081E+02  0.11418571365E+03  0.00000000000E+00 0.  1.
         22    1    3    3    0    0 -0.44394844333E+02 -0.28717327980E+02  0.53683063413E+02  0.75348911253E+02  0.00000000000E+00 0.  1.
</event>
<event>
 7    1  0.2170982E-005  0.4847421E+02  0.7818608E-02  0.1476538E+00
          2   -1    0    0  502    0  0.00000000000E+00  0.00000000000E+00  0.11117059093E+04  0.11117059093E+04  0.00000000000E+00 0. -1.
          1   -1    0    0  501    0 -0.00000000000E+00 -0.00000000000E+00 -0.92352528628E+03  0.92352528628E+03  0.00000000000E+00 0. -1.
         25    2    1    2    0    0  0.41855895756E+02  0.41249184333E+02 -0.31615206662E+03  0.34500754853E+03  0.12499867237E+03 0.  0.
          2    1    1    2  501    0 -0.40489775189E+02  0.72155609109E+01 -0.59169573912E+03  0.59312337157E+03  0.00000000000E+00 0. -1.
          1    1    1    2  502    0 -0.13661205674E+01 -0.48464745244E+02  0.10960284288E+04  0.10971002755E+04  0.00000000000E+00 0. -1.
         22    1    3    3    0    0  0.19351436027E+02  0.99730272261E+00 -0.29257188918E+03  0.29321286300E+03  0.00000000000E+00 0. -1.
         22    1    3    3    0    0  0.22504459729E+02  0.40251881610E+02 -0.23580177438E+02  0.51794685527E+02  0.00000000000E+00 0. -1.
</event>
<event>
 7    1  0.8278507E-006  0.4609739E+02  0.7818608E-02  0.1572949E+00
          2   -1    0    0  502    0  0.00000000000E+00  0.00000000000E+00  0.17487574212E+04  0.17487574212E+04  0.00000000000E+00 0. -1.
          1   -1    0    0  501    0 -0.00000000000E+00 -0.00000000000E+00 -0.17857426067E+03  0.17857426067E+03  0.00000000000E+00 0. -1.
         25    2    1    2    0    0  0.34772744125E+02 -0.55605582955E+02  0.42574061088E+02  0.14743658496E+03  0.12499548519E+03 0.  0.
          2    1    1    2  501    0 -0.27373983889E+01  0.22612025941E+02 -0.12479228980E+03  0.12685390282E+03  0.00000000000E+00 0. -1.
          1    1    1    2  502    0 -0.32035345736E+02  0.32993557014E+02  0.16524013892E+04  0.16530411941E+04  0.00000000000E+00 0. -1.
         22    1    3    3    0    0  0.27107374066E+02 -0.25563512643E+02  0.86204234652E+02  0.93912049170E+02  0.00000000000E+00 0. -1.
         22    1    3    3    0    0  0.76653700595E+01 -0.30042070311E+02 -0.43630173564E+02  0.53524535794E+02  0.00000000000E+00 0. -1.
</event>
<event>
 7    1  0.8278507E-006  0.1562507E+03  0.7818608E-02  0.1233005E+00
          2   -1    0    0  502    0  0.00000000000E+00  0.00000000000E+00  0.53240194429E+03  0.53240194429E+03  0.00000000000E+00 0. -1.
          1   -1    0    0  501    0 -0.00000000000E+00 -0.00000000000E+00 -0.41170653623E+03  0.41170653623E+03  0.00000000000E+00 0. -1.
         25    2    1    2    0    0 -0.42677384006E+02 -0.61652281141E+02  0.32790880686E+02  0.14941008265E+03  0.12500307223E+03 0.  0.
          2    1    1    2  501    0  0.11577007900E+03  0.13299574022E+03 -0.32478252439E+03  0.36955955712E+03  0.00000000000E+00 0. -1.
          1    1    1    2  502    0 -0.73092694993E+02 -0.71343459083E+02  0.41268705176E+03  0.42513884074E+03  0.00000000000E+00 0. -1.
         22    1    3    3    0    0 -0.79371870336E+02 -0.64555395900E+02  0.35011872872E+01  0.10236967936E+03  0.00000000000E+00 0.  1.
         22    1    3    3    0    0  0.36694486329E+02  0.29031147594E+01  0.29289693399E+02  0.47040403290E+02  0.00000000000E+00 0.  1.
</event>
<event>
 7    1  0.8278507E-006  0.8758109E+02  0.7818608E-02  0.1353750E+00
          2   -1    0    0  502    0  0.00000000000E+00  0.00000000000E+00  0.10988474792E+04  0.10988474792E+04  0.00000000000E+00 0. -1.
          1   -1    0    0  501    0 -0.00000000000E+00 -0.00000000000E+00 -0.41136064486E+03  0.41136064486E+03  0.00000000000E+00 0. -1.
         25    2    1    2    0    0 -0.43257079182E+00 -0.43815120677E+02 -0.23500571743E+03  0.26976715715E+03  0.12500671956E+03 0.  0.
          2    1    1    2  501    0  0.52422052617E+02 -0.27129473104E+02 -0.15163501319E+03  0.16271833681E+03  0.00000000000E+00 0. -1.
          1    1    1    2  502    0 -0.51989481825E+02  0.70944593781E+02  0.10741275649E+04  0.10777226301E+04  0.00000000000E+00 0. -1.
         22    1    3    3    0    0  0.47839505430E+02  0.33907116234E+01 -0.16773801633E+03  0.17445961518E+03  0.00000000000E+00 0. -1.
         22    1    3    3    0    0 -0.48272076222E+02 -0.47205832300E+02 -0.67267701099E+02  0.95307541974E+02  0.00000000000E+00 0. -1.
</event>
<event>
 7    1  0.8278507E-006  0.1435071E+03  0.7818608E-02  0.1214992E+00
          2   -1    0    0  502    0  0.00000000000E+00  0.00000000000E+00  0.31157991184E+03  0.31157991184E+03  0.00000000000E+00 0. -1.
          1   -1    0    0  501    0 -0.00000000000E+00 -0.00000000000E+00 -0.59406522437E+03  0.59406522437E+03  0.00000000000E+00 0. -1.
         25    2    1    2    0    0  0.14874386633E+02 -0.13980565167E+03 -0.11707611530E+03  0.22158588694E+03  0.12500648343E+03 0.  0.
          2    1    1    2  501    0 -0.13455051399E+03  0.60610220623E+02 -0.39030851501E+03  0.41727470155E+03  0.00000000000E+00 0. -1.
          1    1    1    2  502    0  0.11967612736E+03  0.79195431051E+02  0.22489931779E+03  0.26678454772E+03  0.00000000000E+00 0. -1.
         22    1    3    3    0    0 -0.45770062672E+02 -0.78896301730E+02 -0.22816519995E+02  0.94021905151E+02  0.00000000000E+00 0.  1.
         22    1    3    3    0    0  0.60644449305E+02 -0.60909349945E+02 -0.94259595307E+02  0.12756398179E+03  0.00000000000E+00 0.  1.
</event>
<event>
 7    1  0.8278507E-006  0.4752639E+02  0.7818608E-02  0.1463636E+00
          2   -1    0    0  502    0  0.00000000000E+00  0.00000000000E+00  0.40537961403E+03  0.40537961403E+03  0.00000000000E+00 0. -1.
          1   -1    0    0  501    0 -0.00000000000E+00 -0.00000000000E+00 -0.92997222566E+02  0.92997222566E+02  0.00000000000E+00 0. -1.
         25    2    1    2    0    0 -0.19971610908E+02  0.53730566190E+02  0.45433805682E+02  0.14482706237E+03  0.12499923324E+03 0.  0.
          2    1    1    2  501    0  0.44299392008E+02 -0.12424509303E+02 -0.28577042315E+02  0.54161350714E+02  0.00000000000E+00 0. -1.
          1    1    1    2  502    0 -0.24327781100E+02 -0.41306056886E+02  0.29552562809E+03  0.29938842350E+03  0.00000000000E+00 0. -1.
         22    1    3    3    0    0  0.16461640349E+02  0.74647301928E+02 -0.79973824047E+01  0.76858073183E+02  0.00000000000E+00 0.  1.
         22    1    3    3    0    0 -0.36433251257E+02 -0.20916735738E+02  0.53431188087E+02  0.67968989190E+02  0.00000000000E+00 0.  1.
</event>
<event>
 7    1  0.8278507E-006  0.9388053E+02  0.7818608E-02  0.1429623E+00
          2   -1    0    0  502    0  0.00000000000E+00  0.00000000000E+00  0.22780096883E+03  0.22780096883E+03  0.00000000000E+00 0. -1.
          1   -1    0    0  501    0 -0.00000000000E+00 -0.00000000000E+00 -0.73454190233E+03  0.73454190233E+03  0.00000000000E+00 0. -1.
         25    2    1    2    0    0  0.68937656566E+02  0.66588791796E+01 -0.14502930518E+03  0.20359781423E+03  0.12498731709E+03 0.  0.
          2    1    1    2  501    0  0.26333704253E+02 -0.14290682001E+02 -0.54829167231E+03  0.54910968439E+03  0.00000000000E+00 0. -1.
          1    1    1    2  502    0 -0.95271360818E+02  0.76318028218E+01  0.18658004399E+03  0.20963537254E+03  0.00000000000E+00 0. -1.
         22    1    3    3    0    0  0.85305668570E+02  0.41859539416E+01 -0.34953003264E+02  0.92283756630E+02  0.00000000000E+00 0.  1.
         22    1    3    3    0    0 -0.16368012005E+02  0.24729252380E+01 -0.11007630191E+03  0.11131405760E+03  0.00000000000E+00 0.  1.
</event>
<event>
 7    1  0.8278507E-006  0.9294308E+02  0.7818608E-02  0.1328454E+00
          2   -1    0    0  502    0  0.00000000000E+00  0.00000000000E+00  0.42975974137E+03  0.42975974137E+03  0.00000000000E+00 0. -1.
          1   -1    0    0  501    0 -0.00000000000E+00 -0.00000000000E+00 -0.70370754383E+03  0.70370754383E+03  0.00000000000E+00 0. -1.
         25    2    1    2    0    0  0.18783911812E+02  0.25610312089E+02  0.64721325988E+02  0.14430046047E+03  0.12500019771E+03 0.  0.
          2    1    1    2  501    0 -0.86688432855E+02 -0.39056767794E+02 -0.65677224613E+03  0.66361894095E+03  0.00000000000E+00 0. -1.
          1    1    1    2  502    0  0.67904521042E+02  0.13446455705E+02  0.31810311769E+03  0.32554788378E+03  0.00000000000E+00 0. -1.
         22    1    3    3    0    0 -0.41743030811E+02 -0.24340237975E+02  0.37748797028E+02  0.61318019236E+02  0.00000000000E+00 0. -1.
         22    1    3    3    0    0  0.60526942623E+02  0.49950550064E+02  0.26972528960E+02  0.82982441236E+02  0.00000000000E+00 0. -1.
</event>
<event>
 7    1  0.8278507E-006  0.1342589E+03  0.7818608E-02  0.1291846E+00
          2   -1    0    0  502    0  0.00000000000E+00  0.00000000000E+00  0.14639345957E+04  0.14639345957E+04  0.00000000000E+00 0. -1.
          1   -1    0    0  501    0 -0.00000000000E+00 -0.00000000000E+00 -0.56044839545E+03  0.56044839545E+03  0.00000000000E+00 0. -1.
         25    2    1    2    0    0  0.21782576195E+02 -0.15629095307E+03  0.37099310900E+03  0.42209342866E+03  0.12500253178E+03 0.  0.
          2    1    1    2  501    0  0.38872573362E+02  0.12830109678E+03 -0.52542832436E+03  0.54226116626E+03  0.00000000000E+00 0. -1.
          1    1    1    2  502    0 -0.60655149557E+02  0.27989856295E+02  0.10579214156E+04  0.10600283962E+04  0.00000000000E+00 0. -1.
         22    1    3    3    0    0 -0.13655721243E+02 -0.15289495269E+03  0.22888118656E+03  0.27559017189E+03  0.00000000000E+00 0.  1.
         22    1    3    3    0    0  0.35438297438E+02 -0.33960003829E+01  0.14211192244E+03  0.14650325676E+03  0.00000000000E+00 0.  1.
</event>
<event>
 7    1  0.8278507E-006  0.1682900E+03  0.7818608E-02  0.1374614E+00
          2   -1    0    0  502    0  0.00000000000E+00  0.00000000000E+00  0.31331061367E+04  0.31331061367E+04  0.00000000000E+00 0. -1.
          1   -1    0    0  501    0 -0.00000000000E+00 -0.00000000000E+00 -0.67809565561E+02  0.67809565561E+02  0.00000000000E+00 0. -1.
         25    2    1    2    0    0  0.61961580342E+02  0.15162528229E+03  0.22383111865E+04  0.22477746925E+04  0.12499854781E+03 0.  0.
          2    1    1    2  501    0  0.25639341429E+02  0.29302861045E+01 -0.51109392677E+02  0.57254977298E+02  0.00000000000E+00 0. -1.
          1    1    1    2  502    0 -0.87600921772E+02 -0.15455556839E+03  0.87809477731E+03  0.89588603246E+03  0.00000000000E+00 0. -1.
         22    1    3    3    0    0  0.35379455982E+02  0.13055438372E+03  0.21296708529E+04  0.21339620649E+04  0.00000000000E+00 0.  1.
         22    1    3    3    0    0  0.26582124361E+02  0.21070898570E+02  0.10864033367E+03  0.11381262760E+03  0.00000000000E+00 0.  1.
</event>
<event>
 7    1  0.8278507E-006  0.1498645E+03  0.7818608E-02  0.1322351E+00
          2   -1    0    0  502    0  0.00000000000E+00  0.00000000000E+00  0.74853315353E+03  0.74853315353E+03  0.00000000000E+00 0. -1.
          1   -1    0    0  501    0 -0.00000000000E+00 -0.00000000000E+00 -0.17418982965E+04  0.17418982965E+04  0.00000000000E+00 0. -1.
         25    2    1    2    0    0 -0.16730227317E+03 -0.78436321368E+02 -0.35024955632E+03  0.41527041124E+03  0.12502981896E+03 0.  0.
          2    1    1    2  501    0  0.44809004914E+02 -0.67591553084E+01 -0.13509811838E+04  0.13517409855E+04  0.00000000000E+00 0. -1.
          1    1    1    2  502    0  0.12249326826E+03  0.85195476676E+02  0.70786559707E+03  0.72342005331E+03  0.00000000000E+00 0. -1.
         22    1    3    3    0    0 -0.17291488170E+03 -0.97702809572E+02 -0.28781144955E+03  0.34968675383E+03  0.00000000000E+00 0.  1.
         22    1    3    3    0    0  0.56126085264E+01  0.19266488204E+02 -0.62438106766E+02  0.65583657406E+02  0.00000000000E+00 0.  1.
</event>
<event>
 7    1  0.8278507E-006  0.1009524E+03  0.7818608E-02  0.1291321E+00
          2   -1    0    0  502    0  0.00000000000E+00  0.00000000000E+00  0.42805258262E+03  0.42805258262E+03  0.00000000000E+00 0. -1.
          1   -1    0    0  501    0 -0.00000000000E+00 -0.00000000000E+00 -0.18235376860E+03  0.18235376860E+03  0.00000000000E+00 0. -1.
         25    2    1    2    0    0 -0.98187529937E+01  0.89327973696E+01  0.75840936635E+02  0.14680208917E+03  0.12499121144E+03 0.  0.
          2    1    1    2  501    0 -0.99247562650E+02  0.18474793495E+02 -0.11756700049E+03  0.15496256416E+03  0.00000000000E+00 0. -1.
          1    1    1    2  502    0  0.10906631564E+03 -0.27407590865E+02  0.28742487789E+03  0.30864169788E+03  0.00000000000E+00 0. -1.
         22    1    3    3    0    0 -0.18846849794E+02 -0.41352954585E+02 -0.10348278292E+02  0.46608555692E+02  0.00000000000E+00 0. -1.
         22    1    3    3    0    0  0.90280968007E+01  0.50285751955E+02  0.86189214927E+02  0.10019353348E+03  0.00000000000E+00 0. -1.
</event>
<event>
 7    1  0.8278507E-006  0.2594369E+03  0.7818608E-02  0.1295006E+00
          2   -1    0    0  502    0  0.00000000000E+00  0.00000000000E+00  0.96363635171E+03  0.96363635171E+03  0.00000000000E+00 0. -1.
          1   -1    0    0  501    0 -0.00000000000E+00 -0.00000000000E+00 -0.24470863185E+04  0.24470863185E+04  0.00000000000E+00 0. -1.
         25    2    1    2    0    0 -0.24583690957E+03 -0.23479125626E+02  0.53102533702E+02  0.28183566872E+03  0.12499763848E+03 0.  0.
          2    1    1    2  501    0  0.25394065703E+03  0.56053336083E+02 -0.23251138409E+04  0.23396115505E+04  0.00000000000E+00 0. -1.
          1    1    1    2  502    0 -0.81037474611E+01 -0.32574210457E+02  0.78856134045E+03  0.78927545101E+03  0.00000000000E+00 0. -1.
         22    1    3    3    0    0 -0.25041800606E+03 -0.13274359100E+01  0.61231707732E+02  0.25779887873E+03  0.00000000000E+00 0.  1.
         22    1    3    3    0    0  0.45810964856E+01 -0.22151689716E+02 -0.81291740295E+01  0.24036789983E+02  0.00000000000E+00 0.  1.
</event>
<event>
 7    1  0.8278507E-006  0.7301993E+02  0.7818608E-02  0.1370882E+00
          2   -1    0    0  502    0  0.00000000000E+00  0.00000000000E+00  0.20716005512E+03  0.20716005512E+03  0.00000000000E+00 0. -1.
          1   -1    0    0  501    0 -0.00000000000E+00 -0.00000000000E+00 -0.23655579683E+03  0.23655579683E+03  0.00000000000E+00 0. -1.
         25    2    1    2    0    0 -0.25363347617E+02 -0.80767460083E+02 -0.68393664658E+02  0.16573695161E+03  0.12499744699E+03 0.  0.
          2    1    1    2  501    0  0.66308041255E+02  0.35100861903E+02 -0.10060309467E+03  0.12549824501E+03  0.00000000000E+00 0. -1.
          1    1    1    2  502    0 -0.40944693638E+02  0.45666598180E+02  0.13960101763E+03  0.15248065533E+03  0.00000000000E+00 0. -1.
         22    1    3    3    0    0 -0.31301691581E+02 -0.11195864442E+03 -0.66501862023E+02  0.13392920372E+03  0.00000000000E+00 0. -1.
         22    1    3    3    0    0  0.59383439634E+01  0.31191184333E+02 -0.18918026355E+01  0.31807747898E+02  0.00000000000E+00 0. -1.
</event>
<event>
 7    1  0.8278507E-006  0.8786320E+02  0.7818608E-02  0.1375648E+00
          2   -1    0    0  502    0  0.00000000000E+00  0.00000000000E+00  0.38417694235E+03  0.38417694235E+03  0.00000000000E+00 0. -1.
          1   -1    0    0  501    0 -0.00000000000E+00 -0.00000000000E+00 -0.46572820950E+03  0.46572820950E+03  0.00000000000E+00 0. -1.
         25    2    1    2    0    0 -0.42092936558E+02  0.49197739455E+02 -0.26555588446E+03  0.30056186453E+03  0.12500109505E+03 0.  0.
          2    1    1    2  501    0  0.55156348452E+02 -0.96435178269E+02 -0.16390028731E+03  0.19800320846E+03  0.00000000000E+00 0. -1.
          1    1    1    2  502    0 -0.13063411894E+02  0.47237438813E+02  0.34790490461E+03  0.35134007886E+03  0.00000000000E+00 0. -1.
         22    1    3    3    0    0 -0.20660758088E+02  0.91212222237E+02 -0.18145072588E+03  0.20413452019E+03  0.00000000000E+00 0.  1.
         22    1    3    3    0    0 -0.21432178469E+02 -0.42014482781E+02 -0.84105158577E+02  0.96427344341E+02  0.00000000000E+00 0.  1.
</event>
<event>
 7    1  0.8278507E-006  0.1230299E+03  0.7818608E-02  0.1407915E+00
          2   -1    0    0  502    0  0.00000000000E+00  0.00000000000E+00  0.45578496826E+02  0.45578496826E+02  0.00000000000E+00 0. -1.
          1   -1    0    0  501    0 -0.00000000000E+00 -0.00000000000E+00 -0.82383225740E+03  0.82383225740E+03  0.00000000000E+00 0. -1.
         25    2    1    2    0    0  0.13919995747E+03  0.47708192320E+01 -0.54894545003E+03  0.57996826021E+03  0.12499074711E+03 0.  0.
          2    1    1    2  501    0 -0.21410539281E+02  0.16490526654E+02 -0.13327201792E+03  0.13598448228E+03  0.00000000000E+00 0. -1.
          1    1    1    2  502    0 -0.11778941819E+03 -0.21261345886E+02 -0.96036292627E+02  0.15345801174E+03  0.00000000000E+00 0. -1.
         22    1    3    3    0    0  0.78878810692E+02  0.64496582758E+02 -0.28135155546E+03  0.29923297566E+03  0.00000000000E+00 0.  1.
         22    1    3    3    0    0  0.60321146774E+02 -0.59725763526E+02 -0.26759389458E+03  0.28073528455E+03  0.00000000000E+00 0.  1.
</event>
<event>
 7    1  0.8278507E-006  0.9578042E+02  0.7818608E-02  0.1390984E+00
          2   -1    0    0  502    0  0.00000000000E+00  0.00000000000E+00  0.35543357420E+03  0.35543357420E+03  0.00000000000E+00 0. -1.
          1   -1    0    0  501    0 -0.00000000000E+00 -0.00000000000E+00 -0.64139694429E+03  0.64139694429E+03  0.00000000000E+00 0. -1.
         25    2    1    2    0    0 -0.77459404625E+02 -0.23661032033E+02  0.11380838849E+03  0.18744446588E+03  0.12499309859E+03 0.  0.
          2    1    1    2  501    0  0.72803034722E+02  0.63084826832E+02 -0.59876853632E+03  0.60646824923E+03  0.00000000000E+00 0. -1.
          1    1    1    2  502    0  0.46563699035E+01 -0.39423794799E+02  0.19899677774E+03  0.20291780338E+03  0.00000000000E+00 0. -1.
         22    1    3    3    0    0  0.27984878603E+02  0.29700990357E+01 -0.24485796255E+01  0.28248370942E+02  0.00000000000E+00 0.  1.
         22    1    3    3    0    0 -0.10544428323E+03 -0.26631131069E+02  0.11625696812E+03  0.15919609494E+03  0.00000000000E+00 0.  1.
</event>
<event>
 7    1  0.8278507E-006  0.1133263E+03  0.7818608E-02  0.1408979E+00
          2   -1    0    0  502    0  0.00000000000E+00  0.00000000000E+00  0.43744842437E+03  0.43744842437E+03  0.00000000000E+00 0. -1.
          1   -1    0    0  501    0 -0.00000000000E+00 -0.00000000000E+00 -0.32286540626E+03  0.32286540626E+03  0.00000000000E+00 0. -1.
         25    2    1    2    0    0  0.93438085945E+02  0.22149825375E+02  0.28358421499E+03  0.32445573841E+03  0.12502091237E+03 0.  0.
          2    1    1    2  501    0 -0.11400965758E+03 -0.15736788651E+01 -0.28989509796E+03  0.31151219287E+03  0.00000000000E+00 0. -1.
          1    1    1    2  502    0  0.20571571639E+02 -0.20576146510E+02  0.12089390108E+03  0.12434589935E+03  0.00000000000E+00 0. -1.
         22    1    3    3    0    0  0.11856193219E+03  0.22756005996E+02  0.17240460577E+03  0.21047117538E+03  0.00000000000E+00 0. -1.
         22    1    3    3    0    0 -0.25123846247E+02 -0.60618062029E+00  0.11117960921E+03  0.11398456303E+03  0.00000000000E+00 0. -1.
</event>
<event>
 7    1  0.8278507E-006  0.1031858E+03  0.7818608E-02  0.1361411E+00
          2   -1    0    0  502    0  0.00000000000E+00  0.00000000000E+00  0.33950288029E+03  0.33950288029E+03  0.00000000000E+00 0. -1.
          1   -1    0    0  501    0 -0.00000000000E+00 -0.00000000000E+00 -0.38515527679E+03  0.38515527679E+03  0.00000000000E+00 0. -1.
         25    2    1    2    0    0  0.13939343880E+03 -0.23940505101E+02  0.92305243252E+01  0.18898036528E+03  0.12499878925E+03 0.  0.
          2    1    1    2  501    0 -0.46067586531E+02 -0.91347397059E+01 -0.28306756725E+03  0.28693712487E+03  0.00000000000E+00 0. -1.
          1    1    1    2  502    0 -0.93325852272E+02  0.33075244807E+02  0.22818464642E+03  0.24874066693E+03  0.00000000000E+00 0. -1.
         22    1    3    3    0    0  0.18985952270E+02 -0.51694349052E+02  0.31473077287E+02  0.63429698891E+02  0.00000000000E+00 0.  1.
         22    1    3    3    0    0  0.12040748653E+03  0.27753843952E+02 -0.22242552962E+02  0.12555066638E+03  0.00000000000E+00 0.  1.
</event>
<event>
 7    1  0.8278507E-006  0.4282234E+02  0.7818608E-02  0.1554210E+00
          2   -1    0    0  502    0  0.00000000000E+00  0.00000000000E+00  0.12917796457E+03  0.12917796457E+03  0.00000000000E+00 0. -1.
          1   -1    0    0  501    0 -0.00000000000E+00 -0.00000000000E+00 -0.21867240570E+04  0.21867240570E+04  0.00000000000E+00 0. -1.
         25    2    1    2    0    0 -0.56463798861E+02 -0.20792292711E+02 -0.83832048728E+03  0.84972253515E+03  0.12500666915E+03 0.  0.
          2    1    1    2  501    0  0.26005578008E+02 -0.92332172084E+01 -0.13388524954E+04  0.13391368664E+04  0.00000000000E+00 0. -1.
          1    1    1    2  502    0  0.30458220853E+02  0.30025509919E+02  0.11962689020E+03  0.12704262010E+03  0.00000000000E+00 0. -1.
         22    1    3    3    0    0  0.10134620522E+02 -0.35053807401E+02 -0.75373166162E+02  0.83741233116E+02  0.00000000000E+00 0.  1.
         22    1    3    3    0    0 -0.66598419383E+02  0.14261514691E+02 -0.76294732112E+03  0.76598130204E+03  0.00000000000E+00 0.  1.
</event>
<event>
 7    1  0.8278507E-006  0.7965551E+02  0.7818608E-02  0.1408606E+00
          2   -1    0    0  502    0  0.00000000000E+00  0.00000000000E+00  0.35648587007E+03  0.35648587007E+03  0.00000000000E+00 0. -1.
          1   -1    0    0  501    0 -0.00000000000E+00 -0.00000000000E+00 -0.72533960436E+02  0.72533960436E+02  0.00000000000E+00 0. -1.
         25    2    1    2    0    0  0.59189171462E+02 -0.21446623614E+02  0.86107614096E+02  0.16432460075E+03  0.12499895009E+03 0.  0.
          2    1    1    2  501    0 -0.25902012759E+01 -0.41434880890E+02 -0.78774904829E+01  0.42256518471E+02  0.00000000000E+00 0. -1.
          1    1    1    2  502    0 -0.56598970186E+02  0.62881504504E+02  0.20572178602E+03  0.22243871129E+03  0.00000000000E+00 0. -1.
         22    1    3    3    0    0  0.40121864578E+02  0.28428897065E+02 -0.13774569113E+02  0.51065692591E+02  0.00000000000E+00 0.  1.
         22    1    3    3    0    0  0.19067306884E+02 -0.49875520679E+02  0.99882183209E+02  0.11325890816E+03  0.00000000000E+00 0.  1.
</event>
<event>
 7    1  0.8278507E-006  0.4044928E+02  0.7818608E-02  0.1511834E+00
          2   -1    0    0  502    0  0.00000000000E+00  0.00000000000E+00  0.63119238527E+03  0.63119238527E+03  0.00000000000E+00 0. -1.
          1   -1    0    0  501    0 -0.00000000000E+00 -0.00000000000E+00 -0.10648006753E+03  0.10648006753E+03  0.00000000000E+00 0. -1.
         25    2    1    2    0    0  0.54348043072E+02  0.30015494842E+02  0.34767052847E+03  0.37463855822E+03  0.12499845287E+03 0.  0.
          2    1    1    2  501    0 -0.16364623356E+02 -0.36866782866E+02 -0.87153161012E+02  0.96034546132E+02  0.00000000000E+00 0. -1.
          1    1    1    2  502    0 -0.37983419716E+02  0.68512880240E+01  0.26419495028E+03  0.26699934845E+03  0.00000000000E+00 0. -1.
         22    1    3    3    0    0 -0.76997468183E+01 -0.24815427370E+02  0.11488192359E+02  0.28408979220E+02  0.00000000000E+00 0.  1.
         22    1    3    3    0    0  0.62047789890E+02  0.54830922212E+02  0.33618233611E+03  0.34622957900E+03  0.00000000000E+00 0.  1.
</event>
<event>
 7    1  0.8278507E-006  0.1796207E+03  0.7818608E-02  0.1268715E+00
          2   -1    0    0  502    0  0.00000000000E+00  0.00000000000E+00  0.13600349421E+04  0.13600349421E+04  0.00000000000E+00 0. -1.
          1   -1    0    0  501    0 -0.00000000000E+00 -0.00000000000E+00 -0.24931867969E+03  0.24931867969E+03  0.00000000000E+00 0. -1.
         25    2    1    2    0    0  0.12795623006E+03  0.18604296672E+03  0.40853650545E+02  0.26130050140E+03  0.12499659594E+03 0.  0.
          2    1    1    2  501    0 -0.84821140558E+02 -0.14120336169E+03 -0.89199592203E+02  0.18732213560E+03  0.00000000000E+00 0. -1.
          1    1    1    2  502    0 -0.43135089499E+02 -0.44839605026E+02  0.11590622041E+04  0.11607309848E+04  0.00000000000E+00 0. -1.
         22    1    3    3    0    0 -0.23743289717E+02  0.33796781683E+02  0.18373330492E+02  0.45205591823E+02  0.00000000000E+00 0.  1.
         22    1    3    3    0    0  0.15169951977E+03  0.15224618503E+03  0.22480320053E+02  0.21609490958E+03  0.00000000000E+00 0.  1.
</event>
<event>
 7    1  0.8278507E-006  0.6289023E+02  0.7818608E-02  0.1391041E+00
          2   -1    0    0  502    0  0.00000000000E+00  0.00000000000E+00  0.25493726736E+04  0.25493726736E+04  0.00000000000E+00 0. -1.
          1   -1    0    0  501    0 -0.00000000000E+00 -0.00000000000E+00 -0.18869214299E+04  0.18869214299E+04  0.00000000000E+00 0. -1.
         25    2    1    2    0    0  0.18485954345E+02 -0.53895601344E+02  0.10147751293E+03  0.17078688134E+03  0.12499602736E+03 0.  0.
          2    1    1    2  501    0 -0.60111571211E+02  0.62068805255E+01 -0.18513585547E+04  0.18523445750E+04  0.00000000000E+00 0. -1.
          1    1    1    2  502    0  0.41625616866E+02  0.47688720818E+02  0.24123322855E+04  0.24131626472E+04  0.00000000000E+00 0. -1.
         22    1    3    3    0    0  0.44167081269E+01  0.28175981597E+02 -0.11233935078E+02  0.30652806511E+02  0.00000000000E+00 0. -1.
         22    1    3    3    0    0  0.14069246218E+02 -0.82071582941E+02  0.11271144801E+03  0.14013407483E+03  0.00000000000E+00 0. -1.
</event>
<event>
 7    1  0.8278507E-006  0.1166851E+03  0.7818608E-02  0.1345247E+00
          2   -1    0    0  502    0  0.00000000000E+00  0.00000000000E+00  0.14120261205E+04  0.14120261205E+04  0.00000000000E+00 0. -1.
          1   -1    0    0  501    0 -0.00000000000E+00 -0.00000000000E+00 -0.49836820288E+03  0.49836820288E+03  0.00000000000E+00 0. -1.
         25    2    1    2    0    0  0.81805212608E+02 -0.12943415077E+03  0.18399126405E+03  0.27005322888E+03  0.12502267388E+03 0.  0.
          2    1    1    2  501    0 -0.81719249496E+02  0.81794800216E+02 -0.44750781101E+03  0.46220305711E+03  0.00000000000E+00 0. -1.
          1    1    1    2  502    0 -0.85963112031E-01  0.47639350552E+02  0.11771744646E+04  0.11781380374E+04  0.00000000000E+00 0. -1.
         22    1    3    3    0    0  0.79130124787E+00 -0.16024629582E+02  0.11207798929E+03  0.11322053963E+03  0.00000000000E+00 0. -1.
         22    1    3    3    0    0  0.81013911360E+02 -0.11340952119E+03  0.71913274765E+02  0.15683268925E+03  0.00000000000E+00 0. -1.
</event>
<event>
 7    1  0.8278507E-006  0.5526547E+02  0.7818608E-02  0.1483824E+00
          2   -1    0    0  502    0  0.00000000000E+00  0.00000000000E+00  0.12808065428E+04  0.12808065428E+04  0.00000000000E+00 0. -1.
          1   -1    0    0  501    0 -0.00000000000E+00 -0.00000000000E+00 -0.90638587516E+03  0.90638587516E+03  0.00000000000E+00 0. -1.
         25    2    1    2    0    0 -0.50780782202E+02  0.14521052798E+02  0.26703514407E+03  0.29953968361E+03  0.12500682011E+03 0.  0.
          2    1    1    2  501    0  0.16831596200E+02  0.29845557530E+02 -0.88902113748E+03  0.88968120292E+03  0.00000000000E+00 0. -1.
          1    1    1    2  502    0  0.33949186002E+02 -0.44366610328E+02  0.99640666106E+03  0.99797153143E+03  0.00000000000E+00 0. -1.
         22    1    3    3    0    0  0.40173543259E+02  0.19717288731E+01  0.11611941388E+03  0.12288824017E+03  0.00000000000E+00 0.  1.
         22    1    3    3    0    0 -0.90954325461E+02  0.12549323925E+02  0.15091573019E+03  0.17665144344E+03  0.00000000000E+00 0.  1.
</event>
<event>
 7    1  0.8278507E-006  0.1312022E+03  0.7818608E-02  0.1298076E+00
          2   -1    0    0  502    0  0.00000000000E+00  0.00000000000E+00  0.25500256710E+03  0.25500256710E+03  0.00000000000E+00 0. -1.
          1   -1    0    0  501    0 -0.00000000000E+00 -0.00000000000E+00 -0.17339391020E+04  0.17339391020E+04  0.00000000000E+00 0. -1.
         25    2    1    2    0    0 -0.70304173183E+02 -0.20894510575E+02 -0.21595614376E+03  0.26008190390E+03  0.12500513336E+03 0.  0.
          2    1    1    2  501    0 -0.64484040155E+02  0.19305494172E+01 -0.14752703427E+04  0.14766802303E+04  0.00000000000E+00 0. -1.
          1    1    1    2  502    0  0.13478821334E+03  0.18963961158E+02  0.21228995159E+03  0.25217953490E+03  0.00000000000E+00 0. -1.
         22    1    3    3    0    0 -0.23055031476E+02  0.50484581434E+02 -0.11520496694E+03  0.12787654924E+03  0.00000000000E+00 0. -1.
         22    1    3    3    0    0 -0.47249141707E+02 -0.71379092009E+02 -0.10075117683E+03  0.13220535466E+03  0.00000000000E+00 0. -1.
</event>
<event>
 7    1  0.8278507E-006  0.2369340E+03  0.7818608E-02  0.1330715E+00
          2   -1    0    0  502    0  0.00000000000E+00  0.00000000000E+00  0.28146129052E+04  0.28146129052E+04  0.00000000000E+00 0. -1.
          1   -1    0    0  501    0 -0.00000000000E+00 -0.00000000000E+00 -0.13640876153E+04  0.13640876153E+04  0.00000000000E+00 0. -1.
         25    2    1    2    0    0  0.18910342803E+02 -0.24031011857E+03 -0.53199913338E+03  0.59728959065E+03  0.12500089215E+03 0.  0.
          2    1    1    2  501    0 -0.26385740994E+02  0.35179225053E+01 -0.79417608507E+03  0.79462207194E+03  0.00000000000E+00 0. -1.
          1    1    1    2  502    0  0.74753981914E+01  0.23679219607E+03  0.27767005083E+04  0.27867888579E+04  0.00000000000E+00 0. -1.
         22    1    3    3    0    0  0.19893664171E+02 -0.20220153000E+03 -0.30093575592E+03  0.36310266565E+03  0.00000000000E+00 0. -1.
         22    1    3    3    0    0 -0.98332136839E+00 -0.38108588573E+02 -0.23106337745E+03  0.23418692500E+03  0.00000000000E+00 0. -1.
</event>
<event>
 7    1  0.8278507E-006  0.1536757E+03  0.7818608E-02  0.1226149E+00
          2   -1    0    0  502    0  0.00000000000E+00  0.00000000000E+00  0.81809718326E+03  0.81809718326E+03  0.00000000000E+00 0. -1.
          1   -1    0    0  501    0 -0.00000000000E+00 -0.00000000000E+00 -0.38966385019E+03  0.38966385019E+03  0.00000000000E+00 0. -1.
         25    2    1    2    0    0 -0.20997101612E+03 -0.12093323388E+03 -0.48448973544E+02  0.27692529890E+03  0.12501057342E+03 0.  0.
          2    1    1    2  501    0  0.13135422569E+03  0.41903893946E+02 -0.20105831603E+03  0.24379154082E+03  0.00000000000E+00 0. -1.
          1    1    1    2  502    0  0.78616790430E+02  0.79029339937E+02  0.67794062263E+03  0.68704419372E+03  0.00000000000E+00 0. -1.
         22    1    3    3    0    0 -0.38720633962E+02 -0.58922874247E+02  0.32473434463E+02  0.77625489047E+02  0.00000000000E+00 0.  1.
         22    1    3    3    0    0 -0.17125038216E+03 -0.62010359636E+02 -0.80922408007E+02  0.19929980986E+03  0.00000000000E+00 0.  1.
</event>
<event>
 7    1  0.8278507E-006  0.4176695E+02  0.7818608E-02  0.1543708E+00
          2   -1    0    0  502    0  0.00000000000E+00  0.00000000000E+00  0.33610840806E+03  0.33610840806E+03  0.00000000000E+00 0. -1.
          1   -1    0    0  501    0 -0.00000000000E+00 -0.00000000000E+00 -0.51947093596E+02  0.51947093596E+02  0.00000000000E+00 0. -1.
         25    2    1    2    0    0 -0.90451006915E+01  0.13284641349E+02  0.48312879787E+02  0.13497197182E+03  0.12500001312E+03 0.  0.
          2    1    1    2  501    0  0.54915258262E+01  0.29768355343E+02  0.29521693295E+02  0.42282883189E+02  0.00000000000E+00 0. -1.
          1    1    1    2  502    0  0.35535748653E+01 -0.43052996692E+02  0.20632674138E+03  0.21080064665E+03  0.00000000000E+00 0. -1.
         22    1    3    3    0    0 -0.42928340536E+02 -0.41886696204E+02  0.32935013815E+02  0.68425527949E+02  0.00000000000E+00 0.  1.
         22    1    3    3    0    0  0.33883239844E+02  0.55171337553E+02  0.15377865972E+02  0.66546443869E+02  0.00000000000E+00 0.  1.
</event>
<event>
 7    1  0.8278507E-006  0.3464461E+02  0.7818608E-02  0.1584538E+00
          2   -1    0    0  502    0  0.00000000000E+00  0.00000000000E+00  0.92642205273E+03  0.92642205273E+03  0.00000000000E+00 0. -1.
          1   -1    0    0  501    0 -0.00000000000E+00 -0.00000000000E+00 -0.18891865794E+03  0.18891865794E+03  0.00000000000E+00 0. -1.
         25    2    1    2    0    0  0.50474035644E+01 -0.29988723446E+02 -0.93519231173E+02  0.15904811051E+03  0.12500262013E+03 0.  0.
          2    1    1    2  501    0 -0.31257774738E+02  0.19555112924E+02 -0.56965426036E+02  0.67856544906E+02  0.00000000000E+00 0. -1.
          1    1    1    2  502    0  0.26210371173E+02  0.10433610522E+02  0.88798805200E+03  0.88843605525E+03  0.00000000000E+00 0. -1.
         22    1    3    3    0    0  0.43677976220E+02  0.32992317867E+02 -0.38224320551E+02  0.66763443040E+02  0.00000000000E+00 0.  1.
         22    1    3    3    0    0 -0.38630572656E+02 -0.62981041314E+02 -0.55294910622E+02  0.92284667466E+02  0.00000000000E+00 0.  1.
</event>
<event>
 7    1  0.8278507E-006  0.1122891E+03  0.7818608E-02  0.1402508E+00
          2   -1    0    0  502    0  0.00000000000E+00  0.00000000000E+00  0.21828197568E+03  0.21828197568E+03  0.00000000000E+00 0. -1.
          1   -1    0    0  501    0 -0.00000000000E+00 -0.00000000000E+00 -0.94883949699E+03  0.94883949699E+03  0.00000000000E+00 0. -1.
         25    2    1    2    0    0  0.21085700121E+02  0.90774957407E+02 -0.39302731372E+03  0.42282425572E+03  0.12500072900E+03 0.  0.
          2    1    1    2  501    0 -0.12894584679E+02 -0.12056444242E+03 -0.53288948477E+03  0.54651007133E+03  0.00000000000E+00 0. -1.
          1    1    1    2  502    0 -0.81911154413E+01  0.29789485016E+02  0.19535927719E+03  0.19778714562E+03  0.00000000000E+00 0. -1.
         22    1    3    3    0    0  0.68999143860E+02  0.51720479317E+02 -0.29123942128E+03  0.30373720606E+03  0.00000000000E+00 0.  1.
         22    1    3    3    0    0 -0.47913443740E+02  0.39054478090E+02 -0.10178789244E+03  0.11908704966E+03  0.00000000000E+00 0.  1.
</event>
<event>
 7    1  0.8278507E-006  0.1544748E+03  0.7818608E-02  0.1359785E+00
          2   -1    0    0  502    0  0.00000000000E+00  0.00000000000E+00  0.68574882172E+02  0.68574882172E+02  0.00000000000E+00 0. -1.
          1   -1    0    0  501    0 -0.00000000000E+00 -0.00000000000E+00 -0.89536682120E+03  0.89536682120E+03  0.00000000000E+00 0. -1.
         25    2    1    2    0    0 -0.47804389777E+02 -0.13710810879E+03 -0.31168540415E+03  0.36586619856E+03  0.12500556351E+03 0.  0.
          2    1    1    2  501    0  0.24154103748E+02 -0.20687620992E+02 -0.40016717578E+03  0.40142890648E+03  0.00000000000E+00 0. -1.
          1    1    1    2  502    0  0.23650286029E+02  0.15779572978E+03 -0.11493935910E+03  0.19664659833E+03  0.00000000000E+00 0. -1.
         22    1    3    3    0    0  0.11955857265E+02 -0.88627452828E+01 -0.15114927401E+03  0.15188019559E+03  0.00000000000E+00 0.  1.
         22    1    3    3    0    0 -0.59760247042E+02 -0.12824536350E+03 -0.16053613014E+03  0.21398600297E+03  0.00000000000E+00 0.  1.
</event>
<event>
 7    1  0.8278507E-006  0.7305759E+02  0.7818608E-02  0.1351585E+00
          2   -1    0    0  502    0  0.00000000000E+00  0.00000000000E+00  0.15575480896E+04  0.15575480896E+04  0.00000000000E+00 0. -1.
          1   -1    0    0  501    0 -0.00000000000E+00 -0.00000000000E+00 -0.17078533237E+02  0.17078533237E+02  0.00000000000E+00 0. -1.
         25    2    1    2    0    0  0.98545006864E+01 -0.83918446304E+02  0.81830294982E+03  0.83209997804E+03  0.12502495334E+03 0.  0.
          2    1    1    2  501    0  0.57006464751E+02  0.45691073583E+02  0.17026477001E+03  0.18527682838E+03  0.00000000000E+00 0. -1.
          1    1    1    2  502    0 -0.66860965438E+02  0.38227372721E+02  0.55190183650E+03  0.55724981638E+03  0.00000000000E+00 0. -1.
         22    1    3    3    0    0 -0.34303076094E+02 -0.46893943068E+02  0.14314096207E+03  0.15448326106E+03  0.00000000000E+00 0. -1.
         22    1    3    3    0    0  0.44157576781E+02 -0.37024503236E+02  0.67516198775E+03  0.67761671697E+03  0.00000000000E+00 0. -1.
</event>
<event>
 7    1  0.8278507E-006  0.1195637E+03  0.7818608E-02  0.1320736E+00
          2   -1    0    0  502    0  0.00000000000E+00  0.00000000000E+00  0.37985939928E+03  0.37985939928E+03  0.00000000000E+00 0. -1.
          1   -1    0    0  501    0 -0.00000000000E+00 -0.00000000000E+00 -0.16547221635E+03  0.16547221635E+03  0.00000000000E+00 0. -1.
         25    2    1    2    0    0 -0.82493314907E+02  0.83837686570E+02  0.37147546296E+02  0.17560910179E+03  0.12499884696E+03 0.  0.
          2    1    1    2  501    0  0.11802097878E+03 -0.38469779521E+02 -0.51089111145E+02  0.13423476691E+03  0.00000000000E+00 0. -1.
          1    1    1    2  502    0 -0.35527663875E+02 -0.45367907049E+02  0.22832874779E+03  0.23548774693E+03  0.00000000000E+00 0. -1.
         22    1    3    3    0    0  0.17753489503E+02  0.61631524465E+02 -0.56158995487E+01  0.64382990962E+02  0.00000000000E+00 0.  1.
         22    1    3    3    0    0 -0.10024680441E+03  0.22206162105E+02  0.42763445845E+02  0.11122611083E+03  0.00000000000E+00 0.  1.
</event>
<event>
 7    1  0.8278507E-006  0.9646746E+02  0.7818608E-02  0.1339802E+00
          2   -1    0    0  502    0  0.00000000000E+00  0.00000000000E+00  0.47237811346E+03  0.47237811346E+03  0.00000000000E+00 0. -1.
          1   -1    0    0  501    0 -0.00000000000E+00 -0.00000000000E+00 -0.66853947166E+03  0.66853947166E+03  0.00000000000E+00 0. -1.
         25    2    1    2    0    0 -0.11607098045E+03  0.39739904815E+01  0.39567823931E+02  0.17515617318E+03  0.12500322879E+03 0.  0.
          2    1    1    2  501    0  0.80566185266E+02 -0.52831306257E+02 -0.59434116757E+03  0.60209922820E+03  0.00000000000E+00 0. -1.
          1    1    1    2  502    0  0.35504795185E+02  0.48857315775E+02  0.35861198544E+03  0.36366218375E+03  0.00000000000E+00 0. -1.
         22    1    3    3    0    0 -0.42835025719E+02 -0.51235789063E+02  0.49182155295E+02  0.82938711762E+02  0.00000000000E+00 0. -1.
         22    1    3    3    0    0 -0.73235954732E+02  0.55209779544E+02 -0.96143313636E+01  0.92217461418E+02  0.00000000000E+00 0. -1.
</event>
<event>
 7    1  0.8278507E-006  0.1423041E+03  0.7818608E-02  0.1291780E+00
          2   -1    0    0  502    0  0.00000000000E+00  0.00000000000E+00  0.14061956005E+04  0.14061956005E+04  0.00000000000E+00 0. -1.
          1   -1    0    0  501    0 -0.00000000000E+00 -0.00000000000E+00 -0.35739687999E+04  0.35739687999E+04  0.00000000000E+00 0. -1.
         25    2    1    2    0    0 -0.95771988950E+02  0.14810613645E+03 -0.26644034326E+04  0.26731589832E+04  0.12500238532E+03 0.  0.
          2    1    1    2  501    0  0.54101824455E+02 -0.10077107472E+03 -0.90086064508E+03  0.90809235145E+03  0.00000000000E+00 0. -1.
          1    1    1    2  502    0  0.41670164495E+02 -0.47335061726E+02  0.13974908783E+04  0.13989130658E+04  0.00000000000E+00 0. -1.
         22    1    3    3    0    0 -0.28437215910E+02  0.38253793726E+02 -0.20854903927E+03  0.21392692623E+03  0.00000000000E+00 0. -1.
         22    1    3    3    0    0 -0.67334773040E+02  0.10985234272E+03 -0.24558543933E+04  0.24592320570E+04  0.00000000000E+00 0. -1.
</event>
<event>
 7    1  0.8278507E-006  0.2752003E+02  0.7818608E-02  0.1634153E+00
          2   -1    0    0  502    0  0.00000000000E+00  0.00000000000E+00  0.19048247363E+04  0.19048247363E+04  0.00000000000E+00 0. -1.
          1   -1    0    0  501    0 -0.00000000000E+00 -0.00000000000E+00 -0.40307368492E+03  0.40307368492E+03  0.00000000000E+00 0. -1.
         25    2    1    2    0    0  0.23023097904E+02 -0.35075801275E+02  0.11176510051E+04  0.11254015549E+04  0.12499806225E+03 0.  0.
          2    1    1    2  501    0  0.22860395315E+01  0.27422567440E+02 -0.39850065987E+03  0.39944962023E+03  0.00000000000E+00 0. -1.
          1    1    1    2  502    0 -0.25309137435E+02  0.76532338346E+01  0.78260070611E+03  0.78304724611E+03  0.00000000000E+00 0. -1.
         22    1    3    3    0    0 -0.56305137143E+01  0.45553289732E+02  0.43203929921E+03  0.43447066754E+03  0.00000000000E+00 0. -1.
         22    1    3    3    0    0  0.28653611618E+02 -0.80629091007E+02  0.68561170591E+03  0.69093088733E+03  0.00000000000E+00 0. -1.
</event>
<event>
 7    1  0.8278507E-006  0.1402390E+03  0.7818608E-02  0.1308333E+00
          2   -1    0    0  502    0  0.00000000000E+00  0.00000000000E+00  0.11989799657E+03  0.11989799657E+03  0.00000000000E+00 0. -1.
          1   -1    0    0  501    0 -0.00000000000E+00 -0.00000000000E+00 -0.39766910178E+04  0.39766910178E+04  0.00000000000E+00 0. -1.
         25    2    1    2    0    0  0.62305801124E+02 -0.16357585334E+03 -0.20345952196E+04  0.20459331343E+04  0.12500243907E+03 0.  0.
          2    1    1    2  501    0  0.20349682312E+02  0.51028968038E+02 -0.18932043708E+04  0.18940012816E+04  0.00000000000E+00 0. -1.
          1    1    1    2  502    0 -0.82655483437E+02  0.11254688530E+03  0.71006569213E+02  0.15665459842E+03  0.00000000000E+00 0. -1.
         22    1    3    3    0    0  0.31866708751E+02  0.13759401151E+02 -0.28295910122E+03  0.28508009613E+03  0.00000000000E+00 0.  1.
         22    1    3    3    0    0  0.30439092374E+02 -0.17733525449E+03 -0.17516361184E+04  0.17608530382E+04  0.00000000000E+00 0.  1.
</event>
<event>
 7    1  0.8278507E-006  0.2583355E+03  0.7818608E-02  0.1293494E+00
          2   -1    0    0  502    0  0.00000000000E+00  0.00000000000E+00  0.10699206325E+04  0.10699206325E+04  0.00000000000E+00 0. -1.
          1   -1    0    0  501    0 -0.00000000000E+00 -0.00000000000E+00 -0.14416824535E+04  0.14416824535E+04  0.00000000000E+00 0. -1.
         25    2    1    2    0    0  0.30309482544E+01  0.27921959536E+03 -0.56926947354E+03  0.64627077009E+03  0.12500162274E+03 0.  0.
          2    1    1    2  501    0 -0.25816952623E+02 -0.22411681392E+02 -0.81743828286E+03  0.81815288595E+03  0.00000000000E+00 0. -1.
          1    1    1    2  502    0  0.22786004369E+02 -0.25680791397E+03  0.10149459354E+04  0.10471794300E+04  0.00000000000E+00 0. -1.
         22    1    3    3    0    0  0.24076721195E+02  0.20689865927E+03 -0.50844561461E+03  0.54945762960E+03  0.00000000000E+00 0.  1.
         22    1    3    3    0    0 -0.21045772940E+02  0.72320936093E+02 -0.60823858927E+02  0.96813140486E+02  0.00000000000E+00 0.  1.
</event>
<event>
 7    1  0.8278507E-006  0.3649732E+02  0.7818608E-02  0.1574970E+00
          2   -1    0    0  502    0  0.00000000000E+00  0.00000000000E+00  0.38959938115E+02  0.38959938115E+02  0.00000000000E+00 0. -1.
          1   -1    0    0  501    0 -0.00000000000E+00 -0.00000000000E+00 -0.77736924803E+03  0.77736924803E+03  0.00000000000E+00 0. -1.
         25    2    1    2    0    0  0.19598314123E+02  0.32618563890E+02 -0.20295392169E+03  0.24137924004E+03  0.12500231425E+03 0.  0.
          2    1    1    2  501    0  0.86358228966E+01 -0.35763199247E+02 -0.54403215775E+03  0.54527476792E+03  0.00000000000E+00 0. -1.
          1    1    1    2  502    0 -0.28234137019E+02  0.31446353561E+01  0.85767695290E+01  0.29675178185E+02  0.00000000000E+00 0. -1.
         22    1    3    3    0    0  0.13562522677E+02  0.13485706268E+02 -0.21638982068E+03  0.21723342466E+03  0.00000000000E+00 0.  1.
         22    1    3    3    0    0  0.60357914458E+01  0.19132857623E+02  0.13435898986E+02  0.24145815388E+02  0.00000000000E+00 0.  1.
</event>
<event>
 7    1  0.8278507E-006  0.6415949E+02  0.7818608E-02  0.1386920E+00
          2   -1    0    0  502    0  0.00000000000E+00  0.00000000000E+00  0.25532998659E+03  0.25532998659E+03  0.00000000000E+00 0. -1.
          1   -1    0    0  501    0 -0.00000000000E+00 -0.00000000000E+00 -0.32444713809E+03  0.32444713809E+03  0.00000000000E+00 0. -1.
         25    2    1    2    0    0 -0.71804379794E+02 -0.29105617625E+02 -0.16947195785E+03  0.22438589533E+03  0.12500111836E+03 0.  0.
          2    1    1    2  501    0  0.20900416272E+02  0.63139719752E+02 -0.11426241543E+03  0.13220949735E+03  0.00000000000E+00 0. -1.
          1    1    1    2  502    0  0.50903963522E+02 -0.34034102127E+02  0.21461722178E+03  0.22318173199E+03  0.00000000000E+00 0. -1.
         22    1    3    3    0    0 -0.81904516842E+02 -0.39236121137E+01 -0.38416707140E+02  0.90551576456E+02  0.00000000000E+00 0. -1.
         22    1    3    3    0    0  0.10100137049E+02 -0.25182005511E+02 -0.13105525071E+03  0.13383431888E+03  0.00000000000E+00 0. -1.
</event>
<event>
 7    1  0.8278507E-006  0.1090223E+03  0.7818608E-02  0.1379591E+00
          2   -1    0    0  502    0  0.00000000000E+00  0.00000000000E+00  0.11197884846E+04  0.11197884846E+04  0.00000000000E+00 0. -1.
          1   -1    0    0  501    0 -0.00000000000E+00 -0.00000000000E+00 -0.31888121399E+03  0.31888121399E+03  0.00000000000E+00 0. -1.
         25    2    1    2    0    0  0.11339469021E+03 -0.82425404145E+02  0.31071506398E+03  0.36307288994E+03  0.12500307761E+03 0.  0.
          2    1    1    2  501    0 -0.36687892445E+02  0.10799358991E+02 -0.28791499971E+03  0.29044392689E+03  0.00000000000E+00 0. -1.
          1    1    1    2  502    0 -0.76706797768E+02  0.71626045153E+02  0.77810720633E+03  0.78515288174E+03  0.00000000000E+00 0. -1.
         22    1    3    3    0    0  0.10614982641E+03 -0.10503291646E+03  0.19863764437E+03  0.24850877841E+03  0.00000000000E+00 0.  1.
         22    1    3    3    0    0  0.72448638011E+01  0.22607512314E+02  0.11207741961E+03  0.11456411153E+03  0.00000000000E+00 0.  1.
</event>
<event>
 7    1  0.8278507E-006  0.1553878E+03  0.7818608E-02  0.1314782E+00
          2   -1    0    0  502    0  0.00000000000E+00  0.00000000000E+00  0.23220845092E+04  0.23220845092E+04  0.00000000000E+00 0. -1.
          1   -1    0    0  501    0 -0.00000000000E+00 -0.00000000000E+00 -0.30863774674E+03  0.30863774674E+03  0.00000000000E+00 0. -1.
         25    2    1    2    0    0 -0.98998841483E+02 -0.70628591523E+02  0.66405019967E+03  0.68656902839E+03  0.12500077802E+03 0.  0.
          2    1    1    2  501    0 -0.39751697475E+02 -0.24641401005E+02 -0.29120699970E+03  0.29493882886E+03  0.00000000000E+00 0. -1.
          1    1    1    2  502    0  0.13875053896E+03  0.95269992528E+02  0.16406035625E+04  0.16492143987E+04  0.00000000000E+00 0. -1.
         22    1    3    3    0    0 -0.12229385010E+03 -0.27690692514E+02  0.49072059279E+03  0.50648717695E+03  0.00000000000E+00 0. -1.
         22    1    3    3    0    0  0.23295008613E+02 -0.42937899010E+02  0.17332960688E+03  0.18008185144E+03  0.00000000000E+00 0. -1.
</event>
<event>
 7    1  0.8313211E-006  0.5308974E+02  0.7818608E-02  0.1446786E+00
          2   -1    0    0  502    0  0.00000000000E+00  0.00000000000E+00  0.97877196342E+03  0.97877196342E+03  0.00000000000E+00 0. -1.
          1   -1    0    0  501    0 -0.00000000000E+00 -0.00000000000E+00 -0.11534614545E+04  0.11534614545E+04  0.00000000000E+00 0. -1.
         25    2    1    2    0    0  0.72402209485E+02 -0.58843389184E+02 -0.26184443780E+03  0.30478097381E+03  0.12499723199E+03 0.  0.
          2    1    1    2  501    0 -0.44503562551E+02  0.13781826228E+02 -0.86879060252E+03  0.87003885938E+03  0.00000000000E+00 0. -1.
          1    1    1    2  502    0 -0.27898646934E+02  0.45061562956E+02  0.95594554928E+03  0.95741358469E+03  0.00000000000E+00 0. -1.
         22    1    3    3    0    0  0.69873024776E+02  0.22627447703E+02 -0.14158837601E+03  0.15950394729E+03  0.00000000000E+00 0. -1.
         22    1    3    3    0    0  0.25291847086E+01 -0.81470836887E+02 -0.12025606179E+03  0.14527702652E+03  0.00000000000E+00 0. -1.
</event>
<event>
 7    1  0.8278507E-006  0.1421189E+03  0.7818608E-02  0.1324560E+00
          2   -1    0    0  502    0  0.00000000000E+00  0.00000000000E+00  0.18529570400E+04  0.18529570400E+04  0.00000000000E+00 0. -1.
          1   -1    0    0  501    0 -0.00000000000E+00 -0.00000000000E+00 -0.80989258231E+03  0.80989258231E+03  0.00000000000E+00 0. -1.
         25    2    1    2    0    0 -0.10440474852E+03  0.55336865175E+02  0.13835671761E+03  0.22074812031E+03  0.12499852460E+03 0.  0.
          2    1    1    2  501    0  0.24601628304E+01  0.46792232698E+02 -0.76486770936E+03  0.76630162356E+03  0.00000000000E+00 0. -1.
          1    1    1    2  502    0  0.10194458569E+03 -0.10212909787E+03  0.16695754495E+04  0.16757998785E+04  0.00000000000E+00 0. -1.
         22    1    3    3    0    0 -0.56063920432E+02  0.11580626095E+02 -0.10531787489E+02  0.58208183468E+02  0.00000000000E+00 0. -1.
         22    1    3    3    0    0 -0.48340828087E+02  0.43756239080E+02  0.14888850510E+03  0.16253993685E+03  0.00000000000E+00 0. -1.
</event>
<event>
 7    1  0.8278507E-006  0.1770152E+03  0.7818608E-02  0.1238098E+00
          2   -1    0    0  502    0  0.00000000000E+00  0.00000000000E+00  0.12868776373E+04  0.12868776373E+04  0.00000000000E+00 0. -1.
          1   -1    0    0  501    0 -0.00000000000E+00 -0.00000000000E+00 -0.14213890569E+03  0.14213890569E+03  0.00000000000E+00 0. -1.
         25    2    1    2    0    0  0.12548747175E+03  0.19800323479E+02  0.40247130692E+03  0.44016700023E+03  0.12499870726E+03 0.  0.
          2    1    1    2  501    0  0.82392026277E+02  0.23144635510E+02 -0.93379300238E+02  0.12666417749E+03  0.00000000000E+00 0. -1.
          1    1    1    2  502    0 -0.20787949802E+03 -0.42944958989E+02  0.83564672491E+03  0.86218536525E+03  0.00000000000E+00 0. -1.
         22    1    3    3    0    0  0.72170039308E+02  0.52985755065E+02  0.33998014184E+03  0.35157147447E+03  0.00000000000E+00 0.  1.
         22    1    3    3    0    0  0.53317432437E+02 -0.33185431586E+02  0.62491165087E+02  0.88595525762E+02  0.00000000000E+00 0.  1.
</event>
<event>
 7    1  0.8278507E-006  0.5847406E+02  0.7818608E-02  0.1518576E+00
          2   -1    0    0  502    0  0.00000000000E+00  0.00000000000E+00  0.16377815390E+03  0.16377815390E+03  0.00000000000E+00 0. -1.
          1   -1    0    0  501    0 -0.00000000000E+00 -0.00000000000E+00 -0.63308578766E+03  0.63308578766E+03  0.00000000000E+00 0. -1.
         25    2    1    2    0    0 -0.80691411299E+02 -0.21138752983E+02  0.11712200167E+02  0.15072880921E+03  0.12499619017E+03 0.  0.
          2    1    1    2  501    0  0.55575488835E+02  0.16646027545E+02 -0.56007135577E+03  0.56306806759E+03  0.00000000000E+00 0. -1.
          1    1    1    2  502    0  0.25115922463E+02  0.44927254379E+01  0.79051521835E+02  0.83067064758E+02  0.00000000000E+00 0. -1.
         22    1    3    3    0    0 -0.32095285985E+02 -0.51536457431E+02  0.52591992883E+02  0.80324538856E+02  0.00000000000E+00 0.  1.
         22    1    3    3    0    0 -0.48596125314E+02  0.30397704448E+02 -0.40879792717E+02  0.70404270352E+02  0.00000000000E+00 0.  1.
</event>
<event>
 7    1  0.8278507E-006  0.1089286E+03  0.7818608E-02  0.1389041E+00
          2   -1    0    0  502    0  0.00000000000E+00  0.00000000000E+00  0.35203543549E+03  0.35203543549E+03  0.00000000000E+00 0. -1.
          1   -1    0    0  501    0 -0.00000000000E+00 -0.00000000000E+00 -0.13159429885E+04  0.13159429885E+04  0.00000000000E+00 0. -1.
         25    2    1    2    0    0  0.61002157172E+01  0.12532014970E+03  0.19136478388E+03  0.26074216138E+03  0.12499456652E+03 0.  0.
          2    1    1    2  501    0  0.20945365754E+02 -0.28607318397E+02 -0.12609529951E+04  0.12614513637E+04  0.00000000000E+00 0. -1.
          1    1    1    2  502    0 -0.27045581472E+02 -0.96712831303E+02  0.10568065827E+03  0.14578489890E+03  0.00000000000E+00 0. -1.
         22    1    3    3    0    0  0.50203660495E+02  0.97454887178E+02  0.17419645789E+03  0.20582096225E+03  0.00000000000E+00 0. -1.
         22    1    3    3    0    0 -0.44103444778E+02  0.27865262521E+02  0.17168325995E+02  0.54921199132E+02  0.00000000000E+00 0. -1.
</event>
<event>
 7    1  0.8278507E-006  0.2389307E+03  0.7818608E-02  0.1236667E+00
          2   -1    0    0  502    0  0.00000000000E+00  0.00000000000E+00  0.40707025567E+04  0.40707025567E+04  0.00000000000E+00 0. -1.
          1   -1    0    0  501    0 -0.00000000000E+00 -0.00000000000E+00 -0.71748526716E+03  0.71748526716E+03  0.00000000000E+00 0. -1.
         25    2    1    2    0    0  0.17526904855E+03 -0.13052415993E+03  0.15672137339E+04  0.15873061413E+04  0.12500441022E+03 0.  0.
          2    1    1    2  501    0 -0.10593545609E+02 -0.63457856418E+02 -0.69946721746E+03  0.70241975418E+03  0.00000000000E+00 0. -1.
          1    1    1    2  502    0 -0.16467550294E+03  0.19398201635E+03  0.24854707730E+04  0.24984619284E+04  0.00000000000E+00 0. -1.
         22    1    3    3    0    0  0.16109212370E+03 -0.49474952980E+02  0.98596919697E+03  0.10002668147E+04  0.00000000000E+00 0. -1.
         22    1    3    3    0    0  0.14176924852E+02 -0.81049206948E+02  0.58124453698E+03  0.58703932655E+03  0.00000000000E+00 0. -1.
</event>
<event>
 7    1  0.8278507E-006  0.1152939E+03  0.7818608E-02  0.1283304E+00
          2   -1    0    0  502    0  0.00000000000E+00  0.00000000000E+00  0.87157882542E+03  0.87157882542E+03  0.00000000000E+00 0. -1.
          1   -1    0    0  501    0 -0.00000000000E+00 -0.00000000000E+00 -0.85492906052E+03  0.85492906052E+03  0.00000000000E+00 0. -1.
         25    2    1    2    0    0 -0.68050791137E+02 -0.99584802175E+02  0.69681900491E+02  0.18715885223E+03  0.12499930285E+03 0.  0.
          2    1    1    2  501    0  0.82643156071E+02 -0.16603398204E+02 -0.78931950007E+03  0.79380780877E+03  0.00000000000E+00 0. -1.
          1    1    1    2  502    0 -0.14592364934E+02  0.11618820038E+03  0.73628736447E+03  0.74554122495E+03  0.00000000000E+00 0. -1.
         22    1    3    3    0    0 -0.31844111329E+02 -0.34549108358E+02 -0.35086199216E+02  0.58640682892E+02  0.00000000000E+00 0.  1.
         22    1    3    3    0    0 -0.36206679809E+02 -0.65035693817E+02  0.10476809971E+03  0.12851816933E+03  0.00000000000E+00 0.  1.
</event>
<event>
 7    1  0.8278507E-006  0.2038467E+03  0.7818608E-02  0.1314050E+00
          2   -1    0    0  502    0  0.00000000000E+00  0.00000000000E+00  0.66015541185E+02  0.66015541185E+02  0.00000000000E+00 0. -1.
          1   -1    0    0  501    0 -0.00000000000E+00 -0.00000000000E+00 -0.14713067286E+04  0.14713067286E+04  0.00000000000E+00 0. -1.
         25    2    1    2    0    0  0.91281803128E+02 -0.20774540056E+03 -0.76183978192E+03  0.80468317983E+03  0.12499859017E+03 0.  0.
          2    1    1    2  501    0  0.53841723785E+01  0.35481333300E+02 -0.46516255115E+03  0.46654486743E+03  0.00000000000E+00 0. -1.
          1    1    1    2  502    0 -0.96665975506E+02  0.17226406726E+03 -0.17828885437E+03  0.26609422256E+03  0.00000000000E+00 0. -1.
         22    1    3    3    0    0  0.45918206547E+02 -0.13231588001E+02 -0.26366039298E+03  0.26795589085E+03  0.00000000000E+00 0.  1.
         22    1    3    3    0    0  0.45363596581E+02 -0.19451381256E+03 -0.49817938894E+03  0.53672728898E+03  0.00000000000E+00 0.  1.
</event>
<event>
 7    1  0.8278507E-006  0.2937171E+03  0.7818608E-02  0.1281077E+00
          2   -1    0    0  502    0  0.00000000000E+00  0.00000000000E+00  0.55684202644E+03  0.55684202644E+03  0.00000000000E+00 0. -1.
          1   -1    0    0  501    0 -0.00000000000E+00 -0.00000000000E+00 -0.29656122056E+03  0.29656122056E+03  0.00000000000E+00 0. -1.
         25    2    1    2    0    0  0.16727358875E+03  0.26013709283E+03  0.62396393490E+02  0.33936641983E+03  0.12499798569E+03 0.  0.
          2    1    1    2  501    0 -0.17135763740E+03 -0.22659028310E+03 -0.28158948717E+02  0.28548121249E+03  0.00000000000E+00 0. -1.
          1    1    1    2  502    0  0.40840486492E+01 -0.33546809730E+02  0.22604336111E+03  0.22855561468E+03  0.00000000000E+00 0. -1.
         22    1    3    3    0    0 -0.67566885181E+01  0.74031071893E+02 -0.86720022466E+01  0.74842875869E+02  0.00000000000E+00 0. -1.
         22    1    3    3    0    0  0.17403027727E+03  0.18610602094E+03  0.71068395736E+02  0.26452354396E+03  0.00000000000E+00 0. -1.
</event>
<event>
 7    1  0.8278507E-006  0.6122122E+02  0.7818608E-02  0.1495834E+00
          2   -1    0    0  502    0  0.00000000000E+00  0.00000000000E+00  0.98009115426E+03  0.98009115426E+03  0.00000000000E+00 0. -1.
          1   -1    0    0  501    0 -0.00000000000E+00 -0.00000000000E+00 -0.10557555894E+04  0.10557555894E+04  0.00000000000E+00 0. -1.
         25    2    1    2    0    0  0.15104280992E+02 -0.50774294916E+02 -0.24981178794E+02  0.13803891242E+03  0.12499805486E+03 0.  0.
          2    1    1    2  501    0 -0.26815799740E+02 -0.94974335547E+01 -0.97301696370E+03  0.97343274036E+03  0.00000000000E+00 0. -1.
          1    1    1    2  502    0  0.11711518748E+02  0.60271728470E+02  0.92233370735E+03  0.92437509088E+03  0.00000000000E+00 0. -1.
         22    1    3    3    0    0  0.54962171160E+02  0.47991792166E+01  0.17075127029E+02  0.57753202013E+02  0.00000000000E+00 0.  1.
         22    1    3    3    0    0 -0.39857890168E+02 -0.55573474132E+02 -0.42056305823E+02  0.80285710405E+02  0.00000000000E+00 0.  1.
</event>
<event>
 7    1  0.8278507E-006  0.5651547E+03  0.7818608E-02  0.1257130E+00
          2   -1    0    0  502    0  0.00000000000E+00  0.00000000000E+00  0.60184098682E+03  0.60184098682E+03  0.00000000000E+00 0. -1.
          1   -1    0    0  501    0 -0.00000000000E+00 -0.00000000000E+00 -0.14721330596E+04  0.14721330596E+04  0.00000000000E+00 0. -1.
         25    2    1    2    0    0 -0.58353356328E+03  0.28877175668E+02  0.21397641971E+03  0.63463063127E+03  0.12499927682E+03 0.  0.
          2    1    1    2  501    0  0.56148234046E+03 -0.30940697933E+02 -0.11980327768E+04  0.13234433421E+04  0.00000000000E+00 0. -1.
          1    1    1    2  502    0  0.22051222824E+02  0.20635222643E+01  0.11376428430E+03  0.11590007306E+03  0.00000000000E+00 0. -1.
         22    1    3    3    0    0 -0.37366885890E+03 -0.10903475063E+02  0.79391795536E+02  0.38216535568E+03  0.00000000000E+00 0. -1.
         22    1    3    3    0    0 -0.20986470438E+03  0.39780650732E+02  0.13458462417E+03  0.25246527559E+03  0.00000000000E+00 0. -1.
</event>
<event>
 7    1  0.8278507E-006  0.2249632E+03  0.7818608E-02  0.1312021E+00
          2   -1    0    0  502    0  0.00000000000E+00  0.00000000000E+00  0.29036684834E+04  0.29036684834E+04  0.00000000000E+00 0. -1.
          1   -1    0    0  501    0 -0.00000000000E+00 -0.00000000000E+00 -0.22587337859E+03  0.22587337859E+03  0.00000000000E+00 0. -1.
         25    2    1    2    0    0 -0.20021660932E+03  0.19700322044E+02  0.35298813283E+03  0.42508873767E+03  0.12500007856E+03 0.  0.
          2    1    1    2  501    0  0.22926986518E+03 -0.37988853160E+01 -0.12042248270E+03  0.25899937635E+03  0.00000000000E+00 0. -1.
          1    1    1    2  502    0 -0.29053255864E+02 -0.15901436728E+02  0.24452294546E+04  0.24454537479E+04  0.00000000000E+00 0. -1.
         22    1    3    3    0    0 -0.15721596627E+03 -0.28795490474E+02  0.30534697124E+03  0.34464882586E+03  0.00000000000E+00 0. -1.
         22    1    3    3    0    0 -0.43000643046E+02  0.48495812518E+02  0.47641161591E+02  0.80439911810E+02  0.00000000000E+00 0. -1.
</event>
<event>
 7    1  0.8278507E-006  0.6500873E+02  0.7818608E-02  0.1378283E+00
          2   -1    0    0  502    0  0.00000000000E+00  0.00000000000E+00  0.96429772487E+03  0.96429772487E+03  0.00000000000E+00 0. -1.
          1   -1    0    0  501    0 -0.00000000000E+00 -0.00000000000E+00 -0.52635989382E+03  0.52635989382E+03  0.00000000000E+00 0. -1.
         25    2    1    2    0    0  0.20141461142E+02 -0.32121871016E+01  0.22312351444E+03  0.25656505139E+03  0.12500210517E+03 0.  0.
          2    1    1    2  501    0 -0.17554705678E+01 -0.64985020829E+02 -0.50583240955E+03  0.50999270696E+03  0.00000000000E+00 0. -1.
          1    1    1    2  502    0 -0.18385990575E+02  0.68197207931E+02  0.72064672616E+03  0.72409986034E+03  0.00000000000E+00 0. -1.
         22    1    3    3    0    0  0.58635913568E+02 -0.23160386851E+01  0.20640969291E+03  0.21458913235E+03  0.00000000000E+00 0. -1.
         22    1    3    3    0    0 -0.38494452425E+02 -0.89614841658E+00  0.16713821533E+02  0.41975919046E+02  0.00000000000E+00 0. -1.
</event>
<event>
 7    1  0.8278507E-006  0.1393435E+03  0.7818608E-02  0.1341171E+00
          2   -1    0    0  502    0  0.00000000000E+00  0.00000000000E+00  0.39377756748E+03  0.39377756748E+03  0.00000000000E+00 0. -1.
          1   -1    0    0  501    0 -0.00000000000E+00 -0.00000000000E+00 -0.13822126383E+03  0.13822126383E+03  0.00000000000E+00 0. -1.
         25    2    1    2    0    0  0.87070303814E+02  0.57210407564E+02  0.29603117581E+03  0.33780740584E+03  0.12500047140E+03 0.  0.
          2    1    1    2  501    0 -0.12431188244E+03 -0.75109077776E+02 -0.46348563114E+02  0.15245657409E+03  0.00000000000E+00 0. -1.
          1    1    1    2  502    0  0.37241578626E+02  0.17898670212E+02  0.58736909593E+01  0.41734851377E+02  0.00000000000E+00 0. -1.
         22    1    3    3    0    0  0.68653816155E+01  0.65007882032E+02  0.20996172307E+03  0.21990244052E+03  0.00000000000E+00 0.  1.
         22    1    3    3    0    0  0.80204922199E+02 -0.77974744673E+01  0.86069452733E+02  0.11790496532E+03  0.00000000000E+00 0.  1.
</event>
<event>
 7    1  0.8278507E-006  0.5187370E+02  0.7818608E-02  0.1510549E+00
          2   -1    0    0  502    0  0.00000000000E+00  0.00000000000E+00  0.16060884574E+03  0.16060884574E+03  0.00000000000E+00 0. -1.
          1   -1    0    0  501    0 -0.00000000000E+00 -0.00000000000E+00 -0.54232270057E+03  0.54232270057E+03  0.00000000000E+00 0. -1.
         25    2    1    2    0    0 -0.17514209257E+02  0.22330505951E+02  0.72878107458E+02  0.14744894490E+03  0.12499829513E+03 0.  0.
          2    1    1    2  501    0  0.47839446409E+02 -0.20900470540E+02 -0.49898112484E+03  0.50170469925E+03  0.00000000000E+00 0. -1.
          1    1    1    2  502    0 -0.30325237152E+02 -0.14300354114E+01  0.44389162551E+02  0.53777902168E+02  0.00000000000E+00 0. -1.
         22    1    3    3    0    0  0.19362660691E+02 -0.14810076401E+02 -0.25958159588E+02  0.35610069380E+02  0.00000000000E+00 0. -1.
         22    1    3    3    0    0 -0.36876869948E+02  0.37140582352E+02  0.98836267046E+02  0.11183887552E+03  0.00000000000E+00 0. -1.
</event>
<event>
 7    1  0.8278507E-006  0.1098319E+03  0.7818608E-02  0.1304460E+00
          2   -1    0    0  502    0  0.00000000000E+00  0.00000000000E+00  0.98006316849E+03  0.98006316849E+03  0.00000000000E+00 0. -1.
          1   -1    0    0  501    0 -0.00000000000E+00 -0.00000000000E+00 -0.85122793846E+02  0.85122793846E+02  0.00000000000E+00 0. -1.
         25    2    1    2    0    0 -0.76352770317E+02 -0.14144107966E+02  0.72114817454E+02  0.16387423480E+03  0.12499766641E+03 0.  0.
          2    1    1    2  501    0 -0.23776204817E+02  0.68670646825E+02  0.20955927997E+01  0.72700461897E+02  0.00000000000E+00 0. -1.
          1    1    1    2  502    0  0.10012897513E+03 -0.54526538859E+02  0.82072996439E+03  0.82861126564E+03  0.00000000000E+00 0. -1.
         22    1    3    3    0    0 -0.71072305395E+02  0.19364773311E+02  0.97001979252E+02  0.12180168726E+03  0.00000000000E+00 0.  1.
         22    1    3    3    0    0 -0.52804649223E+01 -0.33508881277E+02 -0.24887161798E+02  0.42072547541E+02  0.00000000000E+00 0.  1.
</event>
<event>
 7    1  0.8278507E-006  0.9072849E+02  0.7818608E-02  0.1377360E+00
          2   -1    0    0  502    0  0.00000000000E+00  0.00000000000E+00  0.18749910936E+03  0.18749910936E+03  0.00000000000E+00 0. -1.
          1   -1    0    0  501    0 -0.00000000000E+00 -0.00000000000E+00 -0.14650896218E+03  0.14650896218E+03  0.00000000000E+00 0. -1.
         25    2    1    2    0    0  0.53647802093E+01  0.84760149031E+02  0.34130677100E+02  0.15493105823E+03  0.12500266379E+03 0.  0.
          2    1    1    2  501    0  0.41426623857E+02 -0.85719469792E+02 -0.48285088903E+02  0.10674943783E+03  0.00000000000E+00 0. -1.
          1    1    1    2  502    0 -0.46791404067E+02  0.95932076101E+00  0.55144558978E+02  0.72327575486E+02  0.00000000000E+00 0. -1.
         22    1    3    3    0    0 -0.42146176475E+02 -0.11539465030E+02  0.81531024274E+01  0.44451462561E+02  0.00000000000E+00 0. -1.
         22    1    3    3    0    0  0.47510956684E+02  0.96299614061E+02  0.25977574673E+02  0.11047959567E+03  0.00000000000E+00 0. -1.
</event>
<event>
 7    1  0.8278507E-006  0.3039268E+02  0.7818608E-02  0.1595772E+00
          2   -1    0    0  502    0  0.00000000000E+00  0.00000000000E+00  0.11554905035E+04  0.11554905035E+04  0.00000000000E+00 0. -1.
          1   -1    0    0  501    0 -0.00000000000E+00 -0.00000000000E+00 -0.21922423176E+04  0.21922423176E+04  0.00000000000E+00 0. -1.
         25    2    1    2    0    0  0.14341785671E+02  0.58562528442E+02  0.35987563699E+02  0.14337296484E+03  0.12500178299E+03 0.  0.
          2    1    1    2  501    0 -0.76661490221E+01 -0.29034742004E+02 -0.21382291983E+04  0.21384400600E+04  0.00000000000E+00 0. -1.
          1    1    1    2  502    0 -0.66756366493E+01 -0.29527786438E+02  0.10654898205E+04  0.10659197961E+04  0.00000000000E+00 0. -1.
         22    1    3    3    0    0  0.23159166727E+02  0.72783082602E+01 -0.42651388721E+02  0.49076081082E+02  0.00000000000E+00 0. -1.
         22    1    3    3    0    0 -0.88173810553E+01  0.51284220182E+02  0.78638952420E+02  0.94296883756E+02  0.00000000000E+00 0. -1.
</event>
<event>
 7    1  0.8278507E-006  0.9297720E+02  0.7818608E-02  0.1434710E+00
          2   -1    0    0  502    0  0.00000000000E+00  0.00000000000E+00  0.11075680884E+04  0.11075680884E+04  0.00000000000E+00 0. -1.
          1   -1    0    0  501    0 -0.00000000000E+00 -0.00000000000E+00 -0.50552631207E+02  0.50552631207E+02  0.00000000000E+00 0. -1.
         25    2    1    2    0    0 -0.13707044692E+02 -0.81114987740E+02  0.17080559286E+03  0.22708522736E+03  0.12500250247E+03 0.  0.
          2    1    1    2  501    0  0.26409425088E+02 -0.12248391517E+02 -0.93164297377E+01  0.30565940053E+02  0.00000000000E+00 0. -1.
          1    1    1    2  502    0 -0.12702380396E+02  0.93363379257E+02  0.89552629403E+03  0.90046955215E+03  0.00000000000E+00 0. -1.
         22    1    3    3    0    0  0.46375484679E+02 -0.67373892417E+02  0.64335387554E+02  0.10406233252E+03  0.00000000000E+00 0. -1.
         22    1    3    3    0    0 -0.60082529370E+02 -0.13741095322E+02  0.10647020531E+03  0.12302289484E+03  0.00000000000E+00 0. -1.
</event>
<event>
 7    1  0.8278507E-006  0.4185357E+02  0.7818608E-02  0.1587577E+00
          2   -1    0    0  502    0  0.00000000000E+00  0.00000000000E+00  0.33231514339E+03  0.33231514339E+03  0.00000000000E+00 0. -1.
          1   -1    0    0  501    0 -0.00000000000E+00 -0.00000000000E+00 -0.14713293521E+04  0.14713293521E+04  0.00000000000E+00 0. -1.
         25    2    1    2    0    0  0.54168885444E+02  0.96281298729E+01 -0.17824188707E+03  0.22455082629E+03  0.12500373692E+03 0.  0.
          2    1    1    2  501    0 -0.35166757848E+02 -0.22445634601E+02 -0.12691649364E+04  0.12698504412E+04  0.00000000000E+00 0. -1.
          1    1    1    2  502    0 -0.19002127597E+02  0.12817504728E+02  0.30839261469E+03  0.30924322802E+03  0.00000000000E+00 0. -1.
         22    1    3    3    0    0  0.63234631532E+02 -0.44691639356E+02 -0.76437368004E+02  0.10880548001E+03  0.00000000000E+00 0.  1.
         22    1    3    3    0    0 -0.90657460877E+01  0.54319769229E+02 -0.10180451907E+03  0.11574534627E+03  0.00000000000E+00 0.  1.
</event>
<event>
 7    1  0.8278507E-006  0.1206475E+03  0.7818608E-02  0.1380618E+00
          2   -1    0    0  502    0  0.00000000000E+00  0.00000000000E+00  0.90787180261E+02  0.90787180261E+02  0.00000000000E+00 0. -1.
          1   -1    0    0  501    0 -0.00000000000E+00 -0.00000000000E+00 -0.77739095357E+03  0.77739095357E+03  0.00000000000E+00 0. -1.
         25    2    1    2    0    0 -0.96458329393E+02  0.30963290242E+02 -0.23159603617E+03  0.28200265687E+03  0.12500335939E+03 0.  0.
          2    1    1    2  501    0  0.12636405697E+03 -0.14225981836E+02 -0.50766460064E+03  0.52334845007E+03  0.00000000000E+00 0. -1.
          1    1    1    2  502    0 -0.29905727573E+02 -0.16737308406E+02  0.52656863498E+02  0.62827026890E+02  0.00000000000E+00 0. -1.
         22    1    3    3    0    0 -0.54178959618E+02  0.78585515594E+02 -0.15883412510E+03  0.18530872139E+03  0.00000000000E+00 0.  1.
         22    1    3    3    0    0 -0.42279369775E+02 -0.47622225352E+02 -0.72761911067E+02  0.96693935478E+02  0.00000000000E+00 0.  1.
</event>
<event>
 7    1  0.8278507E-006  0.8671583E+02  0.7818608E-02  0.1404484E+00
          2   -1    0    0  502    0  0.00000000000E+00  0.00000000000E+00  0.25499182351E+04  0.25499182351E+04  0.00000000000E+00 0. -1.
          1   -1    0    0  501    0 -0.00000000000E+00 -0.00000000000E+00 -0.30152412621E+02  0.30152412621E+02  0.00000000000E+00 0. -1.
         25    2    1    2    0    0  0.73250903055E+02 -0.90755544461E+02  0.10239234449E+04  0.10380975457E+04  0.12500011886E+03 0.  0.
          2    1    1    2  501    0 -0.35090919406E+02  0.17890732548E+02 -0.42593277516E+01  0.39618086889E+02  0.00000000000E+00 0. -1.
          1    1    1    2  502    0 -0.38159983650E+02  0.72864811913E+02  0.15001017054E+04  0.15023550152E+04  0.00000000000E+00 0. -1.
         22    1    3    3    0    0  0.54849564667E+02 -0.10996955267E+03  0.97217157600E+03  0.97990782752E+03  0.00000000000E+00 0. -1.
         22    1    3    3    0    0  0.18401338388E+02  0.19214008209E+02  0.51751868862E+02  0.58189718135E+02  0.00000000000E+00 0. -1.
</event>
<event>
 7    1  0.8278507E-006  0.1066269E+03  0.7818608E-02  0.1345030E+00
          2   -1    0    0  502    0  0.00000000000E+00  0.00000000000E+00  0.68039674511E+03  0.68039674511E+03  0.00000000000E+00 0. -1.
          1   -1    0    0  501    0 -0.00000000000E+00 -0.00000000000E+00 -0.31812238177E+04  0.31812238177E+04  0.00000000000E+00 0. -1.
         25    2    1    2    0    0 -0.65379691384E+02 -0.49479594574E+02  0.15592308487E+03  0.21600804125E+03  0.12499892465E+03 0.  0.
          2    1    1    2  501    0  0.44195036908E+02  0.97221062194E+02 -0.31488942006E+04  0.31507046549E+04  0.00000000000E+00 0. -1.
          1    1    1    2  502    0  0.21184654476E+02 -0.47741467620E+02  0.49214404309E+03  0.49490786665E+03  0.00000000000E+00 0. -1.
         22    1    3    3    0    0  0.57202039929E+01 -0.74037547462E+02  0.76154917360E+02  0.10636658595E+03  0.00000000000E+00 0. -1.
         22    1    3    3    0    0 -0.71099895377E+02  0.24557952888E+02  0.79768167508E+02  0.10964145530E+03  0.00000000000E+00 0. -1.
</event>
<event>
 7    1  0.8278507E-006  0.6588689E+02  0.7818608E-02  0.1424298E+00
          2   -1    0    0  502    0  0.00000000000E+00  0.00000000000E+00  0.17867770903E+04  0.17867770903E+04  0.00000000000E+00 0. -1.
          1   -1    0    0  501    0 -0.00000000000E+00 -0.00000000000E+00 -0.25978329739E+02  0.25978329739E+02  0.00000000000E+00 0. -1.
         25    2    1    2    0    0 -0.76355491122E+02 -0.63133385376E+02  0.59331072322E+03  0.61437684870E+03  0.12500125022E+03 0.  0.
          2    1    1    2  501    0  0.32974786485E+02  0.53407282237E+02  0.50645023982E+02  0.80651055751E+02  0.00000000000E+00 0. -1.
          1    1    1    2  502    0  0.43380704637E+02  0.97261031394E+01  0.11168430134E+04  0.11177275156E+04  0.00000000000E+00 0. -1.
         22    1    3    3    0    0  0.25667588462E+02  0.10778539656E+02  0.18467680523E+03  0.18676328441E+03  0.00000000000E+00 0.  1.
         22    1    3    3    0    0 -0.10202307958E+03 -0.73911925033E+02  0.40863391799E+03  0.42761356428E+03  0.00000000000E+00 0.  1.
</event>
<event>
 7    1  0.8278507E-006  0.1378815E+03  0.7818608E-02  0.1321844E+00
          2   -1    0    0  502    0  0.00000000000E+00  0.00000000000E+00  0.14084297034E+04  0.14084297034E+04  0.00000000000E+00 0. -1.
          1   -1    0    0  501    0 -0.00000000000E+00 -0.00000000000E+00 -0.73331923247E+03  0.73331923247E+03  0.00000000000E+00 0. -1.
         25    2    1    2    0    0 -0.17994264308E+03  0.73192995258E+01  0.11751863726E+03  0.24873346844E+03  0.12499912510E+03 0.  0.
          2    1    1    2  501    0  0.45027003574E+02 -0.20507405212E+02 -0.66303795085E+03  0.66488142476E+03  0.00000000000E+00 0. -1.
          1    1    1    2  502    0  0.13491563950E+03  0.13188105686E+02  0.12206297845E+04  0.12281340427E+04  0.00000000000E+00 0. -1.
         22    1    3    3    0    0 -0.57580208278E+02  0.50195064007E+02  0.86533570663E+02  0.11542566304E+03  0.00000000000E+00 0. -1.
         22    1    3    3    0    0 -0.12236243480E+03 -0.42875764481E+02  0.30985066595E+02  0.13330780540E+03  0.00000000000E+00 0. -1.
</event>
<event>
 7    1  0.8278507E-006  0.3819671E+02  0.7818608E-02  0.1549592E+00
          2   -1    0    0  502    0  0.00000000000E+00  0.00000000000E+00  0.82737410359E+03  0.82737410359E+03  0.00000000000E+00 0. -1.
          1   -1    0    0  501    0 -0.00000000000E+00 -0.00000000000E+00 -0.79872320924E+02  0.79872320924E+02  0.00000000000E+00 0. -1.
         25    2    1    2    0    0  0.41375180901E+02  0.56210771272E+02  0.25066146364E+02  0.14534722133E+03  0.12500378655E+03 0.  0.
          2    1    1    2  501    0 -0.18469857276E+02 -0.25968527060E+02 -0.60417900306E+01  0.32434599616E+02  0.00000000000E+00 0. -1.
          1    1    1    2  502    0 -0.22905323625E+02 -0.30242244211E+02  0.72847742633E+03  0.72946460357E+03  0.00000000000E+00 0. -1.
         22    1    3    3    0    0 -0.14215638219E+02  0.69396192248E+02 -0.18831075681E+02  0.73297512098E+02  0.00000000000E+00 0.  1.
         22    1    3    3    0    0  0.55590819120E+02 -0.13185420976E+02  0.43897222045E+02  0.72049709229E+02  0.00000000000E+00 0.  1.
</event>
<event>
 7    1  0.8278507E-006  0.7734017E+02  0.7818608E-02  0.1434651E+00
          2   -1    0    0  502    0  0.00000000000E+00  0.00000000000E+00  0.27125640348E+04  0.27125640348E+04  0.00000000000E+00 0. -1.
          1   -1    0    0  501    0 -0.00000000000E+00 -0.00000000000E+00 -0.36554048143E+03  0.36554048143E+03  0.00000000000E+00 0. -1.
         25    2    1    2    0    0 -0.91343672410E+02 -0.11170536381E+02 -0.85607962445E+02  0.17726199433E+03  0.12499857610E+03 0.  0.
          2    1    1    2  501    0  0.16581949964E+02  0.30837420767E+02 -0.23223270040E+03  0.23485726456E+03  0.00000000000E+00 0. -1.
          1    1    1    2  502    0  0.74761722445E+02 -0.19666884387E+02  0.26648642162E+04  0.26659852573E+04  0.00000000000E+00 0. -1.
         22    1    3    3    0    0 -0.10883319189E+03 -0.40419961157E+02 -0.83712021534E+02  0.14312979936E+03  0.00000000000E+00 0.  1.
         22    1    3    3    0    0  0.17489519479E+02  0.29249424777E+02 -0.18959409102E+01  0.34132194967E+02  0.00000000000E+00 0.  1.
</event>
<event>
 7    1  0.8278507E-006  0.9684201E+02  0.7818608E-02  0.1370318E+00
          2   -1    0    0  502    0  0.00000000000E+00  0.00000000000E+00  0.16668840800E+04  0.16668840800E+04  0.00000000000E+00 0. -1.
          1   -1    0    0  501    0 -0.00000000000E+00 -0.00000000000E+00 -0.26102207447E+03  0.26102207447E+03  0.00000000000E+00 0. -1.
         25    2    1    2    0    0 -0.57985995395E+02  0.25736189457E+02  0.21965799581E+03  0.26057520893E+03  0.12500030910E+03 0.  0.
          2    1    1    2  501    0  0.98399144815E+02 -0.28101940070E+01 -0.23009612191E+03  0.25026888382E+03  0.00000000000E+00 0. -1.
          1    1    1    2  502    0 -0.40413149420E+02 -0.22925995450E+02  0.14163001316E+04  0.14170620617E+04  0.00000000000E+00 0. -1.
         22    1    3    3    0    0  0.29255162895E+02  0.42247035471E+02  0.80843009950E+02  0.95792843260E+02  0.00000000000E+00 0. -1.
         22    1    3    3    0    0 -0.87241158289E+02 -0.16510846015E+02  0.13881498586E+03  0.16478236567E+03  0.00000000000E+00 0. -1.
</event>
<event>
 7    1  0.8278507E-006  0.6562966E+02  0.7818608E-02  0.1384338E+00
          2   -1    0    0  502    0  0.00000000000E+00  0.00000000000E+00  0.13367742717E+04  0.13367742717E+04  0.00000000000E+00 0. -1.
          1   -1    0    0  501    0 -0.00000000000E+00 -0.00000000000E+00 -0.21765415206E+03  0.21765415206E+03  0.00000000000E+00 0. -1.
         25    2    1    2    0    0 -0.89213418728E+02  0.67293056489E+02  0.14064535048E+03  0.21884814297E+03  0.12500402208E+03 0.  0.
          2    1    1    2  501    0  0.63382369599E+02 -0.11894410851E+02 -0.17189184471E+03  0.18359087141E+03  0.00000000000E+00 0. -1.
          1    1    1    2  502    0  0.25831049129E+02 -0.55398645638E+02  0.11503666138E+04  0.11519894093E+04  0.00000000000E+00 0. -1.
         22    1    3    3    0    0 -0.10403470210E+03  0.78737176175E+02  0.14925202311E+03  0.19823957364E+03  0.00000000000E+00 0. -1.
         22    1    3    3    0    0  0.14821283374E+02 -0.11444119686E+02 -0.86066726257E+01  0.20608569332E+02  0.00000000000E+00 0. -1.
</event>
<event>
 7    1  0.8278507E-006  0.1056168E+03  0.7818608E-02  0.1376104E+00
          2   -1    0    0  502    0  0.00000000000E+00  0.00000000000E+00  0.32290210522E+03  0.32290210522E+03  0.00000000000E+00 0. -1.
          1   -1    0    0  501    0 -0.00000000000E+00 -0.00000000000E+00 -0.71837960496E+03  0.71837960496E+03  0.00000000000E+00 0. -1.
         25    2    1    2    0    0 -0.55467839403E+02 -0.94466536144E+02 -0.25731614562E+03  0.30632836045E+03  0.12499943183E+03 0.  0.
          2    1    1    2  501    0  0.16222682378E+02  0.10494355614E+03 -0.42866582667E+03  0.44162282137E+03  0.00000000000E+00 0. -1.
          1    1    1    2  502    0  0.39245157025E+02 -0.10477019991E+02  0.29050447255E+03  0.29333052837E+03  0.00000000000E+00 0. -1.
         22    1    3    3    0    0 -0.11561519602E+02 -0.95948614696E+02 -0.24067025299E+03  0.25934913933E+03  0.00000000000E+00 0. -1.
         22    1    3    3    0    0 -0.43906319801E+02  0.14820785513E+01 -0.16645892634E+02  0.46979221118E+02  0.00000000000E+00 0. -1.
</event>
<event>
 7    1  0.8278507E-006  0.5352471E+02  0.7818608E-02  0.1542277E+00
          2   -1    0    0  502    0  0.00000000000E+00  0.00000000000E+00  0.79158005860E+03  0.79158005860E+03  0.00000000000E+00 0. -1.
          1   -1    0    0  501    0 -0.00000000000E+00 -0.00000000000E+00 -0.54087140039E+02  0.54087140039E+02  0.00000000000E+00 0. -1.
         25    2    1    2    0    0 -0.32961413917E+02  0.12775382398E+02  0.45103494031E+03  0.46936894939E+03  0.12500011227E+03 0.  0.
          2    1    1    2  501    0 -0.23637032361E+02  0.31138308239E+01 -0.38925782467E+02  0.45646706145E+02  0.00000000000E+00 0. -1.
          1    1    1    2  502    0  0.56598446278E+02 -0.15889213221E+02  0.32538376072E+03  0.33065154310E+03  0.00000000000E+00 0. -1.
         22    1    3    3    0    0 -0.80213472154E+02  0.12713263412E+01  0.25107888268E+03  0.26358380587E+03  0.00000000000E+00 0. -1.
         22    1    3    3    0    0  0.47252058238E+02  0.11504056056E+02  0.19995605763E+03  0.20578514352E+03  0.00000000000E+00 0. -1.
</event>
<event>
 7    1  0.8278507E-006  0.2862751E+03  0.7818608E-02  0.1146603E+00
          2   -1    0    0  502    0  0.00000000000E+00  0.00000000000E+00  0.20644706966E+04  0.20644706966E+04  0.00000000000E+00 0. -1.
          1   -1    0    0  501    0 -0.00000000000E+00 -0.00000000000E+00 -0.21796452849E+04  0.21796452849E+04  0.00000000000E+00 0. -1.
         25    2    1    2    0    0  0.20551627322E+03  0.30046042253E+03 -0.13439753149E+03  0.40767742682E+03  0.12499913520E+03 0.  0.
          2    1    1    2  501    0 -0.23359235856E+03 -0.15817158845E+03 -0.18954259222E+04  0.19163045342E+04  0.00000000000E+00 0. -1.
          1    1    1    2  502    0  0.28076085338E+02 -0.14228883409E+03  0.19146488654E+04  0.19201340205E+04  0.00000000000E+00 0. -1.
         22    1    3    3    0    0  0.52330149086E+02  0.18544899348E+03 -0.55641147781E+02  0.20056348374E+03  0.00000000000E+00 0. -1.
         22    1    3    3    0    0  0.15318612414E+03  0.11501142905E+03 -0.78756383712E+02  0.20711394308E+03  0.00000000000E+00 0. -1.
</event>
<event>
 7    1  0.8278507E-006  0.3416219E+02  0.7818608E-02  0.1589157E+00
          2   -1    0    0  502    0  0.00000000000E+00  0.00000000000E+00  0.93362682929E+03  0.93362682929E+03  0.00000000000E+00 0. -1.
          1   -1    0    0  501    0 -0.00000000000E+00 -0.00000000000E+00 -0.18609869434E+03  0.18609869434E+03  0.00000000000E+00 0. -1.
         25    2    1    2    0    0  0.99195092918E+01  0.19055605460E+01  0.71140428398E+02  0.14418343094E+03  0.12500349346E+03 0.  0.
          2    1    1    2  501    0  0.19426307761E+02 -0.19902490233E+02 -0.14792203043E+03  0.15051384533E+03  0.00000000000E+00 0. -1.
          1    1    1    2  502    0 -0.29345817053E+02  0.17996929687E+02  0.82430973698E+03  0.82502824736E+03  0.00000000000E+00 0. -1.
         22    1    3    3    0    0 -0.51011248810E+02  0.28291630978E+02  0.25808682228E+02  0.63785985662E+02  0.00000000000E+00 0.  1.
         22    1    3    3    0    0  0.60930758102E+02 -0.26386070432E+02  0.45331746170E+02  0.80397445274E+02  0.00000000000E+00 0.  1.
</event>
<event>
 7    1  0.8278507E-006  0.1124115E+03  0.7818608E-02  0.1378504E+00
          2   -1    0    0  502    0  0.00000000000E+00  0.00000000000E+00  0.10642895745E+04  0.10642895745E+04  0.00000000000E+00 0. -1.
          1   -1    0    0  501    0 -0.00000000000E+00 -0.00000000000E+00 -0.39766807522E+03  0.39766807522E+03  0.00000000000E+00 0. -1.
         25    2    1    2    0    0 -0.98907850867E+02 -0.54677803444E+02 -0.25849795494E+03  0.30857530260E+03  0.12500039804E+03 0.  0.
          2    1    1    2  501    0  0.23706070146E+02 -0.28955238828E+02 -0.10792741331E+03  0.11423095098E+03  0.00000000000E+00 0. -1.
          1    1    1    2  502    0  0.75201780721E+02  0.83633042272E+02  0.10330468676E+04  0.10391513962E+04  0.00000000000E+00 0. -1.
         22    1    3    3    0    0 -0.11883880287E+03 -0.66939977064E+02 -0.24777238184E+03  0.28283347539E+03  0.00000000000E+00 0. -1.
         22    1    3    3    0    0  0.19930952003E+02  0.12262173620E+02 -0.10725573103E+02  0.25741827208E+02  0.00000000000E+00 0. -1.
</event>
<event>
 7    1  0.8278507E-006  0.4918250E+02  0.7818608E-02  0.1468285E+00
          2   -1    0    0  502    0  0.00000000000E+00  0.00000000000E+00  0.36072502599E+03  0.36072502599E+03  0.00000000000E+00 0. -1.
          1   -1    0    0  501    0 -0.00000000000E+00 -0.00000000000E+00 -0.21163190138E+04  0.21163190138E+04  0.00000000000E+00 0. -1.
         25    2    1    2    0    0  0.75280277324E+02 -0.49485945112E+02 -0.27622750479E+02  0.15654145064E+03  0.12500492194E+03 0.  0.
          2    1    1    2  501    0 -0.45310910102E+02  0.18656938857E+02 -0.20223786594E+04  0.20229722197E+04  0.00000000000E+00 0. -1.
          1    1    1    2  502    0 -0.29969367222E+02  0.30829006256E+02  0.29440742202E+03  0.29753036944E+03  0.00000000000E+00 0. -1.
         22    1    3    3    0    0 -0.13495822014E+02 -0.38693182884E+02  0.29439387283E+02  0.50457676692E+02  0.00000000000E+00 0.  1.
         22    1    3    3    0    0  0.88776099338E+02 -0.10792762228E+02 -0.57062137761E+02  0.10608377395E+03  0.00000000000E+00 0.  1.
</event>
<event>
 7    1  0.8278507E-006  0.6731105E+02  0.7818608E-02  0.1410825E+00
          2   -1    0    0  502    0  0.00000000000E+00  0.00000000000E+00  0.10750168256E+04  0.10750168256E+04  0.00000000000E+00 0. -1.
          1   -1    0    0  501    0 -0.00000000000E+00 -0.00000000000E+00 -0.94824051186E+03  0.94824051186E+03  0.00000000000E+00 0. -1.
         25    2    1    2    0    0  0.89520568947E+02  0.20004686957E+01  0.82609369000E+03  0.84028143590E+03  0.12499669079E+03 0.  0.
          2    1    1    2  501    0 -0.38750499276E+02  0.28807973383E+02 -0.93686958244E+03  0.93811306090E+03  0.00000000000E+00 0. -1.
          1    1    1    2  502    0 -0.50770069671E+02 -0.30808442079E+02  0.23755220616E+03  0.24486284064E+03  0.00000000000E+00 0. -1.
         22    1    3    3    0    0 -0.86418713159E+01 -0.44354076963E+02  0.24815399432E+03  0.25223475371E+03  0.00000000000E+00 0. -1.
         22    1    3    3    0    0  0.98162440263E+02  0.46354545659E+02  0.57793969569E+03  0.58804668219E+03  0.00000000000E+00 0. -1.
</event>
<event>
 7    1  0.8278507E-006  0.9835164E+02  0.7818608E-02  0.1326202E+00
          2   -1    0    0  502    0  0.00000000000E+00  0.00000000000E+00  0.26182514590E+04  0.26182514590E+04  0.00000000000E+00 0. -1.
          1   -1    0    0  501    0 -0.00000000000E+00 -0.00000000000E+00 -0.34703824578E+02  0.34703824578E+02  0.00000000000E+00 0. -1.
         25    2    1    2    0    0 -0.14971365522E+02  0.63933780175E+02  0.43472391136E+03  0.45707913705E+03  0.12499915356E+03 0.  0.
          2    1    1    2  501    0  0.80541919920E+02 -0.76322897663E+02  0.11096406102E+03  0.15692421231E+03  0.00000000000E+00 0. -1.
          1    1    1    2  502    0 -0.65570554398E+02  0.12389117488E+02  0.20378596620E+04  0.20389519342E+04  0.00000000000E+00 0. -1.
         22    1    3    3    0    0 -0.86745000097E+01  0.49676818968E+02  0.46663930035E+02  0.68706299999E+02  0.00000000000E+00 0. -1.
         22    1    3    3    0    0 -0.62968655121E+01  0.14256961207E+02  0.38805998132E+03  0.38837283705E+03  0.00000000000E+00 0. -1.
</event>
<event>
 7    1  0.8278507E-006  0.3955899E+02  0.7818608E-02  0.1522711E+00
          2   -1    0    0  502    0  0.00000000000E+00  0.00000000000E+00  0.25435716395E+03  0.25435716395E+03  0.00000000000E+00 0. -1.
          1   -1    0    0  501    0 -0.00000000000E+00 -0.00000000000E+00 -0.30072793645E+03  0.30072793645E+03  0.00000000000E+00 0. -1.
         25    2    1    2    0    0  0.39508643951E+02  0.60144021793E+02  0.20267245621E+02  0.14564929118E+03  0.12499887389E+03 0.  0.
          2    1    1    2  501    0 -0.10083588409E+02 -0.35273601811E+02 -0.23442702567E+03  0.23728029017E+03  0.00000000000E+00 0. -1.
          1    1    1    2  502    0 -0.29425055542E+02 -0.24870419981E+02  0.16778900755E+03  0.17215551904E+03  0.00000000000E+00 0. -1.
         22    1    3    3    0    0  0.70016340355E+02  0.34530684372E+01  0.36811677898E+02  0.79178982237E+02  0.00000000000E+00 0.  1.
         22    1    3    3    0    0 -0.30507696404E+02  0.56690953355E+02 -0.16544432278E+02  0.66470308948E+02  0.00000000000E+00 0.  1.
</event>
<event>
 7    1  0.8278507E-006  0.2204957E+03  0.7818608E-02  0.1211537E+00
          2   -1    0    0  502    0  0.00000000000E+00  0.00000000000E+00  0.18389802583E+03  0.18389802583E+03  0.00000000000E+00 0. -1.
          1   -1    0    0  501    0 -0.00000000000E+00 -0.00000000000E+00 -0.12466073034E+04  0.12466073034E+04  0.00000000000E+00 0. -1.
         25    2    1    2    0    0  0.88483034180E+02 -0.15082172213E+03 -0.11842255844E+03  0.24540895802E+03  0.12500086050E+03 0.  0.
          2    1    1    2  501    0 -0.42943234148E+00 -0.90599960643E+02 -0.92278284392E+03  0.92721988456E+03  0.00000000000E+00 0. -1.
          1    1    1    2  502    0 -0.88053601838E+02  0.24142168277E+03 -0.21503875189E+02  0.25787648663E+03  0.00000000000E+00 0. -1.
         22    1    3    3    0    0 -0.83563086773E+01 -0.95797314196E+02 -0.23314473808E+02  0.98947046397E+02  0.00000000000E+00 0.  1.
         22    1    3    3    0    0  0.96839342857E+02 -0.55024407932E+02 -0.95108084632E+02  0.14646191162E+03  0.00000000000E+00 0.  1.
</event>
<event>
 7    1  0.8278507E-006  0.7808122E+02  0.7818608E-02  0.1382007E+00
          2   -1    0    0  502    0  0.00000000000E+00  0.00000000000E+00  0.26491934127E+04  0.26491934127E+04  0.00000000000E+00 0. -1.
          1   -1    0    0  501    0 -0.00000000000E+00 -0.00000000000E+00 -0.16037680295E+04  0.16037680295E+04  0.00000000000E+00 0. -1.
         25    2    1    2    0    0  0.37378948606E+02 -0.91616013092E+02  0.78764607699E+01  0.15961534591E+03  0.12499736141E+03 0.  0.
          2    1    1    2  501    0  0.12879253061E+02  0.76935634328E+02 -0.15266355194E+04  0.15286271541E+04  0.00000000000E+00 0. -1.
          1    1    1    2  502    0 -0.50258201666E+02  0.14680378764E+02  0.25641844419E+04  0.25647189422E+04  0.00000000000E+00 0. -1.
         22    1    3    3    0    0  0.80222660316E+02 -0.48322223346E+02 -0.14415357813E+02  0.94755026454E+02  0.00000000000E+00 0. -1.
         22    1    3    3    0    0 -0.42843711711E+02 -0.43293789745E+02  0.22291818583E+02  0.64860319452E+02  0.00000000000E+00 0. -1.
</event>
<event>
 7    1  0.8278507E-006  0.2525891E+02  0.7818608E-02  0.1693713E+00
          2   -1    0    0  502    0  0.00000000000E+00  0.00000000000E+00  0.47310704074E+03  0.47310704074E+03  0.00000000000E+00 0. -1.
          1   -1    0    0  501    0 -0.00000000000E+00 -0.00000000000E+00 -0.54464683151E+02  0.54464683151E+02  0.00000000000E+00 0. -1.
         25    2    1    2    0    0  0.24905095214E+02 -0.16646387506E+02  0.22326732643E+03  0.25762466103E+03  0.12499920374E+03 0.  0.
          2    1    1    2  501    0 -0.58136820794E+01  0.24640113760E+02 -0.32464765393E+02  0.41169103676E+02  0.00000000000E+00 0. -1.
          1    1    1    2  502    0 -0.19091413134E+02 -0.79937262536E+01  0.22783979655E+03  0.22877795918E+03  0.00000000000E+00 0. -1.
         22    1    3    3    0    0  0.51330621634E+01  0.67394230415E+00 -0.16051959353E+02  0.16866176937E+02  0.00000000000E+00 0. -1.
         22    1    3    3    0    0  0.19772033050E+02 -0.17320329810E+02  0.23931928579E+03  0.24075848410E+03  0.00000000000E+00 0. -1.
</event>
<event>
 7    1  0.8278507E-006  0.2581165E+03  0.7818608E-02  0.1336790E+00
          2   -1    0    0  502    0  0.00000000000E+00  0.00000000000E+00  0.11668886420E+04  0.11668886420E+04  0.00000000000E+00 0. -1.
          1   -1    0    0  501    0 -0.00000000000E+00 -0.00000000000E+00 -0.25711707771E+03  0.25711707771E+03  0.00000000000E+00 0. -1.
         25    2    1    2    0    0 -0.20415656525E+03 -0.12060628896E+03 -0.62851396630E+02  0.27532513392E+03  0.12501140442E+03 0.  0.
          2    1    1    2  501    0 -0.21342218037E+02 -0.90206458021E+01 -0.70192014679E+02  0.73917394747E+02  0.00000000000E+00 0. -1.
          1    1    1    2  502    0  0.22549878329E+03  0.12962693476E+03  0.10428149756E+04  0.10747631911E+04  0.00000000000E+00 0. -1.
         22    1    3    3    0    0 -0.40766316079E+02  0.73453213781E+01  0.26718774680E+02  0.49292384738E+02  0.00000000000E+00 0.  1.
         22    1    3    3    0    0 -0.16339024917E+03 -0.12795161034E+03 -0.89570171310E+02  0.22603274918E+03  0.00000000000E+00 0.  1.
</event>
<event>
 7    1  0.8278507E-006  0.5687607E+02  0.7818608E-02  0.1425020E+00
          2   -1    0    0  502    0  0.00000000000E+00  0.00000000000E+00  0.35273471933E+04  0.35273471933E+04  0.00000000000E+00 0. -1.
          1   -1    0    0  501    0 -0.00000000000E+00 -0.00000000000E+00 -0.27510197847E+02  0.27510197847E+02  0.00000000000E+00 0. -1.
         25    2    1    2    0    0 -0.10182535755E+03 -0.18058102873E+02  0.10372213435E+04  0.10498322446E+04  0.12500051189E+03 0.  0.
          2    1    1    2  501    0  0.51151293240E+02 -0.26058080053E+01  0.10479895662E+02  0.52278803053E+02  0.00000000000E+00 0. -1.
          1    1    1    2  502    0  0.50674064310E+02  0.20663910878E+02  0.24521357563E+04  0.24527463435E+04  0.00000000000E+00 0. -1.
         22    1    3    3    0    0  0.18496984199E+02  0.21668332795E+02  0.96564212093E+02  0.10067920405E+03  0.00000000000E+00 0.  1.
         22    1    3    3    0    0 -0.12032234175E+03 -0.39726435668E+02  0.94065713140E+03  0.94915304060E+03  0.00000000000E+00 0.  1.
</event>
<event>
 7    1  0.8278507E-006  0.7799930E+02  0.7818608E-02  0.1447136E+00
          2   -1    0    0  502    0  0.00000000000E+00  0.00000000000E+00  0.16244166860E+03  0.16244166860E+03  0.00000000000E+00 0. -1.
          1   -1    0    0  501    0 -0.00000000000E+00 -0.00000000000E+00 -0.20976452327E+03  0.20976452327E+03  0.00000000000E+00 0. -1.
         25    2    1    2    0    0 -0.39858151214E+02 -0.83380976853E+02  0.34806510231E+01  0.15549369998E+03  0.12500046513E+03 0.  0.
          2    1    1    2  501    0 -0.12560319206E+02  0.29027455428E+02 -0.11396203565E+03  0.11826960876E+03  0.00000000000E+00 0. -1.
          1    1    1    2  502    0  0.52418470420E+02  0.54353521425E+02  0.63158529954E+02  0.98442883127E+02  0.00000000000E+00 0. -1.
         22    1    3    3    0    0 -0.45963469602E+02 -0.94952276088E+02 -0.37900326516E+02  0.11209375550E+03  0.00000000000E+00 0.  1.
         22    1    3    3    0    0  0.61053183880E+01  0.11571299235E+02  0.41380977539E+02  0.43399944478E+02  0.00000000000E+00 0.  1.
</event>
<event>
 7    1  0.8278507E-006  0.2391537E+03  0.7818608E-02  0.1316632E+00
          2   -1    0    0  502    0  0.00000000000E+00  0.00000000000E+00  0.15326416801E+04  0.15326416801E+04  0.00000000000E+00 0. -1.
          1   -1    0    0  501    0 -0.00000000000E+00 -0.00000000000E+00 -0.17883724310E+04  0.17883724310E+04  0.00000000000E+00 0. -1.
         25    2    1    2    0    0 -0.20608109432E+03 -0.89868110758E+02 -0.13970694964E+03  0.29272686661E+03  0.12500116756E+03 0.  0.
          2    1    1    2  501    0 -0.23077528736E+02  0.18990555068E+02 -0.15621331676E+04  0.15624190369E+04  0.00000000000E+00 0. -1.
          1    1    1    2  502    0  0.22915862306E+03  0.70877555689E+02  0.14461093664E+04  0.14658682076E+04  0.00000000000E+00 0. -1.
         22    1    3    3    0    0 -0.21328215469E+03 -0.92191936744E+02 -0.15245311225E+03  0.27790390811E+03  0.00000000000E+00 0.  1.
         22    1    3    3    0    0  0.72010603639E+01  0.23238259861E+01  0.12746162607E+02  0.14822958503E+02  0.00000000000E+00 0.  1.
</event>
<event>
 7    1  0.8278507E-006  0.6360956E+02  0.7818608E-02  0.1384876E+00
          2   -1    0    0  502    0  0.00000000000E+00  0.00000000000E+00  0.61334105322E+03  0.61334105322E+03  0.00000000000E+00 0. -1.
          1   -1    0    0  501    0 -0.00000000000E+00 -0.00000000000E+00 -0.16989132123E+03  0.16989132123E+03  0.00000000000E+00 0. -1.
         25    2    1    2    0    0 -0.13509138154E+02 -0.34578875299E+01  0.21249160823E+02  0.12756524573E+03  0.12500764489E+03 0.  0.
          2    1    1    2  501    0 -0.22528041655E+02  0.58611258158E+02 -0.10609247946E+03  0.12328181716E+03  0.00000000000E+00 0. -1.
          1    1    1    2  502    0  0.36037179809E+02 -0.55153370628E+02  0.52829305063E+03  0.53238531156E+03  0.00000000000E+00 0. -1.
         22    1    3    3    0    0  0.82091034732E+01  0.58428732691E+02  0.18827555959E+02  0.61933698801E+02  0.00000000000E+00 0. -1.
         22    1    3    3    0    0 -0.21718241627E+02 -0.61886620221E+02  0.24216048634E+01  0.65631546926E+02  0.00000000000E+00 0. -1.
</event>
<event>
 7    1  0.8278507E-006  0.1076975E+03  0.7818608E-02  0.1344162E+00
          2   -1    0    0  502    0  0.00000000000E+00  0.00000000000E+00  0.33959611620E+04  0.33959611620E+04  0.00000000000E+00 0. -1.
          1   -1    0    0  501    0 -0.00000000000E+00 -0.00000000000E+00 -0.27782112299E+03  0.27782112299E+03  0.00000000000E+00 0. -1.
         25    2    1    2    0    0  0.64199870013E+02 -0.11313144732E+03 -0.68844531953E+02  0.19309133374E+03  0.12499738358E+03 0.  0.
          2    1    1    2  501    0 -0.51724002571E+02  0.62405207539E+01 -0.14133518288E+03  0.15063183747E+03  0.00000000000E+00 0. -1.
          1    1    1    2  502    0 -0.12475867442E+02  0.10689092656E+03  0.33283197539E+04  0.33300591138E+04  0.00000000000E+00 0. -1.
         22    1    3    3    0    0  0.14498553765E+02 -0.64482583454E+01  0.33535640880E+02  0.37100233236E+02  0.00000000000E+00 0.  1.
         22    1    3    3    0    0  0.49701316248E+02 -0.10668318897E+03 -0.10238017283E+03  0.15599110050E+03  0.00000000000E+00 0.  1.
</event>
<event>
 7    1  0.8278507E-006  0.8854609E+02  0.7818608E-02  0.1354906E+00
          2   -1    0    0  502    0  0.00000000000E+00  0.00000000000E+00  0.84590307914E+02  0.84590307914E+02  0.00000000000E+00 0. -1.
          1   -1    0    0  501    0 -0.00000000000E+00 -0.00000000000E+00 -0.69520785004E+03  0.69520785004E+03  0.00000000000E+00 0. -1.
         25    2    1    2    0    0  0.52878675783E+02 -0.43001437905E+01 -0.10914440187E+03  0.17421781583E+03  0.12499880522E+03 0.  0.
          2    1    1    2  501    0  0.38650336580E+02 -0.42994464012E+02 -0.49919255684E+03  0.50252918448E+03  0.00000000000E+00 0. -1.
          1    1    1    2  502    0 -0.91529012363E+02  0.47294607802E+02 -0.22805834254E+01  0.10305115765E+03  0.00000000000E+00 0. -1.
         22    1    3    3    0    0  0.60167368096E+02  0.51490345264E+02 -0.57736362481E+02  0.98004364145E+02  0.00000000000E+00 0. -1.
         22    1    3    3    0    0 -0.72886923127E+01 -0.55790489054E+02 -0.51408039388E+02  0.76213451688E+02  0.00000000000E+00 0. -1.
</event>
<event>
 7    1  0.8278507E-006  0.1082830E+03  0.7818608E-02  0.1358094E+00
          2   -1    0    0  502    0  0.00000000000E+00  0.00000000000E+00  0.35396329279E+03  0.35396329279E+03  0.00000000000E+00 0. -1.
          1   -1    0    0  501    0 -0.00000000000E+00 -0.00000000000E+00 -0.74414501657E+03  0.74414501657E+03  0.00000000000E+00 0. -1.
         25    2    1    2    0    0  0.14151103838E+02 -0.94264081913E+02 -0.45314828166E+03  0.47963354079E+03  0.12497598732E+03 0.  0.
          2    1    1    2  501    0  0.45874092310E+02  0.36528846929E+01 -0.26706785811E+03  0.27100372091E+03  0.00000000000E+00 0. -1.
          1    1    1    2  502    0 -0.60025196148E+02  0.90611197220E+02  0.33003441598E+03  0.34747104767E+03  0.00000000000E+00 0. -1.
         22    1    3    3    0    0  0.27780931368E+02 -0.64622515078E+02 -0.86290360049E+02  0.11132778557E+03  0.00000000000E+00 0.  1.
         22    1    3    3    0    0 -0.13629827530E+02 -0.29641566835E+02 -0.36685792161E+03  0.36830575522E+03  0.00000000000E+00 0.  1.
</event>
<event>
 7    1  0.8278507E-006  0.3740106E+02  0.7818608E-02  0.1533083E+00
          2   -1    0    0  502    0  0.00000000000E+00  0.00000000000E+00  0.25819857601E+04  0.25819857601E+04  0.00000000000E+00 0. -1.
          1   -1    0    0  501    0 -0.00000000000E+00 -0.00000000000E+00 -0.65202441747E+02  0.65202441747E+02  0.00000000000E+00 0. -1.
         25    2    1    2    0    0 -0.47609260833E+01 -0.46064166092E+02  0.24989093061E+03  0.28322377146E+03  0.12500261480E+03 0.  0.
          2    1    1    2  501    0 -0.26224708527E+02  0.24997785149E+02 -0.41601666208E+02  0.55166323341E+02  0.00000000000E+00 0. -1.
          1    1    1    2  502    0  0.30985634610E+02  0.21066380943E+02  0.23084940539E+04  0.23087981070E+04  0.00000000000E+00 0. -1.
         22    1    3    3    0    0 -0.42385093971E+02 -0.22533032441E+02  0.25243675363E+02  0.54235384094E+02  0.00000000000E+00 0.  1.
         22    1    3    3    0    0  0.37624167888E+02 -0.23531133650E+02  0.22464725525E+03  0.22898838737E+03  0.00000000000E+00 0.  1.
</event>
<event>
 7    1  0.8278507E-006  0.9150451E+02  0.7818608E-02  0.1484922E+00
          2   -1    0    0  502    0  0.00000000000E+00  0.00000000000E+00  0.96765891950E+03  0.96765891950E+03  0.00000000000E+00 0. -1.
          1   -1    0    0  501    0 -0.00000000000E+00 -0.00000000000E+00 -0.53508410308E+03  0.53508410308E+03  0.00000000000E+00 0. -1.
         25    2    1    2    0    0  0.83233299056E+02 -0.18188531167E+02 -0.36357722665E+03  0.39379211744E+03  0.12500090912E+03 0.  0.
          2    1    1    2  501    0 -0.27205244567E+00 -0.20533863615E+02 -0.15351425077E+03  0.15488169278E+03  0.00000000000E+00 0. -1.
          1    1    1    2  502    0 -0.82961246610E+02  0.38722394782E+02  0.94966629385E+03  0.95406921236E+03  0.00000000000E+00 0. -1.
         22    1    3    3    0    0  0.28373288897E+02 -0.70063775620E+02 -0.19150886265E+03  0.20588739799E+03  0.00000000000E+00 0. -1.
         22    1    3    3    0    0  0.54860010158E+02  0.51875244454E+02 -0.17206836400E+03  0.18790471945E+03  0.00000000000E+00 0. -1.
</event>
<event>
 7    1  0.8278507E-006  0.8518030E+02  0.7818608E-02  0.1395012E+00
          2   -1    0    0  502    0  0.00000000000E+00  0.00000000000E+00  0.17598714537E+04  0.17598714537E+04  0.00000000000E+00 0. -1.
          1   -1    0    0  501    0 -0.00000000000E+00 -0.00000000000E+00 -0.32765428664E+03  0.32765428664E+03  0.00000000000E+00 0. -1.
         25    2    1    2    0    0  0.62733048497E+02 -0.67527555087E+02  0.55668401027E+03  0.57794218207E+03  0.12499868981E+03 0.  0.
          2    1    1    2  501    0  0.17986908560E+02  0.39302017161E+02 -0.31400999825E+03  0.31697075012E+03  0.00000000000E+00 0. -1.
          1    1    1    2  502    0 -0.80719957057E+02  0.28225537926E+02  0.11895431550E+04  0.11926128082E+04  0.00000000000E+00 0. -1.
         22    1    3    3    0    0 -0.30634519830E+02 -0.32769490259E+02  0.87859440080E+02  0.98648844435E+02  0.00000000000E+00 0. -1.
         22    1    3    3    0    0  0.93367568327E+02 -0.34758064828E+02  0.46882457019E+03  0.47929333763E+03  0.00000000000E+00 0. -1.
</event>
<event>
 7    1  0.8278507E-006  0.3993770E+02  0.7818608E-02  0.1544298E+00
          2   -1    0    0  502    0  0.00000000000E+00  0.00000000000E+00  0.81284039054E+03  0.81284039054E+03  0.00000000000E+00 0. -1.
          1   -1    0    0  501    0 -0.00000000000E+00 -0.00000000000E+00 -0.10998047763E+03  0.10998047763E+03  0.00000000000E+00 0. -1.
         25    2    1    2    0    0  0.30222493186E+02  0.42836172162E+00  0.24151960912E+03  0.27361856043E+03  0.12498724910E+03 0.  0.
          2    1    1    2  501    0 -0.25948118632E+02  0.30816889285E+02 -0.89139228266E+02  0.97820179624E+02  0.00000000000E+00 0. -1.
          1    1    1    2  502    0 -0.42743745541E+01 -0.31245251006E+02  0.55047953206E+03  0.55138212811E+03  0.00000000000E+00 0. -1.
         22    1    3    3    0    0 -0.20249805038E+01  0.53775310104E+02  0.54954006646E+02  0.76914415874E+02  0.00000000000E+00 0.  1.
         22    1    3    3    0    0  0.32247473690E+02 -0.53346948383E+02  0.18656560247E+03  0.19670414456E+03  0.00000000000E+00 0.  1.
</event>
<event>
 7    1  0.8278507E-006  0.1042856E+03  0.7818608E-02  0.1278597E+00
          2   -1    0    0  502    0  0.00000000000E+00  0.00000000000E+00  0.20970671943E+03  0.20970671943E+03  0.00000000000E+00 0. -1.
          1   -1    0    0  501    0 -0.00000000000E+00 -0.00000000000E+00 -0.10962917389E+04  0.10962917389E+04  0.00000000000E+00 0. -1.
         25    2    1    2    0    0  0.56550888902E+02  0.14671047349E+03 -0.67018368978E+02  0.21175097368E+03  0.12500018802E+03 0.  0.
          2    1    1    2  501    0 -0.83780527518E+02 -0.49781320031E+02 -0.93557785444E+03  0.94063982391E+03  0.00000000000E+00 0. -1.
          1    1    1    2  502    0  0.27229638616E+02 -0.96929153464E+02  0.11601120392E+03  0.15360766077E+03  0.00000000000E+00 0. -1.
         22    1    3    3    0    0  0.93078203901E+02  0.12470527337E+03 -0.38041783047E+02  0.16019405265E+03  0.00000000000E+00 0.  1.
         22    1    3    3    0    0 -0.36527314999E+02  0.22005200126E+02 -0.28976585932E+02  0.51556921028E+02  0.00000000000E+00 0.  1.
</event>
<event>
 7    1  0.8278507E-006  0.8150005E+02  0.7818608E-02  0.1360018E+00
          2   -1    0    0  502    0  0.00000000000E+00  0.00000000000E+00  0.17002782099E+04  0.17002782099E+04  0.00000000000E+00 0. -1.
          1   -1    0    0  501    0 -0.00000000000E+00 -0.00000000000E+00 -0.42894936192E+03  0.42894936192E+03  0.00000000000E+00 0. -1.
         25    2    1    2    0    0  0.71814364239E+02 -0.74191383455E+02  0.36419270576E+03  0.39866541969E+03  0.12504449463E+03 0.  0.
          2    1    1    2  501    0  0.80788759593E+01  0.59615774205E+02 -0.40825627849E+03  0.41266511568E+03  0.00000000000E+00 0. -1.
          1    1    1    2  502    0 -0.79893240198E+02  0.14575609249E+02  0.13153924208E+04  0.13178970365E+04  0.00000000000E+00 0. -1.
         22    1    3    3    0    0  0.18325182851E+02  0.27659119454E+02  0.16788604867E+03  0.17113317783E+03  0.00000000000E+00 0. -1.
         22    1    3    3    0    0  0.53489181387E+02 -0.10185050291E+03  0.19630665709E+03  0.22753224186E+03  0.00000000000E+00 0. -1.
</event>
<event>
 7    1  0.8278507E-006  0.1376108E+03  0.7818608E-02  0.1326077E+00
          2   -1    0    0  502    0  0.00000000000E+00  0.00000000000E+00  0.16182979237E+04  0.16182979237E+04  0.00000000000E+00 0. -1.
          1   -1    0    0  501    0 -0.00000000000E+00 -0.00000000000E+00 -0.19237656416E+03  0.19237656416E+03  0.00000000000E+00 0. -1.
         25    2    1    2    0    0  0.95533343989E+02  0.59107523005E+02  0.14808089865E+03  0.22399186962E+03  0.12499634403E+03 0.  0.
          2    1    1    2  501    0 -0.94813047979E+02 -0.10684752896E+03 -0.12089023459E+03  0.18713726869E+03  0.00000000000E+00 0. -1.
          1    1    1    2  502    0 -0.72029600937E+00  0.47740005953E+02  0.13987306955E+04  0.13995453496E+04  0.00000000000E+00 0. -1.
         22    1    3    3    0    0 -0.39711738372E+01  0.49845164239E+02  0.61094468173E+01  0.50374953697E+02  0.00000000000E+00 0.  1.
         22    1    3    3    0    0  0.99504517826E+02  0.92623587667E+01  0.14197145184E+03  0.17361691592E+03  0.00000000000E+00 0.  1.
</event>
<event>
 7    1  0.8278507E-006  0.9334662E+02  0.7818608E-02  0.1356655E+00
          2   -1    0    0  502    0  0.00000000000E+00  0.00000000000E+00  0.28780361690E+04  0.28780361690E+04  0.00000000000E+00 0. -1.
          1   -1    0    0  501    0 -0.00000000000E+00 -0.00000000000E+00 -0.25090845899E+02  0.25090845899E+02  0.00000000000E+00 0. -1.
         25    2    1    2    0    0 -0.94182929366E+02 -0.71997630570E+01  0.29968631989E+03  0.33817004562E+03  0.12499931463E+03 0.  0.
          2    1    1    2  501    0  0.81125709010E+02  0.59633536319E+02  0.45520191769E+03  0.46620416684E+03  0.00000000000E+00 0. -1.
          1    1    1    2  502    0  0.13057220356E+02 -0.52433773262E+02  0.20980570856E+04  0.20987528025E+04  0.00000000000E+00 0. -1.
         22    1    3    3    0    0  0.20311682050E+02 -0.30845107087E+02  0.10225533087E+03  0.10872045691E+03  0.00000000000E+00 0.  1.
         22    1    3    3    0    0 -0.11449461142E+03  0.23645344030E+02  0.19743098901E+03  0.22944958871E+03  0.00000000000E+00 0.  1.
</event>
<event>
 7    1  0.8278507E-006  0.3304077E+03  0.7818608E-02  0.1323900E+00
          2   -1    0    0  502    0  0.00000000000E+00  0.00000000000E+00  0.18573322970E+04  0.18573322970E+04  0.00000000000E+00 0. -1.
          1   -1    0    0  501    0 -0.00000000000E+00 -0.00000000000E+00 -0.12734149096E+03  0.12734149096E+03  0.00000000000E+00 0. -1.
         25    2    1    2    0    0  0.18881362338E+03 -0.26521492555E+03  0.25478739473E+03  0.43189274701E+03  0.12500074921E+03 0.  0.
          2    1    1    2  501    0 -0.18699848682E+03  0.28540638829E+03  0.71434622787E+03  0.79165382196E+03  0.00000000000E+00 0. -1.
          1    1    1    2  502    0 -0.18151365558E+01 -0.20191462741E+02  0.76085718345E+03  0.76112721900E+03  0.00000000000E+00 0. -1.
         22    1    3    3    0    0  0.27268683402E+02 -0.47753136814E+02 -0.66787498795E+01  0.55394484112E+02  0.00000000000E+00 0.  1.
         22    1    3    3    0    0  0.16154493997E+03 -0.21746178873E+03  0.26146614461E+03  0.37649826290E+03  0.00000000000E+00 0.  1.
</event>
<event>
 7    1  0.8278507E-006  0.4787574E+02  0.7818608E-02  0.1571869E+00
          2   -1    0    0  502    0  0.00000000000E+00  0.00000000000E+00  0.24342629911E+04  0.24342629911E+04  0.00000000000E+00 0. -1.
          1   -1    0    0  501    0 -0.00000000000E+00 -0.00000000000E+00 -0.10552208367E+02  0.10552208367E+02  0.00000000000E+00 0. -1.
         25    2    1    2    0    0  0.20817185218E+02  0.20602636434E+02  0.68486471386E+03  0.69679365234E+03  0.12499557522E+03 0.  0.
          2    1    1    2  501    0  0.21770250739E+02  0.36813539676E+01  0.24524723557E+02  0.32999367415E+02  0.00000000000E+00 0. -1.
          1    1    1    2  502    0 -0.42587435957E+02 -0.24283990402E+02  0.17143213453E+04  0.17150221797E+04  0.00000000000E+00 0. -1.
         22    1    3    3    0    0  0.46530686411E+02 -0.27755026437E+02  0.15680615659E+03  0.16590243222E+03  0.00000000000E+00 0. -1.
         22    1    3    3    0    0 -0.25713501193E+02  0.48357662871E+02  0.52805855727E+03  0.53089122013E+03  0.00000000000E+00 0. -1.
</event>
<event>
 7    1  0.8278507E-006  0.1301862E+03  0.7818608E-02  0.1306778E+00
          2   -1    0    0  502    0  0.00000000000E+00  0.00000000000E+00  0.58312259150E+03  0.58312259150E+03  0.00000000000E+00 0. -1.
          1   -1    0    0  501    0 -0.00000000000E+00 -0.00000000000E+00 -0.23768784416E+04  0.23768784416E+04  0.00000000000E+00 0. -1.
         25    2    1    2    0    0  0.35193127402E+02  0.15299030684E+03 -0.19415576959E+03  0.27922436370E+03  0.12500076887E+03 0.  0.
          2    1    1    2  501    0 -0.54657819616E+02 -0.24805800785E+02 -0.21319859053E+04  0.21328306790E+04  0.00000000000E+00 0. -1.
          1    1    1    2  502    0  0.19464692214E+02 -0.12818450605E+03  0.53238582483E+03  0.54794599033E+03  0.00000000000E+00 0. -1.
         22    1    3    3    0    0 -0.15378445647E+02  0.10127302167E+03 -0.17759548230E+03  0.20501921092E+03  0.00000000000E+00 0. -1.
         22    1    3    3    0    0  0.50571573049E+02  0.51717285163E+02 -0.16560287286E+02  0.74205152788E+02  0.00000000000E+00 0. -1.
</event>
<event>
 7    1  0.8278507E-006  0.3287152E+03  0.7818608E-02  0.1312291E+00
          2   -1    0    0  502    0  0.00000000000E+00  0.00000000000E+00  0.38716087064E+03  0.38716087064E+03  0.00000000000E+00 0. -1.
          1   -1    0    0  501    0 -0.00000000000E+00 -0.00000000000E+00 -0.77908205882E+03  0.77908205882E+03  0.00000000000E+00 0. -1.
         25    2    1    2    0    0  0.26217880096E+02  0.31271790275E+03 -0.20737447679E+03  0.39637167581E+03  0.12500587117E+03 0.  0.
          2    1    1    2  501    0 -0.98840701043E+01  0.20336395014E+02 -0.38178263653E+03  0.38245162486E+03  0.00000000000E+00 0. -1.
          1    1    1    2  502    0 -0.16333809992E+02 -0.33305429776E+03  0.19723592513E+03  0.38741962879E+03  0.00000000000E+00 0. -1.
         22    1    3    3    0    0  0.29434201246E+02  0.29967802003E+03 -0.14805292766E+03  0.33554874055E+03  0.00000000000E+00 0.  1.
         22    1    3    3    0    0 -0.32163211501E+01  0.13039882714E+02 -0.59321549133E+02  0.60822935267E+02  0.00000000000E+00 0.  1.
</event>
<event>
 7    1  0.8278507E-006  0.1087362E+03  0.7818608E-02  0.1283863E+00
          2   -1    0    0  502    0  0.00000000000E+00  0.00000000000E+00  0.43627936383E+03  0.43627936383E+03  0.00000000000E+00 0. -1.
          1   -1    0    0  501    0 -0.00000000000E+00 -0.00000000000E+00 -0.73417688196E+03  0.73417688196E+03  0.00000000000E+00 0. -1.
         25    2    1    2    0    0 -0.29502242163E+02 -0.24170725283E+02 -0.18287987925E+03  0.22477642605E+03  0.12499914087E+03 0.  0.
          2    1    1    2  501    0 -0.48782676115E+02  0.99636176058E+02 -0.51724806234E+03  0.52901103492E+03  0.00000000000E+00 0. -1.
          1    1    1    2  502    0  0.78284918278E+02 -0.75465450775E+02  0.40223042347E+03  0.41666878483E+03  0.00000000000E+00 0. -1.
         22    1    3    3    0    0 -0.37002446992E+02  0.22694128114E+02 -0.87320255877E+01  0.44277000860E+02  0.00000000000E+00 0.  1.
         22    1    3    3    0    0  0.75002048293E+01 -0.46864853397E+02 -0.17414785367E+03  0.18049942519E+03  0.00000000000E+00 0.  1.
</event>
<event>
 7    1  0.8278507E-006  0.1392378E+03  0.7818608E-02  0.1242858E+00
          2   -1    0    0  502    0  0.00000000000E+00  0.00000000000E+00  0.29419188749E+03  0.29419188749E+03  0.00000000000E+00 0. -1.
          1   -1    0    0  501    0 -0.00000000000E+00 -0.00000000000E+00 -0.11117536160E+04  0.11117536160E+04  0.00000000000E+00 0. -1.
         25    2    1    2    0    0 -0.39539587387E+02 -0.14081347803E+03 -0.20631412945E+03  0.28210503521E+03  0.12500366521E+03 0.  0.
          2    1    1    2  501    0 -0.80316878456E+02  0.65550006220E+02 -0.84459190799E+03  0.85093072299E+03  0.00000000000E+00 0. -1.
          1    1    1    2  502    0  0.11985646584E+03  0.75263471805E+02  0.23334430890E+03  0.27290974532E+03  0.00000000000E+00 0. -1.
         22    1    3    3    0    0 -0.34006888692E+02 -0.44281904609E+02 -0.17726428677E+01  0.55861416174E+02  0.00000000000E+00 0. -1.
         22    1    3    3    0    0 -0.55326986955E+01 -0.96531573417E+02 -0.20454148658E+03  0.22624361904E+03  0.00000000000E+00 0. -1.
</event>
<event>
 7    1  0.8278507E-006  0.1269739E+03  0.7818608E-02  0.1234948E+00
          2   -1    0    0  502    0  0.00000000000E+00  0.00000000000E+00  0.26000352632E+03  0.26000352632E+03  0.00000000000E+00 0. -1.
          1   -1    0    0  501    0 -0.00000000000E+00 -0.00000000000E+00 -0.41867036472E+03  0.41867036472E+03  0.00000000000E+00 0. -1.
         25    2    1    2    0    0 -0.57779748732E+02  0.55961975016E+02 -0.12516078674E+03  0.19432199334E+03  0.12500229017E+03 0.  0.
          2    1    1    2  501    0  0.17665053920E+03 -0.11329091924E+02 -0.20507697608E+03  0.27090649206E+03  0.00000000000E+00 0. -1.
          1    1    1    2  502    0 -0.11887079047E+03 -0.44632883093E+02  0.17157092442E+03  0.21344540564E+03  0.00000000000E+00 0. -1.
         22    1    3    3    0    0  0.13696515064E+02  0.73460411496E+02 -0.69560953342E+02  0.10209188416E+03  0.00000000000E+00 0. -1.
         22    1    3    3    0    0 -0.71476263795E+02 -0.17498436480E+02 -0.55599833401E+02  0.92230109181E+02  0.00000000000E+00 0. -1.
</event>
<event>
 7    1  0.8278507E-006  0.1027152E+03  0.7818608E-02  0.1282712E+00
          2   -1    0    0  502    0  0.00000000000E+00  0.00000000000E+00  0.17348382709E+04  0.17348382709E+04  0.00000000000E+00 0. -1.
          1   -1    0    0  501    0 -0.00000000000E+00 -0.00000000000E+00 -0.18351115955E+03  0.18351115955E+03  0.00000000000E+00 0. -1.
         25    2    1    2    0    0 -0.98189433999E+02  0.14162927912E+03  0.49447511419E+03  0.53835949761E+03  0.12500116985E+03 0.  0.
          2    1    1    2  501    0  0.89623663863E+02 -0.46866724752E+02 -0.14367263030E+03  0.17570064232E+03  0.00000000000E+00 0. -1.
          1    1    1    2  502    0  0.85657701352E+01 -0.94762554370E+02  0.12005246274E+04  0.12042892905E+04  0.00000000000E+00 0. -1.
         22    1    3    3    0    0 -0.74615238835E+01  0.11725525250E+03  0.30567395216E+03  0.32747676804E+03  0.00000000000E+00 0. -1.
         22    1    3    3    0    0 -0.90727910115E+02  0.24374026621E+02  0.18880116203E+03  0.21088272957E+03  0.00000000000E+00 0. -1.
</event>
<event>
 7    1  0.8278507E-006  0.2208550E+03  0.7818608E-02  0.1337141E+00
          2   -1    0    0  502    0  0.00000000000E+00  0.00000000000E+00  0.12172285682E+04  0.12172285682E+04  0.00000000000E+00 0. -1.
          1   -1    0    0  501    0 -0.00000000000E+00 -0.00000000000E+00 -0.37979243611E+03  0.37979243611E+03  0.00000000000E+00 0. -1.
         25    2    1    2    0    0  0.12172088885E+03 -0.16122983834E+03  0.35027428568E+03  0.42323502288E+03  0.12499909531E+03 0.  0.
          2    1    1    2  501    0  0.16053627197E+02 -0.21705271795E+02 -0.32695684542E+03  0.32806953003E+03  0.00000000000E+00 0. -1.
          1    1    1    2  502    0 -0.13777451604E+03  0.18293511014E+03  0.81411869186E+03  0.84571645144E+03  0.00000000000E+00 0. -1.
         22    1    3    3    0    0 -0.16778862770E+02  0.82122897542E+01  0.29610185574E+02  0.35010498833E+02  0.00000000000E+00 0. -1.
         22    1    3    3    0    0  0.13849975162E+03 -0.16944212810E+03  0.32066410011E+03  0.38822452405E+03  0.00000000000E+00 0. -1.
</event>
<event>
 7    1  0.1161779E-005  0.1162841E+03  0.7818608E-02  0.1367179E+00
          2   -1    0    0  502    0  0.00000000000E+00  0.00000000000E+00  0.12405586658E+04  0.12405586658E+04  0.00000000000E+00 0. -1.
          1   -1    0    0  501    0 -0.00000000000E+00 -0.00000000000E+00 -0.12797584756E+04  0.12797584756E+04  0.00000000000E+00 0. -1.
         25    2    1    2    0    0 -0.11081967691E+03 -0.44537080368E+02 -0.70445183384E+03  0.72535591190E+03  0.12499704156E+03 0.  0.
          2    1    1    2  501    0  0.23360355138E+02 -0.32118327987E+02 -0.56140273850E+03  0.56280576399E+03  0.00000000000E+00 0. -1.
          1    1    1    2  502    0  0.87459321772E+02  0.76655408355E+02  0.12266547626E+04  0.12321554655E+04  0.00000000000E+00 0. -1.
         22    1    3    3    0    0 -0.52930022800E+02 -0.86187310294E+02 -0.43788587016E+03  0.44941503652E+03  0.00000000000E+00 0.  1.
         22    1    3    3    0    0 -0.57889654111E+02  0.41650229925E+02 -0.26656596369E+03  0.27594087537E+03  0.00000000000E+00 0.  1.
</event>
<event>
 7    1  0.8278507E-006  0.5617896E+02  0.7818608E-02  0.1521075E+00
          2   -1    0    0  502    0  0.00000000000E+00  0.00000000000E+00  0.13850379369E+03  0.13850379369E+03  0.00000000000E+00 0. -1.
          1   -1    0    0  501    0 -0.00000000000E+00 -0.00000000000E+00 -0.18013200729E+04  0.18013200729E+04  0.00000000000E+00 0. -1.
         25    2    1    2    0    0  0.42459980427E+00  0.39927008035E+02 -0.20987312136E+03  0.24752052281E+03  0.12500134353E+03 0.  0.
          2    1    1    2  501    0 -0.23153824513E+02  0.12082305270E+02 -0.15657786465E+04  0.15659964404E+04  0.00000000000E+00 0. -1.
          1    1    1    2  502    0  0.22729224708E+02 -0.52009313305E+02  0.11283548865E+03  0.12630690332E+03  0.00000000000E+00 0. -1.
         22    1    3    3    0    0  0.42340164160E+02  0.67562094355E+02 -0.14515325877E+03  0.16561036992E+03  0.00000000000E+00 0.  1.
         22    1    3    3    0    0 -0.41915564355E+02 -0.27635086319E+02 -0.64719862591E+02  0.81910152881E+02  0.00000000000E+00 0.  1.
</event>
<event>
 7    1  0.8278507E-006  0.1118815E+03  0.7818608E-02  0.1305349E+00
          2   -1    0    0  502    0  0.00000000000E+00  0.00000000000E+00  0.10309656601E+03  0.10309656601E+03  0.00000000000E+00 0. -1.
          1   -1    0    0  501    0 -0.00000000000E+00 -0.00000000000E+00 -0.21398156660E+04  0.21398156660E+04  0.00000000000E+00 0. -1.
         25    2    1    2    0    0  0.82593138847E+02  0.13911264534E+03 -0.14295201114E+04  0.14440648015E+04  0.12498578797E+03 0.  0.
          2    1    1    2  501    0 -0.43138508755E+02 -0.80371771547E+02 -0.68651846260E+03  0.69255191292E+03  0.00000000000E+00 0. -1.
          1    1    1    2  502    0 -0.39454630092E+02 -0.58740873791E+02  0.79319474082E+02  0.10629551758E+03  0.00000000000E+00 0. -1.
         22    1    3    3    0    0  0.22299566349E+02 -0.22581363095E+02 -0.24160446789E+03  0.24367992844E+03  0.00000000000E+00 0. -1.
         22    1    3    3    0    0  0.60293572498E+02  0.16169400843E+03 -0.11879156436E+04  0.12003848730E+04  0.00000000000E+00 0. -1.
</event>
<event>
 7    1  0.8278507E-006  0.8722114E+02  0.7818608E-02  0.1332518E+00
          2   -1    0    0  502    0  0.00000000000E+00  0.00000000000E+00  0.16150656568E+04  0.16150656568E+04  0.00000000000E+00 0. -1.
          1   -1    0    0  501    0 -0.00000000000E+00 -0.00000000000E+00 -0.94453319217E+02  0.94453319217E+02  0.00000000000E+00 0. -1.
         25    2    1    2    0    0 -0.64618377619E+01  0.58149060895E+02  0.90516640830E+03  0.91562752040E+03  0.12499784302E+03 0.  0.
          2    1    1    2  501    0 -0.83201322878E+02 -0.26173803050E+02 -0.63763783668E+02  0.10804327005E+03  0.00000000000E+00 0. -1.
          1    1    1    2  502    0  0.89663160640E+02 -0.31975257845E+02  0.67920971293E+03  0.68584818556E+03  0.00000000000E+00 0. -1.
         22    1    3    3    0    0 -0.37651566289E+02  0.12754685225E+02  0.74862525549E+03  0.74967999546E+03  0.00000000000E+00 0.  1.
         22    1    3    3    0    0  0.31189728527E+02  0.45394375670E+02  0.15654115281E+03  0.16594752493E+03  0.00000000000E+00 0.  1.
</event>
<event>
 7    1  0.8278507E-006  0.9930864E+02  0.7818608E-02  0.1453963E+00
          2   -1    0    0  502    0  0.00000000000E+00  0.00000000000E+00  0.32938011494E+03  0.32938011494E+03  0.00000000000E+00 0. -1.
          1   -1    0    0  501    0 -0.00000000000E+00 -0.00000000000E+00 -0.78687027587E+03  0.78687027587E+03  0.00000000000E+00 0. -1.
         25    2    1    2    0    0 -0.59013672487E+02  0.10722789372E+03  0.22426668497E+03  0.28442541714E+03  0.12498734815E+03 0.  0.
          2    1    1    2  501    0  0.45049137004E+02 -0.88172993767E+02 -0.75160034218E+03  0.75809430544E+03  0.00000000000E+00 0. -1.
          1    1    1    2  502    0  0.13964535483E+02 -0.19054899956E+02  0.69843496282E+02  0.73730668222E+02  0.00000000000E+00 0. -1.
         22    1    3    3    0    0 -0.29163553197E+02  0.50563381764E+01 -0.64901846688E+01  0.30301846278E+02  0.00000000000E+00 0. -1.
         22    1    3    3    0    0 -0.29850119289E+02  0.10217155555E+03  0.23075686964E+03  0.25412357086E+03  0.00000000000E+00 0. -1.
</event>
<event>
 7    1  0.8278507E-006  0.7255065E+02  0.7818608E-02  0.1419491E+00
          2   -1    0    0  502    0  0.00000000000E+00  0.00000000000E+00  0.42298174299E+03  0.42298174299E+03  0.00000000000E+00 0. -1.
          1   -1    0    0  501    0 -0.00000000000E+00 -0.00000000000E+00 -0.11470989037E+04  0.11470989037E+04  0.00000000000E+00 0. -1.
         25    2    1    2    0    0 -0.81558643861E+01  0.32547554585E+02 -0.43942918133E+03  0.45809003036E+03  0.12499043596E+03 0.  0.
          2    1    1    2  501    0 -0.29337343166E+02  0.29901920678E+02 -0.69449667710E+03  0.69575889435E+03  0.00000000000E+00 0. -1.
          1    1    1    2  502    0  0.37493207552E+02 -0.62449475264E+02  0.40980869777E+03  0.41623172193E+03  0.00000000000E+00 0. -1.
         22    1    3    3    0    0  0.41065073430E+02  0.18306883427E+01 -0.51728677240E+02  0.66072291655E+02  0.00000000000E+00 0. -1.
         22    1    3    3    0    0 -0.49220937816E+02  0.30716866243E+02 -0.38770050409E+03  0.39201773871E+03  0.00000000000E+00 0. -1.
</event>
<event>
 7    1  0.8278507E-006  0.6109683E+02  0.7818608E-02  0.1436236E+00
          2   -1    0    0  502    0  0.00000000000E+00  0.00000000000E+00  0.30943797577E+04  0.30943797577E+04  0.00000000000E+00 0. -1.
          1   -1    0    0  501    0 -0.00000000000E+00 -0.00000000000E+00 -0.67358568149E+03  0.67358568149E+03  0.00000000000E+00 0. -1.
         25    2    1    2    0    0 -0.70347521016E+02 -0.36992532309E+02  0.27182172236E+04  0.27222496971E+04  0.12498526910E+03 0.  0.
          2    1    1    2  501    0  0.43521479388E+02 -0.48989519369E+01 -0.66919701338E+03  0.67062863167E+03  0.00000000000E+00 0. -1.
          1    1    1    2  502    0  0.26826041628E+02  0.41891484246E+02  0.37177386594E+03  0.37508711036E+03  0.00000000000E+00 0. -1.
         22    1    3    3    0    0  0.24693952980E+02  0.24286604778E+02  0.72565847945E+03  0.72648458985E+03  0.00000000000E+00 0. -1.
         22    1    3    3    0    0 -0.95041473996E+02 -0.61279137087E+02  0.19925587442E+04  0.19957651073E+04  0.00000000000E+00 0. -1.
</event>
<event>
 7    1  0.8278507E-006  0.7659024E+02  0.7818608E-02  0.1391109E+00
          2   -1    0    0  502    0  0.00000000000E+00  0.00000000000E+00  0.22341273853E+03  0.22341273853E+03  0.00000000000E+00 0. -1.
          1   -1    0    0  501    0 -0.00000000000E+00 -0.00000000000E+00 -0.14755994276E+04  0.14755994276E+04  0.00000000000E+00 0. -1.
         25    2    1    2    0    0  0.89540225884E+02 -0.36586743392E+02  0.16526582812E+02  0.15890208265E+03  0.12498280717E+03 0.  0.
          2    1    1    2  501    0 -0.43819736721E+02 -0.23226611442E+02 -0.13934942122E+04  0.13943764786E+04  0.00000000000E+00 0. -1.
          1    1    1    2  502    0 -0.45720489163E+02  0.59813354834E+02  0.12478094024E+03  0.14573360489E+03  0.00000000000E+00 0. -1.
         22    1    3    3    0    0  0.12244041476E+02 -0.60368974664E+02  0.41486160284E+02  0.74265948784E+02  0.00000000000E+00 0.  1.
         22    1    3    3    0    0  0.77296184408E+02  0.23782231272E+02 -0.24959577472E+02  0.84636133866E+02  0.00000000000E+00 0.  1.
</event>
<event>
 7    1  0.8278507E-006  0.2620933E+03  0.7818608E-02  0.1203103E+00
          2   -1    0    0  502    0  0.00000000000E+00  0.00000000000E+00  0.14431824575E+04  0.14431824575E+04  0.00000000000E+00 0. -1.
          1   -1    0    0  501    0 -0.00000000000E+00 -0.00000000000E+00 -0.36283699907E+03  0.36283699907E+03  0.00000000000E+00 0. -1.
         25    2    1    2    0    0 -0.28346314864E+03  0.65718815879E+02  0.12594338499E+03  0.34082027915E+03  0.12500562814E+03 0.  0.
          2    1    1    2  501    0  0.22422468785E+03 -0.12447702800E+03 -0.18911213421E+03  0.31864500694E+03  0.00000000000E+00 0. -1.
          1    1    1    2  502    0  0.59238460781E+02  0.58758212116E+02  0.11435142077E+04  0.11465541705E+04  0.00000000000E+00 0. -1.
         22    1    3    3    0    0 -0.17300298897E+03 -0.16015805157E+02  0.10160043759E+03  0.20126894724E+03  0.00000000000E+00 0.  1.
         22    1    3    3    0    0 -0.11046015967E+03  0.81734621037E+02  0.24342947398E+02  0.13955133191E+03  0.00000000000E+00 0.  1.
</event>
<event>
 7    1  0.8278507E-006  0.1815050E+03  0.7818608E-02  0.1393595E+00
          2   -1    0    0  502    0  0.00000000000E+00  0.00000000000E+00  0.12922407069E+04  0.12922407069E+04  0.00000000000E+00 0. -1.
          1   -1    0    0  501    0 -0.00000000000E+00 -0.00000000000E+00 -0.10426618477E+04  0.10426618477E+04  0.00000000000E+00 0. -1.
         25    2    1    2    0    0  0.17052286185E+03 -0.10554120395E+03 -0.52861243153E+03  0.57902896971E+03  0.12500581127E+03 0.  0.
          2    1    1    2  501    0 -0.12944008994E+02  0.15916127323E+02 -0.48213750384E+03  0.48257376958E+03  0.00000000000E+00 0. -1.
          1    1    1    2  502    0 -0.15757885285E+03  0.89625076631E+02  0.12603287946E+04  0.12732998153E+04  0.00000000000E+00 0. -1.
         22    1    3    3    0    0  0.40800652669E+01  0.18086147788E+02 -0.11365832706E+03  0.11516063122E+03  0.00000000000E+00 0.  1.
         22    1    3    3    0    0  0.16644279658E+03 -0.12362735174E+03 -0.41495410447E+03  0.46386833848E+03  0.00000000000E+00 0.  1.
</event>
<event>
 7    1  0.8278507E-006  0.8524145E+02  0.7818608E-02  0.1393029E+00
          2   -1    0    0  502    0  0.00000000000E+00  0.00000000000E+00  0.16596397201E+04  0.16596397201E+04  0.00000000000E+00 0. -1.
          1   -1    0    0  501    0 -0.00000000000E+00 -0.00000000000E+00 -0.14179988037E+04  0.14179988037E+04  0.00000000000E+00 0. -1.
         25    2    1    2    0    0 -0.18943158072E+02 -0.89614028469E+02  0.14132124847E+03  0.20973071115E+03  0.12500303434E+03 0.  0.
          2    1    1    2  501    0 -0.36369631043E+02  0.24552382476E+02 -0.13822171657E+04  0.13829135413E+04  0.00000000000E+00 0. -1.
          1    1    1    2  502    0  0.55312789115E+02  0.65061645993E+02  0.14825368337E+04  0.14849942712E+04  0.00000000000E+00 0. -1.
         22    1    3    3    0    0 -0.35084495801E+02 -0.66232121277E+02  0.15933923174E+03  0.17608692883E+03  0.00000000000E+00 0.  1.
         22    1    3    3    0    0  0.16141337729E+02 -0.23381907192E+02 -0.18017983268E+02  0.33643782318E+02  0.00000000000E+00 0.  1.
</event>
<event>
 7    1  0.8278507E-006  0.5260000E+02  0.7818608E-02  0.1541279E+00
          2   -1    0    0  502    0  0.00000000000E+00  0.00000000000E+00  0.66380281276E+03  0.66380281276E+03  0.00000000000E+00 0. -1.
          1   -1    0    0  501    0 -0.00000000000E+00 -0.00000000000E+00 -0.93190380103E+03  0.93190380103E+03  0.00000000000E+00 0. -1.
         25    2    1    2    0    0  0.70861359409E+02 -0.13778349003E+02  0.35540439788E+03  0.38360017121E+03  0.12500252062E+03 0.  0.
          2    1    1    2  501    0 -0.47812371221E+02  0.21839600027E+02 -0.91654510208E+03  0.91805115060E+03  0.00000000000E+00 0. -1.
          1    1    1    2  502    0 -0.23048988187E+02 -0.80612510238E+01  0.29303971594E+03  0.29405529198E+03  0.00000000000E+00 0. -1.
         22    1    3    3    0    0  0.25441527135E+02 -0.10150669402E+02  0.33057846801E+03  0.33171136686E+03  0.00000000000E+00 0.  1.
         22    1    3    3    0    0  0.45419832274E+02 -0.36276796005E+01  0.24825929870E+02  0.51888804351E+02  0.00000000000E+00 0.  1.
</event>
<event>
 7    1  0.8278507E-006  0.8504052E+02  0.7818608E-02  0.1408853E+00
          2   -1    0    0  502    0  0.00000000000E+00  0.00000000000E+00  0.59250592890E+03  0.59250592890E+03  0.00000000000E+00 0. -1.
          1   -1    0    0  501    0 -0.00000000000E+00 -0.00000000000E+00 -0.82184150076E+03  0.82184150076E+03  0.00000000000E+00 0. -1.
         25    2    1    2    0    0 -0.40694072262E+02 -0.89070754420E+02  0.71437662174E+02  0.17412483744E+03  0.12500605036E+03 0.  0.
          2    1    1    2  501    0  0.62814131694E+02  0.57179427515E+02 -0.76734866907E+03  0.77203567405E+03  0.00000000000E+00 0. -1.
          1    1    1    2  502    0 -0.22120059432E+02  0.31891326905E+02  0.46657543504E+03  0.46818691817E+03  0.00000000000E+00 0. -1.
         22    1    3    3    0    0 -0.60794455554E+02 -0.29945772377E+02  0.86499592652E+02  0.10988582547E+03  0.00000000000E+00 0.  1.
         22    1    3    3    0    0  0.20100383292E+02 -0.59124982044E+02 -0.15061930478E+02  0.64239011978E+02  0.00000000000E+00 0.  1.
</event>
<event>
 7    1  0.8278507E-006  0.7439759E+02  0.7818608E-02  0.1411459E+00
          2   -1    0    0  502    0  0.00000000000E+00  0.00000000000E+00  0.27069977643E+03  0.27069977643E+03  0.00000000000E+00 0. -1.
          1   -1    0    0  501    0 -0.00000000000E+00 -0.00000000000E+00 -0.70617313568E+03  0.70617313568E+03  0.00000000000E+00 0. -1.
         25    2    1    2    0    0 -0.63168765283E+02 -0.12935111429E+02 -0.29375077889E+03  0.32568836755E+03  0.12500313054E+03 0.  0.
          2    1    1    2  501    0  0.56011141362E+02  0.55812774782E+02 -0.39060815886E+03  0.39853111240E+03  0.00000000000E+00 0. -1.
          1    1    1    2  502    0  0.71576239212E+01 -0.42877663354E+02  0.24888557850E+03  0.25265343215E+03  0.00000000000E+00 0. -1.
         22    1    3    3    0    0 -0.91180238207E+01 -0.61323493929E+02 -0.88998387191E+02  0.10846392114E+03  0.00000000000E+00 0.  1.
         22    1    3    3    0    0 -0.54050741462E+02  0.48388382500E+02 -0.20475239169E+03  0.21722444641E+03  0.00000000000E+00 0.  1.
</event>
<event>
 7    1  0.8278507E-006  0.5116499E+02  0.7818608E-02  0.1482915E+00
          2   -1    0    0  502    0  0.00000000000E+00  0.00000000000E+00  0.27023816067E+04  0.27023816067E+04  0.00000000000E+00 0. -1.
          1   -1    0    0  501    0 -0.00000000000E+00 -0.00000000000E+00 -0.20525754969E+02  0.20525754969E+02  0.00000000000E+00 0. -1.
         25    2    1    2    0    0  0.45428865498E+02  0.56989869279E+02  0.77779250457E+03  0.79114384215E+03  0.12504307968E+03 0.  0.
          2    1    1    2  501    0  0.10286183755E+01 -0.37233710056E+02  0.12153937720E+02  0.39180676645E+02  0.00000000000E+00 0. -1.
          1    1    1    2  502    0 -0.46457483873E+02 -0.19756159223E+02  0.18919094095E+04  0.18925828429E+04  0.00000000000E+00 0. -1.
         22    1    3    3    0    0  0.87341168549E+01  0.15792643215E+02  0.66824212540E+03  0.66848577437E+03  0.00000000000E+00 0.  1.
         22    1    3    3    0    0  0.36694748643E+02  0.41197226064E+02  0.10955037917E+03  0.12265806777E+03  0.00000000000E+00 0.  1.
</event>
<event>
 7    1  0.8278507E-006  0.7864165E+02  0.7818608E-02  0.1414847E+00
          2   -1    0    0  502    0  0.00000000000E+00  0.00000000000E+00  0.70286610587E+03  0.70286610587E+03  0.00000000000E+00 0. -1.
          1   -1    0    0  501    0 -0.00000000000E+00 -0.00000000000E+00 -0.53357958415E+03  0.53357958415E+03  0.00000000000E+00 0. -1.
         25    2    1    2    0    0  0.50513520135E+02  0.30353479466E+02  0.32551423997E+02  0.14197733804E+03  0.12500007952E+03 0.  0.
          2    1    1    2  501    0 -0.10308389770E+02  0.38707853724E+02 -0.47542745463E+03  0.47711196322E+03  0.00000000000E+00 0. -1.
          1    1    1    2  502    0 -0.40205130365E+02 -0.69061333190E+02  0.61216255235E+03  0.61735638876E+03  0.00000000000E+00 0. -1.
         22    1    3    3    0    0  0.77301855251E+02  0.22202903381E+02 -0.19602872902E+02  0.82781751430E+02  0.00000000000E+00 0. -1.
         22    1    3    3    0    0 -0.26788335116E+02  0.81505760848E+01  0.52154296899E+02  0.59195586608E+02  0.00000000000E+00 0. -1.
</event>
<event>
 7    1  0.8278507E-006  0.1324551E+03  0.7818608E-02  0.1429057E+00
          2   -1    0    0  502    0  0.00000000000E+00  0.00000000000E+00  0.68872986048E+03  0.68872986048E+03  0.00000000000E+00 0. -1.
          1   -1    0    0  501    0 -0.00000000000E+00 -0.00000000000E+00 -0.12732266583E+04  0.12732266583E+04  0.00000000000E+00 0. -1.
         25    2    1    2    0    0 -0.16389594580E+02  0.11599147249E+03 -0.91517152715E+02  0.19422305821E+03  0.12499826637E+03 0.  0.
          2    1    1    2  501    0 -0.16891051915E+02  0.13020878374E+02 -0.11232913943E+04  0.11234938395E+04  0.00000000000E+00 0. -1.
          1    1    1    2  502    0  0.33280646495E+02 -0.12901235087E+03  0.63031174923E+03  0.64423962104E+03  0.00000000000E+00 0. -1.
         22    1    3    3    0    0  0.29698667836E+02  0.91921363351E+02 -0.10274958685E+03  0.14102845638E+03  0.00000000000E+00 0. -1.
         22    1    3    3    0    0 -0.46088262415E+02  0.24070109142E+02  0.11232434137E+02  0.53194601824E+02  0.00000000000E+00 0. -1.
</event>
<event>
 7    1  0.8278507E-006  0.2367428E+03  0.7818608E-02  0.1233538E+00
          2   -1    0    0  502    0  0.00000000000E+00  0.00000000000E+00  0.41812553777E+03  0.41812553777E+03  0.00000000000E+00 0. -1.
          1   -1    0    0  501    0 -0.00000000000E+00 -0.00000000000E+00 -0.88994560734E+03  0.88994560734E+03  0.00000000000E+00 0. -1.
         25    2    1    2    0    0 -0.17689996577E+03  0.21888104443E+03  0.68267122660E+02  0.31541817428E+03  0.12500286048E+03 0.  0.
          2    1    1    2  501    0  0.11139033588E+03 -0.20462001456E+03 -0.74314792183E+03  0.77881062590E+03  0.00000000000E+00 0. -1.
          1    1    1    2  502    0  0.65509629890E+02 -0.14261029870E+02  0.20306072960E+03  0.21384234494E+03  0.00000000000E+00 0. -1.
         22    1    3    3    0    0 -0.79026882980E+02  0.11047798333E+03  0.96556137077E+02  0.16665449482E+03  0.00000000000E+00 0.  1.
         22    1    3    3    0    0 -0.97873082793E+02  0.10840306109E+03 -0.28289014417E+02  0.14876367946E+03  0.00000000000E+00 0.  1.
</event>
<event>
 7    1  0.8278507E-006  0.1350812E+03  0.7818608E-02  0.1273555E+00
          2   -1    0    0  502    0  0.00000000000E+00  0.00000000000E+00  0.12986314055E+04  0.12986314055E+04  0.00000000000E+00 0. -1.
          1   -1    0    0  501    0 -0.00000000000E+00 -0.00000000000E+00 -0.17686529319E+04  0.17686529319E+04  0.00000000000E+00 0. -1.
         25    2    1    2    0    0 -0.21479730780E+02 -0.19199099111E+03 -0.47829014283E+02  0.23502046363E+03  0.12500033686E+03 0.  0.
          2    1    1    2  501    0 -0.28229822077E+02  0.13064429399E+03 -0.16231849564E+04  0.16286786844E+04  0.00000000000E+00 0. -1.
          1    1    1    2  502    0  0.49709552857E+02  0.61346697116E+02  0.12009924442E+04  0.12035851893E+04  0.00000000000E+00 0. -1.
         22    1    3    3    0    0 -0.66036050266E+02 -0.15997875998E+03 -0.22283170592E+02  0.17450072571E+03  0.00000000000E+00 0.  1.
         22    1    3    3    0    0  0.44556319486E+02 -0.32012231125E+02 -0.25545843691E+02  0.60519737918E+02  0.00000000000E+00 0.  1.
</event>
<event>
 7    1  0.8278507E-006  0.6892713E+02  0.7818608E-02  0.1504147E+00
          2   -1    0    0  502    0  0.00000000000E+00  0.00000000000E+00  0.55396392278E+02  0.55396392278E+02  0.00000000000E+00 0. -1.
          1   -1    0    0  501    0 -0.00000000000E+00 -0.00000000000E+00 -0.91502058999E+03  0.91502058999E+03  0.00000000000E+00 0. -1.
         25    2    1    2    0    0  0.49157466125E+02 -0.29147793793E+01 -0.28384555202E+03  0.31403571337E+03  0.12500071783E+03 0.  0.
          2    1    1    2  501    0 -0.71516901682E+02 -0.54269765296E+01 -0.61025264012E+03  0.61445293072E+03  0.00000000000E+00 0. -1.
          1    1    1    2  502    0  0.22359435557E+02  0.83417559089E+01  0.34473994428E+02  0.41928338173E+02  0.00000000000E+00 0. -1.
         22    1    3    3    0    0  0.65649027193E+02  0.47654285049E+02 -0.17511389231E+03  0.19299119393E+03  0.00000000000E+00 0. -1.
         22    1    3    3    0    0 -0.16491561068E+02 -0.50569064428E+02 -0.10873165971E+03  0.12104451944E+03  0.00000000000E+00 0. -1.
</event>
<event>
 7    1  0.8278507E-006  0.6084856E+02  0.7818608E-02  0.1418215E+00
          2   -1    0    0  502    0  0.00000000000E+00  0.00000000000E+00  0.42650630794E+04  0.42650630794E+04  0.00000000000E+00 0. -1.
          1   -1    0    0  501    0 -0.00000000000E+00 -0.00000000000E+00 -0.16749453480E+04  0.16749453480E+04  0.00000000000E+00 0. -1.
         25    2    1    2    0    0 -0.42418339007E+02 -0.10243460471E+03 -0.65924560044E+03  0.68008955368E+03  0.12499950239E+03 0.  0.
          2    1    1    2  501    0  0.14864843904E+02  0.48200031487E+02 -0.10044274454E+04  0.10056931439E+04  0.00000000000E+00 0. -1.
          1    1    1    2  502    0  0.27553495103E+02  0.54234573221E+02  0.42537907773E+04  0.42542257299E+04  0.00000000000E+00 0. -1.
         22    1    3    3    0    0 -0.43546732238E+02 -0.13120721271E+03 -0.53957184881E+03  0.55700038652E+03  0.00000000000E+00 0. -1.
         22    1    3    3    0    0  0.11283932308E+01  0.28772608002E+02 -0.11967375164E+03  0.12308916716E+03  0.00000000000E+00 0. -1.
</event>
<event>
 7    1  0.8278507E-006  0.1603996E+03  0.7818608E-02  0.1279185E+00
          2   -1    0    0  502    0  0.00000000000E+00  0.00000000000E+00  0.86179832441E+03  0.86179832441E+03  0.00000000000E+00 0. -1.
          1   -1    0    0  501    0 -0.00000000000E+00 -0.00000000000E+00 -0.19838200703E+03  0.19838200703E+03  0.00000000000E+00 0. -1.
         25    2    1    2    0    0 -0.73531353425E+02 -0.76975259318E+02  0.28110512341E+03  0.32553645829E+03  0.12498737851E+03 0.  0.
          2    1    1    2  501    0  0.10151149939E+03  0.13342881840E+03 -0.13392426211E+03  0.21457758986E+03  0.00000000000E+00 0. -1.
          1    1    1    2  502    0 -0.27980145967E+02 -0.56453559085E+02  0.51623545608E+03  0.52006628329E+03  0.00000000000E+00 0. -1.
         22    1    3    3    0    0 -0.69591271836E+02 -0.93666737101E+02  0.13505658150E+03  0.17848440537E+03  0.00000000000E+00 0. -1.
         22    1    3    3    0    0 -0.39400815894E+01  0.16691477783E+02  0.14604854192E+03  0.14705205292E+03  0.00000000000E+00 0. -1.
</event>
<event>
 7    1  0.8278507E-006  0.1480445E+03  0.7818608E-02  0.1287456E+00
          2   -1    0    0  502    0  0.00000000000E+00  0.00000000000E+00  0.96881734765E+03  0.96881734765E+03  0.00000000000E+00 0. -1.
          1   -1    0    0  501    0 -0.00000000000E+00 -0.00000000000E+00 -0.46744758748E+03  0.46744758748E+03  0.00000000000E+00 0. -1.
         25    2    1    2    0    0 -0.84434104622E+02 -0.26971130543E+02  0.19150924351E+03  0.24527036766E+03  0.12500081199E+03 0.  0.
          2    1    1    2  501    0  0.14607181415E+03  0.40592217121E+02 -0.42613317918E+03  0.45229878330E+03  0.00000000000E+00 0. -1.
          1    1    1    2  502    0 -0.61637709532E+02 -0.13621086578E+02  0.73599369584E+03  0.73869578417E+03  0.00000000000E+00 0. -1.
         22    1    3    3    0    0  0.33197737822E+02 -0.50206214023E+01  0.42023232558E+02  0.53788925537E+02  0.00000000000E+00 0. -1.
         22    1    3    3    0    0 -0.11763184244E+03 -0.21950509141E+02  0.14948601095E+03  0.19148144213E+03  0.00000000000E+00 0. -1.
</event>
<event>
 7    1  0.8278507E-006  0.8124083E+02  0.7818608E-02  0.1346837E+00
          2   -1    0    0  502    0  0.00000000000E+00  0.00000000000E+00  0.67149006847E+02  0.67149006847E+02  0.00000000000E+00 0. -1.
          1   -1    0    0  501    0 -0.00000000000E+00 -0.00000000000E+00 -0.83373674576E+03  0.83373674576E+03  0.00000000000E+00 0. -1.
         25    2    1    2    0    0 -0.10863702107E+02 -0.78075354330E+00 -0.13842536243E+03  0.18685462305E+03  0.12503775266E+03 0.  0.
          2    1    1    2  501    0 -0.27395867961E+02  0.76482273927E+02 -0.62383250197E+03  0.62910020054E+03  0.00000000000E+00 0. -1.
          1    1    1    2  502    0  0.38259570069E+02 -0.75701520383E+02 -0.43298745090E+01  0.84930929016E+02  0.00000000000E+00 0. -1.
         22    1    3    3    0    0 -0.24517992915E+01  0.49258215457E+02 -0.12498476863E+03  0.13436359439E+03  0.00000000000E+00 0. -1.
         22    1    3    3    0    0 -0.84119028158E+01 -0.50038969000E+02 -0.13440593806E+02  0.52491028656E+02  0.00000000000E+00 0. -1.
</event>
<event>
 7    1  0.8278507E-006  0.1064778E+03  0.7818608E-02  0.1435415E+00
          2   -1    0    0  502    0  0.00000000000E+00  0.00000000000E+00  0.75424376141E+03  0.75424376141E+03  0.00000000000E+00 0. -1.
          1   -1    0    0  501    0 -0.00000000000E+00 -0.00000000000E+00 -0.95549320988E+03  0.95549320988E+03  0.00000000000E+00 0. -1.
         25    2    1    2    0    0 -0.68000520055E+02 -0.63057549659E+02 -0.71352157379E+02  0.17122170925E+03  0.12500167223E+03 0.  0.
          2    1    1    2  501    0  0.62287001337E+02  0.87689622915E+02 -0.83051014094E+03  0.83744625780E+03  0.00000000000E+00 0. -1.
          1    1    1    2  502    0  0.57135187179E+01 -0.24632073256E+02  0.70061284985E+03  0.70106900423E+03  0.00000000000E+00 0. -1.
         22    1    3    3    0    0 -0.51658916356E+02 -0.35821475436E+02 -0.10661178796E+03  0.12376548417E+03  0.00000000000E+00 0.  1.
         22    1    3    3    0    0 -0.16341603699E+02 -0.27236074223E+02  0.35259630577E+02  0.47456225081E+02  0.00000000000E+00 0.  1.
</event>
<event>
 7    1  0.8278507E-006  0.6103019E+02  0.7818608E-02  0.1398672E+00
          2   -1    0    0  502    0  0.00000000000E+00  0.00000000000E+00  0.83187961946E+03  0.83187961946E+03  0.00000000000E+00 0. -1.
          1   -1    0    0  501    0 -0.00000000000E+00 -0.00000000000E+00 -0.15567158515E+04  0.15567158515E+04  0.00000000000E+00 0. -1.
         25    2    1    2    0    0  0.65196861894E+02 -0.61782444358E+02  0.27421677995E+03  0.31446534020E+03  0.12500362615E+03 0.  0.
          2    1    1    2  501    0 -0.60923031340E+02  0.33436595135E+01 -0.15343866511E+04  0.15355992937E+04  0.00000000000E+00 0. -1.
          1    1    1    2  502    0 -0.42738305544E+01  0.58438784844E+02  0.53533363915E+03  0.53853083700E+03  0.00000000000E+00 0. -1.
         22    1    3    3    0    0  0.43393934080E+02 -0.95930538548E+02  0.23748408372E+03  0.25977758133E+03  0.00000000000E+00 0.  1.
         22    1    3    3    0    0  0.21802927814E+02  0.34148094190E+02  0.36732696232E+02  0.54687758873E+02  0.00000000000E+00 0.  1.
</event>
<event>
 7    1  0.8278507E-006  0.6719772E+02  0.7818608E-02  0.1433849E+00
          2   -1    0    0  502    0  0.00000000000E+00  0.00000000000E+00  0.37360764211E+03  0.37360764211E+03  0.00000000000E+00 0. -1.
          1   -1    0    0  501    0 -0.00000000000E+00 -0.00000000000E+00 -0.13707976217E+03  0.13707976217E+03  0.00000000000E+00 0. -1.
         25    2    1    2    0    0 -0.54967138872E+02 -0.10328234318E+02  0.12081036596E+03  0.18261534359E+03  0.12500064165E+03 0.  0.
          2    1    1    2  501    0  0.51708609049E+01 -0.40210898949E+02 -0.96306439089E+02  0.10449203035E+03  0.00000000000E+00 0. -1.
          1    1    1    2  502    0  0.49796277967E+02  0.50539133266E+02  0.21202395306E+03  0.22358003033E+03  0.00000000000E+00 0. -1.
         22    1    3    3    0    0  0.67874912078E+01 -0.41584961435E+02  0.10279426858E+03  0.11109473754E+03  0.00000000000E+00 0.  1.
         22    1    3    3    0    0 -0.61754630080E+02  0.31256727118E+02  0.18016097377E+02  0.71520606059E+02  0.00000000000E+00 0.  1.
</event>
<event>
 7    1  0.8278507E-006  0.7495890E+02  0.7818608E-02  0.1465877E+00
          2   -1    0    0  502    0  0.00000000000E+00  0.00000000000E+00  0.35246733869E+03  0.35246733869E+03  0.00000000000E+00 0. -1.
          1   -1    0    0  501    0 -0.00000000000E+00 -0.00000000000E+00 -0.56065534064E+03  0.56065534064E+03  0.00000000000E+00 0. -1.
         25    2    1    2    0    0  0.59556069509E+01  0.74909394097E+02 -0.20931470863E+03  0.25511613338E+03  0.12499883073E+03 0.  0.
          2    1    1    2  501    0 -0.33779140116E+02 -0.67858406370E+02 -0.32342453633E+03  0.33218853731E+03  0.00000000000E+00 0. -1.
          1    1    1    2  502    0  0.27823533165E+02 -0.70509877268E+01  0.32455124300E+03  0.32581800865E+03  0.00000000000E+00 0. -1.
         22    1    3    3    0    0 -0.16953516678E+02  0.88155243020E+01  0.12299045183E+02  0.22724473787E+02  0.00000000000E+00 0.  1.
         22    1    3    3    0    0  0.22909123629E+02  0.66093869795E+02 -0.22161375381E+03  0.23239165959E+03  0.00000000000E+00 0.  1.
</event>
<event>
 7    1  0.8278507E-006  0.4937243E+02  0.7818608E-02  0.1482180E+00
          2   -1    0    0  502    0  0.00000000000E+00  0.00000000000E+00  0.33101740100E+03  0.33101740100E+03  0.00000000000E+00 0. -1.
          1   -1    0    0  501    0 -0.00000000000E+00 -0.00000000000E+00 -0.60956024069E+03  0.60956024069E+03  0.00000000000E+00 0. -1.
         25    2    1    2    0    0  0.39829119795E+01  0.13516244183E+02 -0.20270806580E+03  0.23856836774E+03  0.12500301477E+03 0.  0.
          2    1    1    2  501    0  0.34217377051E+02  0.18293303126E+02 -0.38597002287E+03  0.38791536756E+03  0.00000000000E+00 0. -1.
          1    1    1    2  502    0 -0.38200289030E+02 -0.31809547309E+02  0.31013524897E+03  0.31409390640E+03  0.00000000000E+00 0. -1.
         22    1    3    3    0    0 -0.28392404514E+02 -0.10668937753E+02 -0.19510426692E+03  0.19744779016E+03  0.00000000000E+00 0.  1.
         22    1    3    3    0    0  0.32375316493E+02  0.24185181936E+02 -0.76037988776E+01  0.41120577582E+02  0.00000000000E+00 0.  1.
</event>
<event>
 7    1  0.8278507E-006  0.7743257E+02  0.7818608E-02  0.1415801E+00
          2   -1    0    0  502    0  0.00000000000E+00  0.00000000000E+00  0.25959931879E+03  0.25959931879E+03  0.00000000000E+00 0. -1.
          1   -1    0    0  501    0 -0.00000000000E+00 -0.00000000000E+00 -0.10496038561E+04  0.10496038561E+04  0.00000000000E+00 0. -1.
         25    2    1    2    0    0 -0.35395398612E+02 -0.25641772576E+02 -0.17946550432E+03  0.22303228028E+03  0.12500078424E+03 0.  0.
          2    1    1    2  501    0  0.49630236383E+02  0.63432690548E+02 -0.84471120538E+03  0.84854221291E+03  0.00000000000E+00 0. -1.
          1    1    1    2  502    0 -0.14234837771E+02 -0.37790917972E+02  0.23417217235E+03  0.23762868175E+03  0.00000000000E+00 0. -1.
         22    1    3    3    0    0  0.27060950005E+02 -0.52137690063E+02 -0.11649907308E+03  0.13047094607E+03  0.00000000000E+00 0. -1.
         22    1    3    3    0    0 -0.62456348617E+02  0.26495917487E+02 -0.62966431239E+02  0.92561334201E+02  0.00000000000E+00 0. -1.
</event>
<event>
 7    1  0.8278507E-006  0.5235632E+02  0.7818608E-02  0.1459916E+00
          2   -1    0    0  502    0  0.00000000000E+00  0.00000000000E+00  0.70139980631E+03  0.70139980631E+03  0.00000000000E+00 0. -1.
          1   -1    0    0  501    0 -0.00000000000E+00 -0.00000000000E+00 -0.32708503333E+03  0.32708503333E+03  0.00000000000E+00 0. -1.
         25    2    1    2    0    0  0.24957439715E+02 -0.11314428246E-01  0.22794528762E+03  0.26116462560E+03  0.12500013437E+03 0.  0.
          2    1    1    2  501    0  0.13433350708E+02  0.40748194739E+02 -0.30726452638E+03  0.31024564374E+03  0.00000000000E+00 0. -1.
          1    1    1    2  502    0 -0.38390790423E+02 -0.40736880310E+02  0.45363401174E+03  0.45707457030E+03  0.00000000000E+00 0. -1.
         22    1    3    3    0    0  0.69954484821E+02 -0.29503541028E+01  0.79090790415E+02  0.10562995628E+03  0.00000000000E+00 0. -1.
         22    1    3    3    0    0 -0.44997045105E+02  0.29390396746E+01  0.14885449720E+03  0.15553466932E+03  0.00000000000E+00 0. -1.
</event>
<event>
 7    1  0.8278507E-006  0.8129830E+02  0.7818608E-02  0.1383864E+00
          2   -1    0    0  502    0  0.00000000000E+00  0.00000000000E+00  0.33176587543E+03  0.33176587543E+03  0.00000000000E+00 0. -1.
          1   -1    0    0  501    0 -0.00000000000E+00 -0.00000000000E+00 -0.18654949479E+04  0.18654949479E+04  0.00000000000E+00 0. -1.
         25    2    1    2    0    0 -0.55961240211E+02  0.37288584314E+02 -0.31857308292E+03  0.34876347021E+03  0.12500020026E+03 0.  0.
          2    1    1    2  501    0 -0.25614352967E+02 -0.42397218320E+02 -0.15261439944E+04  0.15269476451E+04  0.00000000000E+00 0. -1.
          1    1    1    2  502    0  0.81575593177E+02  0.51086340064E+01  0.31098800488E+03  0.32154970801E+03  0.00000000000E+00 0. -1.
         22    1    3    3    0    0 -0.35891282849E+02 -0.40105525547E+02 -0.18894525494E+03  0.19646105651E+03  0.00000000000E+00 0. -1.
         22    1    3    3    0    0 -0.20069957361E+02  0.77394109860E+02 -0.12962782798E+03  0.15230241369E+03  0.00000000000E+00 0. -1.
</event>
<event>
 7    1  0.8278507E-006  0.6875984E+02  0.7818608E-02  0.1451755E+00
          2   -1    0    0  502    0  0.00000000000E+00  0.00000000000E+00  0.50735537302E+03  0.50735537302E+03  0.00000000000E+00 0. -1.
          1   -1    0    0  501    0 -0.00000000000E+00 -0.00000000000E+00 -0.54957089643E+03  0.54957089643E+03  0.00000000000E+00 0. -1.
         25    2    1    2    0    0  0.49726420152E+02 -0.32669309912E+02 -0.45794338192E+02  0.14581645493E+03  0.12500126578E+03 0.  0.
          2    1    1    2  501    0 -0.31465885839E+02  0.62149151527E+02 -0.45042686764E+03  0.45578172638E+03  0.00000000000E+00 0. -1.
          1    1    1    2  502    0 -0.18260534313E+02 -0.29479841614E+02  0.45400568242E+03  0.45532808814E+03  0.00000000000E+00 0. -1.
         22    1    3    3    0    0  0.17493267549E+02  0.42521721204E+02 -0.44515147607E+02  0.63997730820E+02  0.00000000000E+00 0. -1.
         22    1    3    3    0    0  0.32233152604E+02 -0.75191031116E+02 -0.12791905848E+01  0.81818724114E+02  0.00000000000E+00 0. -1.
</event>
<event>
 7    1  0.8278507E-006  0.1348727E+03  0.7818608E-02  0.1243471E+00
          2   -1    0    0  502    0  0.00000000000E+00  0.00000000000E+00  0.23805808442E+04  0.23805808442E+04  0.00000000000E+00 0. -1.
          1   -1    0    0  501    0 -0.00000000000E+00 -0.00000000000E+00 -0.47252077144E+03  0.47252077144E+03  0.00000000000E+00 0. -1.
         25    2    1    2    0    0 -0.14681970009E+03  0.71849663696E+01  0.68760412087E+01  0.19307889038E+03  0.12499811956E+03 0.  0.
          2    1    1    2  501    0  0.54082265191E+02  0.91589674573E+02 -0.36990605311E+03  0.38489485320E+03  0.00000000000E+00 0. -1.
          1    1    1    2  502    0  0.92737434896E+02 -0.98774640943E+02  0.22710900846E+04  0.22751278720E+04  0.00000000000E+00 0. -1.
         22    1    3    3    0    0 -0.10434943690E+03  0.61673087964E+02  0.19733832459E+02  0.12280797573E+03  0.00000000000E+00 0.  1.
         22    1    3    3    0    0 -0.42470263192E+02 -0.54488121594E+02 -0.12857791251E+02  0.70270914654E+02  0.00000000000E+00 0.  1.
</event>
<event>
 7    1  0.8278507E-006  0.5988172E+02  0.7818608E-02  0.1422319E+00
          2   -1    0    0  502    0  0.00000000000E+00  0.00000000000E+00  0.16017343039E+04  0.16017343039E+04  0.00000000000E+00 0. -1.
          1   -1    0    0  501    0 -0.00000000000E+00 -0.00000000000E+00 -0.38531104828E+02  0.38531104828E+02  0.00000000000E+00 0. -1.
         25    2    1    2    0    0  0.12625930308E+02  0.52048937562E+01  0.14439161979E+03  0.19145624990E+03  0.12498020133E+03 0.  0.
          2    1    1    2  501    0  0.48295578724E+02 -0.11571429541E+02  0.28720560178E+02  0.57369255554E+02  0.00000000000E+00 0. -1.
          1    1    1    2  502    0 -0.60921509031E+02  0.63665357846E+01  0.13900910192E+04  0.13914399033E+04  0.00000000000E+00 0. -1.
         22    1    3    3    0    0 -0.33045463235E+02 -0.31516294854E+01  0.14105333621E+03  0.14490679441E+03  0.00000000000E+00 0.  1.
         22    1    3    3    0    0  0.45671393543E+02  0.83565232417E+01  0.33382835747E+01  0.46549455486E+02  0.00000000000E+00 0.  1.
</event>
<event>
 7    1  0.8278507E-006  0.1550344E+03  0.7818608E-02  0.1381201E+00
          2   -1    0    0  502    0  0.00000000000E+00  0.00000000000E+00  0.46839943257E+03  0.46839943257E+03  0.00000000000E+00 0. -1.
          1   -1    0    0  501    0 -0.00000000000E+00 -0.00000000000E+00 -0.12864225204E+04  0.12864225204E+04  0.00000000000E+00 0. -1.
         25    2    1    2    0    0  0.13451333927E+03  0.36703729988E+02 -0.13190066613E+03  0.22904419287E+03  0.12498981690E+03 0.  0.
          2    1    1    2  501    0  0.20601364594E+02 -0.16736974834E+02 -0.10912180524E+04  0.10915408285E+04  0.00000000000E+00 0. -1.
          1    1    1    2  502    0 -0.15511470386E+03 -0.19966755154E+02  0.40509563072E+03  0.43423693151E+03  0.00000000000E+00 0. -1.
         22    1    3    3    0    0  0.95463942582E+02 -0.33331414878E+02 -0.10155022820E+03  0.14330665162E+03  0.00000000000E+00 0.  1.
         22    1    3    3    0    0  0.39049396685E+02  0.70035144866E+02 -0.30350437928E+02  0.85737541254E+02  0.00000000000E+00 0.  1.
</event>
<event>
 7    1  0.8278507E-006  0.1384651E+03  0.7818608E-02  0.1336974E+00
          2   -1    0    0  502    0  0.00000000000E+00  0.00000000000E+00  0.92812417888E+03  0.92812417888E+03  0.00000000000E+00 0. -1.
          1   -1    0    0  501    0 -0.00000000000E+00 -0.00000000000E+00 -0.76576708033E+02  0.76576708033E+02  0.00000000000E+00 0. -1.
         25    2    1    2    0    0  0.56356255080E+01 -0.15173955023E+03  0.10627970248E+03  0.22355733202E+03  0.12500341660E+03 0.  0.
          2    1    1    2  501    0  0.23903507724E+02  0.12032216048E+03  0.20316637778E+03  0.23732968007E+03  0.00000000000E+00 0. -1.
          1    1    1    2  502    0 -0.29539133232E+02  0.31417389757E+02  0.54210139058E+03  0.54381387482E+03  0.00000000000E+00 0. -1.
         22    1    3    3    0    0  0.28729933420E+02 -0.38050668136E+01 -0.13350761972E+02  0.31908156528E+02  0.00000000000E+00 0. -1.
         22    1    3    3    0    0 -0.23094307912E+02 -0.14793448342E+03  0.11963046446E+03  0.19164917550E+03  0.00000000000E+00 0. -1.
</event>
<event>
 7    1  0.8278507E-006  0.6514155E+02  0.7818608E-02  0.1474007E+00
          2   -1    0    0  502    0  0.00000000000E+00  0.00000000000E+00  0.55152521686E+03  0.55152521686E+03  0.00000000000E+00 0. -1.
          1   -1    0    0  501    0 -0.00000000000E+00 -0.00000000000E+00 -0.55083849558E+03  0.55083849558E+03  0.00000000000E+00 0. -1.
         25    2    1    2    0    0 -0.14202719754E+02  0.34821688231E+02  0.67241980462E+02  0.14683565923E+03  0.12499983866E+03 0.  0.
          2    1    1    2  501    0  0.24018585624E+01  0.31067549433E+02 -0.50804147010E+03  0.50899616589E+03  0.00000000000E+00 0. -1.
          1    1    1    2  502    0  0.11800861192E+02 -0.65889237664E+02  0.44148621091E+03  0.44653188732E+03  0.00000000000E+00 0. -1.
         22    1    3    3    0    0 -0.12357248657E+02  0.49543334679E+02  0.99217477078E+02  0.11158562346E+03  0.00000000000E+00 0.  1.
         22    1    3    3    0    0 -0.18454710972E+01 -0.14721646448E+02 -0.31975496616E+02  0.35250035766E+02  0.00000000000E+00 0.  1.
</event>
<event>
 7    1  0.8278507E-006  0.3899801E+02  0.7818608E-02  0.1521974E+00
          2   -1    0    0  502    0  0.00000000000E+00  0.00000000000E+00  0.25725967640E+03  0.25725967640E+03  0.00000000000E+00 0. -1.
          1   -1    0    0  501    0 -0.00000000000E+00 -0.00000000000E+00 -0.44762434182E+03  0.44762434182E+03  0.00000000000E+00 0. -1.
         25    2    1    2    0    0  0.64822867714E+02  0.34726908633E+02 -0.17410467908E+03  0.22659591389E+03  0.12500122620E+03 0.  0.
          2    1    1    2  501    0 -0.27148791461E+02 -0.25720109756E+02 -0.24421680047E+03  0.24706360832E+03  0.00000000000E+00 0. -1.
          1    1    1    2  502    0 -0.37674076253E+02 -0.90067988775E+01  0.22795681413E+03  0.23122449601E+03  0.00000000000E+00 0. -1.
         22    1    3    3    0    0  0.64346702171E+02 -0.36367343767E+02 -0.86861681832E+02  0.11405276649E+03  0.00000000000E+00 0.  1.
         22    1    3    3    0    0  0.47616554339E+00  0.71094252401E+02 -0.87242997251E+02  0.11254314740E+03  0.00000000000E+00 0.  1.
</event>
<event>
 7    1  0.8278507E-006  0.4012039E+02  0.7818608E-02  0.1546132E+00
          2   -1    0    0  502    0  0.00000000000E+00  0.00000000000E+00  0.22672496727E+03  0.22672496727E+03  0.00000000000E+00 0. -1.
          1   -1    0    0  501    0 -0.00000000000E+00 -0.00000000000E+00 -0.11873610801E+04  0.11873610801E+04  0.00000000000E+00 0. -1.
         25    2    1    2    0    0 -0.24604698637E+01  0.20751169877E+02 -0.45842823493E+03  0.47562390749E+03  0.12499995932E+03 0.  0.
          2    1    1    2  501    0  0.33079693149E+02 -0.25739267770E+02 -0.71861821956E+03  0.71983951092E+03  0.00000000000E+00 0. -1.
          1    1    1    2  502    0 -0.30619223285E+02  0.49880978929E+01  0.21641034161E+03  0.21862262900E+03  0.00000000000E+00 0. -1.
         22    1    3    3    0    0 -0.40121951602E+02  0.16760069791E+02 -0.53559129849E+02  0.68987327314E+02  0.00000000000E+00 0.  1.
         22    1    3    3    0    0  0.37661481738E+02  0.39911000857E+01 -0.40486910508E+03  0.40663658017E+03  0.00000000000E+00 0.  1.
</event>
<event>
 7    1  0.8278507E-006  0.1083084E+03  0.7818608E-02  0.1303951E+00
          2   -1    0    0  502    0  0.00000000000E+00  0.00000000000E+00  0.51301506302E+02  0.51301506302E+02  0.00000000000E+00 0. -1.
          1   -1    0    0  501    0 -0.00000000000E+00 -0.00000000000E+00 -0.21794558780E+04  0.21794558780E+04  0.00000000000E+00 0. -1.
         25    2    1    2    0    0  0.13803965947E+02  0.12550636579E+03 -0.37616842987E+03  0.41601584051E+03  0.12499637835E+03 0.  0.
          2    1    1    2  501    0 -0.67219261395E+02 -0.31031421143E+02 -0.16862116065E+04  0.16878361769E+04  0.00000000000E+00 0. -1.
          1    1    1    2  502    0  0.53415295448E+02 -0.94474944648E+02 -0.65774335336E+02  0.12690536688E+03  0.00000000000E+00 0. -1.
         22    1    3    3    0    0 -0.51541687214E+02  0.27591264544E+02 -0.10053888070E+03  0.11630085955E+03  0.00000000000E+00 0. -1.
         22    1    3    3    0    0  0.65345653161E+02  0.97915101247E+02 -0.27562954916E+03  0.29971498096E+03  0.00000000000E+00 0. -1.
</event>
<event>
 7    1  0.8278507E-006  0.1645322E+03  0.7818608E-02  0.1276990E+00
          2   -1    0    0  502    0  0.00000000000E+00  0.00000000000E+00  0.60501068869E+03  0.60501068869E+03  0.00000000000E+00 0. -1.
          1   -1    0    0  501    0 -0.00000000000E+00 -0.00000000000E+00 -0.30803802904E+03  0.30803802904E+03  0.00000000000E+00 0. -1.
         25    2    1    2    0    0  0.10742866801E+03  0.89534254590E+02  0.45617484353E+02  0.19303279207E+03  0.12499360976E+03 0.  0.
          2    1    1    2  501    0 -0.87782860730E+02 -0.14910332956E+03 -0.19992321663E+03  0.26439917941E+03  0.00000000000E+00 0. -1.
          1    1    1    2  502    0 -0.19645807283E+02  0.59569074972E+02  0.45127839193E+03  0.45561674625E+03  0.00000000000E+00 0. -1.
         22    1    3    3    0    0  0.28107323193E+02  0.73334491434E+02 -0.28226919524E+02  0.83454947348E+02  0.00000000000E+00 0.  1.
         22    1    3    3    0    0  0.79321344821E+02  0.16199763156E+02  0.73844403878E+02  0.10957784472E+03  0.00000000000E+00 0.  1.
</event>
<event>
 7    1  0.8278507E-006  0.3591541E+02  0.7818608E-02  0.1603834E+00
          2   -1    0    0  502    0  0.00000000000E+00  0.00000000000E+00  0.92885538101E+03  0.92885538101E+03  0.00000000000E+00 0. -1.
          1   -1    0    0  501    0 -0.00000000000E+00 -0.00000000000E+00 -0.36513629074E+03  0.36513629074E+03  0.00000000000E+00 0. -1.
         25    2    1    2    0    0 -0.79142723571E+01 -0.14243181022E+02  0.40560633007E+03  0.42474412463E+03  0.12500229000E+03 0.  0.
          2    1    1    2  501    0  0.32030575567E+02  0.16355021600E+02 -0.35437150876E+03  0.35619181732E+03  0.00000000000E+00 0. -1.
          1    1    1    2  502    0 -0.24116303209E+02 -0.21118405779E+01  0.51248426897E+03  0.51305572981E+03  0.00000000000E+00 0. -1.
         22    1    3    3    0    0  0.10148269114E+02  0.53993083277E+02  0.19712760237E+03  0.20464000592E+03  0.00000000000E+00 0.  1.
         22    1    3    3    0    0 -0.18062541471E+02 -0.68236264299E+02  0.20847872770E+03  0.22010411871E+03  0.00000000000E+00 0.  1.
</event>
<event>
 7    1  0.8278507E-006  0.1365021E+03  0.7818608E-02  0.1268402E+00
          2   -1    0    0  502    0  0.00000000000E+00  0.00000000000E+00  0.28737144339E+04  0.28737144339E+04  0.00000000000E+00 0. -1.
          1   -1    0    0  501    0 -0.00000000000E+00 -0.00000000000E+00 -0.11359167624E+03  0.11359167624E+03  0.00000000000E+00 0. -1.
         25    2    1    2    0    0  0.41161843196E+01  0.57594172217E+02  0.11751705697E+04  0.11832076461E+04  0.12498173549E+03 0.  0.
          2    1    1    2  501    0 -0.21806733745E+02 -0.13778872177E+03 -0.63730609827E+02  0.15337162747E+03  0.00000000000E+00 0. -1.
          1    1    1    2  502    0  0.17690549426E+02  0.80194549550E+02  0.16486827978E+04  0.16507268366E+04  0.00000000000E+00 0. -1.
         22    1    3    3    0    0  0.60246409112E+02  0.18337355667E+02  0.74053540214E+03  0.74320829533E+03  0.00000000000E+00 0.  1.
         22    1    3    3    0    0 -0.56130224793E+02  0.39256816550E+02  0.43463516754E+03  0.43999935073E+03  0.00000000000E+00 0.  1.
</event>
<event>
 7    1  0.8278507E-006  0.3851348E+02  0.7818608E-02  0.1597648E+00
          2   -1    0    0  502    0  0.00000000000E+00  0.00000000000E+00  0.57227996946E+02  0.57227996946E+02  0.00000000000E+00 0. -1.
          1   -1    0    0  501    0 -0.00000000000E+00 -0.00000000000E+00 -0.24065286055E+03  0.24065286055E+03  0.00000000000E+00 0. -1.
         25    2    1    2    0    0  0.10147435189E+02 -0.23700293318E+02 -0.66458118345E+02  0.14389803556E+03  0.12500115519E+03 0.  0.
          2    1    1    2  501    0  0.74346292076E+01  0.39187821290E+02 -0.12339906864E+03  0.12968534686E+03  0.00000000000E+00 0. -1.
          1    1    1    2  502    0 -0.17582064396E+02 -0.15487527972E+02  0.64323233824E+01  0.24297475079E+02  0.00000000000E+00 0. -1.
         22    1    3    3    0    0  0.27070295486E+02  0.43938095182E+02 -0.66439651385E+01  0.52033636992E+02  0.00000000000E+00 0.  1.
         22    1    3    3    0    0 -0.16922860297E+02 -0.67638388500E+02 -0.59814153207E+02  0.91864398563E+02  0.00000000000E+00 0.  1.
</event>
<event>
 7    1  0.8278507E-006  0.7850526E+02  0.7818608E-02  0.1351945E+00
          2   -1    0    0  502    0  0.00000000000E+00  0.00000000000E+00  0.15668976094E+03  0.15668976094E+03  0.00000000000E+00 0. -1.
          1   -1    0    0  501    0 -0.00000000000E+00 -0.00000000000E+00 -0.14407205922E+04  0.14407205922E+04  0.00000000000E+00 0. -1.
         25    2    1    2    0    0 -0.91624087653E+01 -0.97437297397E+01 -0.12949334832E+02  0.12637572762E+03  0.12499699698E+03 0.  0.
          2    1    1    2  501    0  0.66056778758E+02  0.44876140676E+02 -0.13585720868E+04  0.13609171471E+04  0.00000000000E+00 0. -1.
          1    1    1    2  502    0 -0.56894369993E+02 -0.35132410936E+02  0.87490590452E+02  0.11011747842E+03  0.00000000000E+00 0. -1.
         22    1    3    3    0    0 -0.63063428491E+02  0.46725615488E+01  0.13448563538E+02  0.64650542965E+02  0.00000000000E+00 0. -1.
         22    1    3    3    0    0  0.53901019725E+02 -0.14416291288E+02 -0.26397898370E+02  0.61725184652E+02  0.00000000000E+00 0. -1.
</event>
<event>
 7    1  0.8278507E-006  0.1184101E+03  0.7818608E-02  0.1260159E+00
          2   -1    0    0  502    0  0.00000000000E+00  0.00000000000E+00  0.99184206645E+03  0.99184206645E+03  0.00000000000E+00 0. -1.
          1   -1    0    0  501    0 -0.00000000000E+00 -0.00000000000E+00 -0.63768903087E+03  0.63768903087E+03  0.00000000000E+00 0. -1.
         25    2    1    2    0    0 -0.23646102539E+02  0.97797750452E+00  0.32841657023E+02  0.13138874537E+03  0.12499733345E+03 0.  0.
          2    1    1    2  501    0  0.12608487867E+03 -0.67303567332E+01 -0.57869354332E+03  0.59230812202E+03  0.00000000000E+00 0. -1.
          1    1    1    2  502    0 -0.10243877613E+03  0.57523792287E+01  0.90000492188E+03  0.90583422993E+03  0.00000000000E+00 0. -1.
         22    1    3    3    0    0 -0.40747055490E+02  0.36357518839E+02  0.61877890803E+02  0.82529177128E+02  0.00000000000E+00 0.  1.
         22    1    3    3    0    0  0.17100952952E+02 -0.35379541335E+02 -0.29036233780E+02  0.48859568244E+02  0.00000000000E+00 0.  1.
</event>
<event>
 7    1  0.8278507E-006  0.8878678E+02  0.7818608E-02  0.1324228E+00
          2   -1    0    0  502    0  0.00000000000E+00  0.00000000000E+00  0.59138904033E+03  0.59138904033E+03  0.00000000000E+00 0. -1.
          1   -1    0    0  501    0 -0.00000000000E+00 -0.00000000000E+00 -0.17297114814E+03  0.17297114814E+03  0.00000000000E+00 0. -1.
         25    2    1    2    0    0 -0.22141754735E+00  0.99995465630E+02  0.13048525920E+03  0.20652109704E+03  0.12500167391E+03 0.  0.
          2    1    1    2  501    0  0.65369999567E+02 -0.62388189347E+02 -0.11595435907E+03  0.14700658625E+03  0.00000000000E+00 0. -1.
          1    1    1    2  502    0 -0.65148582019E+02 -0.37607276283E+02  0.40388699205E+03  0.41083250519E+03  0.00000000000E+00 0. -1.
         22    1    3    3    0    0 -0.52034816547E+01  0.16759713642E+02 -0.24731128390E+02  0.30324790751E+02  0.00000000000E+00 0.  1.
         22    1    3    3    0    0  0.49820641073E+01  0.83235751989E+02  0.15521638759E+03  0.17619630629E+03  0.00000000000E+00 0.  1.
</event>
<event>
 7    1  0.8278507E-006  0.7012395E+02  0.7818608E-02  0.1395292E+00
          2   -1    0    0  502    0  0.00000000000E+00  0.00000000000E+00  0.19480936572E+04  0.19480936572E+04  0.00000000000E+00 0. -1.
          1   -1    0    0  501    0 -0.00000000000E+00 -0.00000000000E+00 -0.11407300803E+03  0.11407300803E+03  0.00000000000E+00 0. -1.
         25    2    1    2    0    0  0.58340705269E+02 -0.78757289531E+02  0.92450754725E+03  0.93805464791E+03  0.12500387591E+03 0.  0.
          2    1    1    2  501    0 -0.67574687332E+01  0.69622804238E+02 -0.95143730807E+02  0.11809033731E+03  0.00000000000E+00 0. -1.
          1    1    1    2  502    0 -0.51583236535E+02  0.91344852937E+01  0.10046568328E+04  0.10060216801E+04  0.00000000000E+00 0. -1.
         22    1    3    3    0    0  0.14256127292E+02  0.34349086723E+02  0.24048948293E+03  0.24334808058E+03  0.00000000000E+00 0.  1.
         22    1    3    3    0    0  0.44084577977E+02 -0.11310637625E+03  0.68401806432E+03  0.69470656732E+03  0.00000000000E+00 0.  1.
</event>
<event>
 7    1  0.8278507E-006  0.6554160E+02  0.7818608E-02  0.1438430E+00
          2   -1    0    0  502    0  0.00000000000E+00  0.00000000000E+00  0.63537737102E+03  0.63537737102E+03  0.00000000000E+00 0. -1.
          1   -1    0    0  501    0 -0.00000000000E+00 -0.00000000000E+00 -0.11924803228E+03  0.11924803228E+03  0.00000000000E+00 0. -1.
         25    2    1    2    0    0  0.29295810095E+02  0.49962461759E+02  0.17854435668E+03  0.22551627394E+03  0.12500004175E+03 0.  0.
          2    1    1    2  501    0 -0.61406000125E+02 -0.25842818315E+02 -0.83101485387E+02  0.10651011681E+03  0.00000000000E+00 0. -1.
          1    1    1    2  502    0  0.32110190031E+02 -0.24119643444E+02  0.42068646745E+03  0.42259901254E+03  0.00000000000E+00 0. -1.
         22    1    3    3    0    0  0.54245852009E+01  0.23247215710E+02  0.18715356507E+03  0.18866986002E+03  0.00000000000E+00 0.  1.
         22    1    3    3    0    0  0.23871224894E+02  0.26715246048E+02 -0.86092083950E+01  0.36846413917E+02  0.00000000000E+00 0.  1.
</event>
<event>
 7    1  0.8278507E-006  0.1992517E+03  0.7818608E-02  0.1304551E+00
          2   -1    0    0  502    0  0.00000000000E+00  0.00000000000E+00  0.21049681983E+03  0.21049681983E+03  0.00000000000E+00 0. -1.
          1   -1    0    0  501    0 -0.00000000000E+00 -0.00000000000E+00 -0.21779637751E+04  0.21779637751E+04  0.00000000000E+00 0. -1.
         25    2    1    2    0    0  0.12508998181E+03  0.16282271166E+03 -0.35817147244E+03  0.43135886039E+03  0.12499969514E+03 0.  0.
          2    1    1    2  501    0  0.24430267114E+02 -0.31702869552E+02 -0.17260361479E+04  0.17265001285E+04  0.00000000000E+00 0. -1.
          1    1    1    2  502    0 -0.14952024893E+03 -0.13111984211E+03  0.11674066505E+03  0.23060160604E+03  0.00000000000E+00 0. -1.
         22    1    3    3    0    0  0.27377018700E+02 -0.18067898623E+02 -0.70650605376E+02  0.77893890348E+02  0.00000000000E+00 0. -1.
         22    1    3    3    0    0  0.97712963112E+02  0.18089061029E+03 -0.28752086707E+03  0.35346497005E+03  0.00000000000E+00 0. -1.
</event>
<event>
 7    1  0.8278507E-006  0.9653010E+02  0.7818608E-02  0.1428236E+00
          2   -1    0    0  502    0  0.00000000000E+00  0.00000000000E+00  0.96941101270E+02  0.96941101270E+02  0.00000000000E+00 0. -1.
          1   -1    0    0  501    0 -0.00000000000E+00 -0.00000000000E+00 -0.17863640983E+04  0.17863640983E+04  0.00000000000E+00 0. -1.
         25    2    1    2    0    0  0.34994977203E+01  0.74149281864E+02 -0.17824501838E+03  0.23001488511E+03  0.12500079323E+03 0.  0.
          2    1    1    2  501    0  0.15436238578E+02 -0.96701334553E+02 -0.15775984179E+04  0.15806347439E+04  0.00000000000E+00 0. -1.
          1    1    1    2  502    0 -0.18935736298E+02  0.22552052689E+02  0.66420439211E+02  0.72655570569E+02  0.00000000000E+00 0. -1.
         22    1    3    3    0    0  0.45086621249E+02  0.89071088438E+02 -0.10838878841E+03  0.14735871764E+03  0.00000000000E+00 0.  1.
         22    1    3    3    0    0 -0.41587123529E+02 -0.14921806575E+02 -0.69856229976E+02  0.82656167473E+02  0.00000000000E+00 0.  1.
</event>
<event>
 7    1  0.8278507E-006  0.1679788E+03  0.7818608E-02  0.1272842E+00
          2   -1    0    0  502    0  0.00000000000E+00  0.00000000000E+00  0.24967103016E+03  0.24967103016E+03  0.00000000000E+00 0. -1.
          1   -1    0    0  501    0 -0.00000000000E+00 -0.00000000000E+00 -0.20905522387E+04  0.20905522387E+04  0.00000000000E+00 0. -1.
         25    2    1    2    0    0  0.47466749506E+02  0.22219548408E+03 -0.28637625511E+03  0.38634182167E+03  0.12499887289E+03 0.  0.
          2    1    1    2  501    0 -0.38126714576E+02 -0.15894919222E+03 -0.17451571235E+04  0.17527954466E+04  0.00000000000E+00 0. -1.
          1    1    1    2  502    0 -0.93400349298E+01 -0.63246291860E+02  0.19065217004E+03  0.20108600058E+03  0.00000000000E+00 0. -1.
         22    1    3    3    0    0  0.77476942528E+01  0.11734638177E+03 -0.23547464278E+03  0.26320810677E+03  0.00000000000E+00 0.  1.
         22    1    3    3    0    0  0.39719055253E+02  0.10484910231E+03 -0.50901612335E+02  0.12313371489E+03  0.00000000000E+00 0.  1.
</event>
<event>
 7    1  0.8278507E-006  0.3837817E+03  0.7818608E-02  0.1140703E+00
          2   -1    0    0  502    0  0.00000000000E+00  0.00000000000E+00  0.18316260965E+04  0.18316260965E+04  0.00000000000E+00 0. -1.
          1   -1    0    0  501    0 -0.00000000000E+00 -0.00000000000E+00 -0.58082604819E+03  0.58082604819E+03  0.00000000000E+00 0. -1.
         25    2    1    2    0    0  0.23045409321E+03 -0.27257714947E+03 -0.48778008929E+02  0.38132326405E+03  0.12498298308E+03 0.  0.
          2    1    1    2  501    0 -0.16925329371E+03  0.37124642057E+03 -0.24914303211E+03  0.47806153648E+03  0.00000000000E+00 0. -1.
          1    1    1    2  502    0 -0.61200799491E+02 -0.98669271091E+02  0.15487210894E+04  0.15530673442E+04  0.00000000000E+00 0. -1.
         22    1    3    3    0    0  0.22232610104E+03 -0.18640566214E+03 -0.23141223794E+02  0.29105237041E+03  0.00000000000E+00 0. -1.
         22    1    3    3    0    0  0.81279921616E+01 -0.86171487335E+02 -0.25636785135E+02  0.90270893637E+02  0.00000000000E+00 0. -1.
</event>
<event>
 7    1  0.8278507E-006  0.1157432E+03  0.7818608E-02  0.1277625E+00
          2   -1    0    0  502    0  0.00000000000E+00  0.00000000000E+00  0.24102593078E+04  0.24102593078E+04  0.00000000000E+00 0. -1.
          1   -1    0    0  501    0 -0.00000000000E+00 -0.00000000000E+00 -0.63407090451E+03  0.63407090451E+03  0.00000000000E+00 0. -1.
         25    2    1    2    0    0 -0.16763998446E+03  0.88133497349E+02 -0.11158691431E+03  0.25286385079E+03  0.12497123607E+03 0.  0.
          2    1    1    2  501    0  0.10676217008E+03 -0.23724666390E+02 -0.44437361220E+03  0.45763405465E+03  0.00000000000E+00 0. -1.
          1    1    1    2  502    0  0.60877814378E+02 -0.64408830959E+02  0.23321489298E+04  0.23338323069E+04  0.00000000000E+00 0. -1.
         22    1    3    3    0    0 -0.99072364788E+02  0.11137967056E+03 -0.10010031249E+03  0.17955733636E+03  0.00000000000E+00 0. -1.
         22    1    3    3    0    0 -0.68567619671E+02 -0.23246173215E+02 -0.11486601825E+02  0.73306514430E+02  0.00000000000E+00 0. -1.
</event>
<event>
 7    1  0.8278507E-006  0.1684462E+03  0.7818608E-02  0.1324146E+00
          2   -1    0    0  502    0  0.00000000000E+00  0.00000000000E+00  0.18073734817E+03  0.18073734817E+03  0.00000000000E+00 0. -1.
          1   -1    0    0  501    0 -0.00000000000E+00 -0.00000000000E+00 -0.22314782626E+04  0.22314782626E+04  0.00000000000E+00 0. -1.
         25    2    1    2    0    0 -0.93167177333E+02  0.14024250616E+03 -0.75337526216E+02  0.22281959860E+03  0.12499898878E+03 0.  0.
          2    1    1    2  501    0  0.12358723032E+03 -0.11476646030E+03 -0.20751783483E+04  0.20820207302E+04  0.00000000000E+00 0. -1.
          1    1    1    2  502    0 -0.30420052984E+02 -0.25476045863E+02  0.99774960024E+02  0.10737528200E+03  0.00000000000E+00 0. -1.
         22    1    3    3    0    0 -0.69107222767E+02  0.29184970748E+01 -0.14318915319E+02  0.70635382066E+02  0.00000000000E+00 0. -1.
         22    1    3    3    0    0 -0.24059954566E+02  0.13732400909E+03 -0.61018610898E+02  0.15218421653E+03  0.00000000000E+00 0. -1.
</event>
<event>
 7    1  0.8278507E-006  0.1660709E+03  0.7818608E-02  0.1296957E+00
          2   -1    0    0  502    0  0.00000000000E+00  0.00000000000E+00  0.25102224251E+04  0.25102224251E+04  0.00000000000E+00 0. -1.
          1   -1    0    0  501    0 -0.00000000000E+00 -0.00000000000E+00 -0.60564804992E+03  0.60564804992E+03  0.00000000000E+00 0. -1.
         25    2    1    2    0    0  0.14583534867E+03  0.50957610426E+02  0.51222247431E+03  0.54941931936E+03  0.12500039327E+03 0.  0.
          2    1    1    2  501    0 -0.13257305080E+03 -0.10071905702E+03 -0.57490110602E+03  0.59852420498E+03  0.00000000000E+00 0. -1.
          1    1    1    2  502    0 -0.13262297870E+02  0.49761446591E+02  0.19672530069E+04  0.19679269507E+04  0.00000000000E+00 0. -1.
         22    1    3    3    0    0  0.14986407912E+03  0.36528000421E+02  0.51168341761E+03  0.53442815877E+03  0.00000000000E+00 0. -1.
         22    1    3    3    0    0 -0.40287304442E+01  0.14429610006E+02  0.53905669910E+00  0.14991160597E+02  0.00000000000E+00 0. -1.
</event>
<event>
 7    1  0.8278507E-006  0.7987923E+02  0.7818608E-02  0.1444171E+00
          2   -1    0    0  502    0  0.00000000000E+00  0.00000000000E+00  0.22035526153E+04  0.22035526153E+04  0.00000000000E+00 0. -1.
          1   -1    0    0  501    0 -0.00000000000E+00 -0.00000000000E+00 -0.53415670144E+02  0.53415670144E+02  0.00000000000E+00 0. -1.
         25    2    1    2    0    0 -0.85619888444E+02  0.78330444356E+01  0.18526182460E+04  0.18588199369E+04  0.12500028106E+03 0.  0.
          2    1    1    2  501    0  0.76659199388E+02  0.22438973078E+02 -0.17318951017E+02  0.81731795697E+02  0.00000000000E+00 0. -1.
          1    1    1    2  502    0  0.89606890562E+01 -0.30272017514E+02  0.31483765012E+03  0.31641655287E+03  0.00000000000E+00 0. -1.
         22    1    3    3    0    0  0.14227411579E+02 -0.30912409877E+02  0.21239955804E+03  0.21510827176E+03  0.00000000000E+00 0. -1.
         22    1    3    3    0    0 -0.99847300023E+02  0.38745454313E+02  0.16402186880E+04  0.16437116651E+04  0.00000000000E+00 0. -1.
</event>
<event>
 7    1  0.8278507E-006  0.3783668E+02  0.7818608E-02  0.1582714E+00
          2   -1    0    0  502    0  0.00000000000E+00  0.00000000000E+00  0.39607413266E+03  0.39607413266E+03  0.00000000000E+00 0. -1.
          1   -1    0    0  501    0 -0.00000000000E+00 -0.00000000000E+00 -0.35534064138E+03  0.35534064138E+03  0.00000000000E+00 0. -1.
         25    2    1    2    0    0  0.24468414380E+02 -0.55552161845E+02 -0.66118648678E+02  0.15388899206E+03  0.12500160073E+03 0.  0.
          2    1    1    2  501    0 -0.18569312852E+02  0.18371987382E+02 -0.24363066636E+03  0.24502704115E+03  0.00000000000E+00 0. -1.
          1    1    1    2  502    0 -0.58991015280E+01  0.37180174463E+02  0.35048280631E+03  0.35249874084E+03  0.00000000000E+00 0. -1.
         22    1    3    3    0    0 -0.36534669994E+02 -0.29253749619E+02  0.14899844728E+02  0.49117912733E+02  0.00000000000E+00 0. -1.
         22    1    3    3    0    0  0.61003084374E+02 -0.26298412227E+02 -0.81018493406E+02  0.10477107932E+03  0.00000000000E+00 0. -1.
</event>
<event>
 7    1  0.8278507E-006  0.2186963E+03  0.7818608E-02  0.1140250E+00
          2   -1    0    0  502    0  0.00000000000E+00  0.00000000000E+00  0.52874935583E+03  0.52874935583E+03  0.00000000000E+00 0. -1.
          1   -1    0    0  501    0 -0.00000000000E+00 -0.00000000000E+00 -0.34016237889E+04  0.34016237889E+04  0.00000000000E+00 0. -1.
         25    2    1    2    0    0 -0.22636185167E+03 -0.29237757175E+03 -0.57139518790E+03  0.69198413464E+03  0.12500099792E+03 0.  0.
          2    1    1    2  501    0  0.40081431457E+02  0.20710566645E+03 -0.27432905124E+04  0.27513891244E+04  0.00000000000E+00 0. -1.
          1    1    1    2  502    0  0.18628042022E+03  0.85271905302E+02  0.44181126726E+03  0.48699988570E+03  0.00000000000E+00 0. -1.
         22    1    3    3    0    0 -0.59867918988E+02 -0.17521700416E+03 -0.30325776528E+03  0.35531737710E+03  0.00000000000E+00 0. -1.
         22    1    3    3    0    0 -0.16649393268E+03 -0.11716056759E+03 -0.26813742262E+03  0.33666675753E+03  0.00000000000E+00 0. -1.
</event>
<event>
 7    1  0.8278507E-006  0.1059048E+03  0.7818608E-02  0.1399998E+00
          2   -1    0    0  502    0  0.00000000000E+00  0.00000000000E+00  0.14659719620E+04  0.14659719620E+04  0.00000000000E+00 0. -1.
          1   -1    0    0  501    0 -0.00000000000E+00 -0.00000000000E+00 -0.61156711798E+03  0.61156711798E+03  0.00000000000E+00 0. -1.
         25    2    1    2    0    0  0.13978192873E+02 -0.13302219530E+03 -0.25143615129E+02  0.18479062346E+03  0.12500031528E+03 0.  0.
          2    1    1    2  501    0  0.12478989997E+02  0.30996116829E+02 -0.50404241277E+03  0.50514872891E+03  0.00000000000E+00 0. -1.
          1    1    1    2  502    0 -0.26457182869E+02  0.10202607847E+03  0.13835908719E+04  0.13875997276E+04  0.00000000000E+00 0. -1.
         22    1    3    3    0    0 -0.31825177689E+02  0.28433728393E+00  0.19021633801E+02  0.37077558376E+02  0.00000000000E+00 0. -1.
         22    1    3    3    0    0  0.45803370562E+02 -0.13330653258E+03 -0.44165248931E+02  0.14771306508E+03  0.00000000000E+00 0. -1.
</event>
<event>
 7    1  0.8278507E-006  0.1725214E+03  0.7818608E-02  0.1350771E+00
          2   -1    0    0  502    0  0.00000000000E+00  0.00000000000E+00  0.23306190906E+04  0.23306190906E+04  0.00000000000E+00 0. -1.
          1   -1    0    0  501    0 -0.00000000000E+00 -0.00000000000E+00 -0.21281218963E+03  0.21281218963E+03  0.00000000000E+00 0. -1.
         25    2    1    2    0    0 -0.12934819930E+02 -0.20061793309E+03  0.51938784320E+02  0.24236181543E+03  0.12500699028E+03 0.  0.
          2    1    1    2  501    0 -0.59825989588E+01  0.30145350418E+02 -0.11216193875E+03  0.11629632043E+03  0.00000000000E+00 0. -1.
          1    1    1    2  502    0  0.18917418889E+02  0.17047258267E+03  0.21780300554E+04  0.21847731444E+04  0.00000000000E+00 0. -1.
         22    1    3    3    0    0  0.16736612486E+02 -0.32883387825E+02  0.61538882388E+02  0.71752807875E+02  0.00000000000E+00 0.  1.
         22    1    3    3    0    0 -0.29671432416E+02 -0.16773454526E+03 -0.96000980680E+01  0.17060900756E+03  0.00000000000E+00 0.  1.
</event>
<event>
 7    1  0.8278507E-006  0.5997365E+02  0.7818608E-02  0.1526854E+00
          2   -1    0    0  502    0  0.00000000000E+00  0.00000000000E+00  0.14258595064E+03  0.14258595064E+03  0.00000000000E+00 0. -1.
          1   -1    0    0  501    0 -0.00000000000E+00 -0.00000000000E+00 -0.61372474929E+03  0.61372474929E+03  0.00000000000E+00 0. -1.
         25    2    1    2    0    0  0.61307416126E+01  0.50241581934E+02 -0.53034524594E+02  0.14490978687E+03  0.12499753191E+03 0.  0.
          2    1    1    2  501    0 -0.21775213771E+02  0.89474642827E+01 -0.50475546219E+03  0.50530415955E+03  0.00000000000E+00 0. -1.
          1    1    1    2  502    0  0.15644472158E+02 -0.59189046217E+02  0.86651188134E+02  0.10609675351E+03  0.00000000000E+00 0. -1.
         22    1    3    3    0    0  0.30075374619E+02  0.56073557887E+02  0.20901218640E+02  0.66974868370E+02  0.00000000000E+00 0. -1.
         22    1    3    3    0    0 -0.23944633006E+02 -0.58319759535E+01 -0.73935743235E+02  0.77934918496E+02  0.00000000000E+00 0. -1.
</event>
<event>
 7    1  0.8278507E-006  0.1064357E+03  0.7818608E-02  0.1397513E+00
          2   -1    0    0  502    0  0.00000000000E+00  0.00000000000E+00  0.29449841777E+03  0.29449841777E+03  0.00000000000E+00 0. -1.
          1   -1    0    0  501    0 -0.00000000000E+00 -0.00000000000E+00 -0.40061537620E+03  0.40061537620E+03  0.00000000000E+00 0. -1.
         25    2    1    2    0    0 -0.82535358543E+02  0.14826252832E+02  0.46336141728E+02  0.15749289163E+03  0.12500027880E+03 0.  0.
          2    1    1    2  501    0 -0.31018404434E+02 -0.13699903849E+02 -0.32734431821E+03  0.32909593046E+03  0.00000000000E+00 0. -1.
          1    1    1    2  502    0  0.11355376298E+03 -0.11263489831E+01  0.17489121805E+03  0.20852497188E+03  0.00000000000E+00 0. -1.
         22    1    3    3    0    0 -0.14059551877E+02  0.64366247300E+02  0.17165721369E+02  0.68083381090E+02  0.00000000000E+00 0. -1.
         22    1    3    3    0    0 -0.68475806665E+02 -0.49539994468E+02  0.29170420359E+02  0.89409510536E+02  0.00000000000E+00 0. -1.
</event>
<event>
 7    1  0.8278507E-006  0.9161885E+02  0.7818608E-02  0.1429199E+00
          2   -1    0    0  502    0  0.00000000000E+00  0.00000000000E+00  0.15734016400E+04  0.15734016400E+04  0.00000000000E+00 0. -1.
          1   -1    0    0  501    0 -0.00000000000E+00 -0.00000000000E+00 -0.18377003088E+04  0.18377003088E+04  0.00000000000E+00 0. -1.
         25    2    1    2    0    0 -0.13628223740E+02  0.12083991236E+03 -0.93467255503E+02  0.19785941839E+03  0.12499683473E+03 0.  0.
          2    1    1    2  501    0  0.12440319373E+02 -0.90062855905E+02 -0.16906595108E+04  0.16931023776E+04  0.00000000000E+00 0. -1.
          1    1    1    2  502    0  0.11879043666E+01 -0.30777056455E+02  0.15198280974E+04  0.15201401528E+04  0.00000000000E+00 0. -1.
         22    1    3    3    0    0  0.52913215955E+02  0.71148235425E+02 -0.65469840445E+02  0.11021878168E+03  0.00000000000E+00 0.  1.
         22    1    3    3    0    0 -0.66541439695E+02  0.49691676935E+02 -0.27997415058E+02  0.87640636712E+02  0.00000000000E+00 0.  1.
</event>
<event>
 7    1  0.8278507E-006  0.8308296E+02  0.7818608E-02  0.1328118E+00
          2   -1    0    0  502    0  0.00000000000E+00  0.00000000000E+00  0.83593203436E+03  0.83593203436E+03  0.00000000000E+00 0. -1.
          1   -1    0    0  501    0 -0.00000000000E+00 -0.00000000000E+00 -0.12333635496E+03  0.12333635496E+03  0.00000000000E+00 0. -1.
         25    2    1    2    0    0 -0.20612130401E+02  0.68129624986E+02  0.31255958458E+03  0.34407150273E+03  0.12500079744E+03 0.  0.
          2    1    1    2  501    0 -0.67846217915E+02 -0.37805259502E+02 -0.88525166316E+02  0.11776693935E+03  0.00000000000E+00 0. -1.
          1    1    1    2  502    0  0.88458348316E+02 -0.30324365484E+02  0.48856126114E+03  0.49742994724E+03  0.00000000000E+00 0. -1.
         22    1    3    3    0    0  0.41904831621E+01  0.10044597174E+03  0.19060482405E+03  0.21549281273E+03  0.00000000000E+00 0.  1.
         22    1    3    3    0    0 -0.24802613563E+02 -0.32316346752E+02  0.12195476053E+03  0.12857869000E+03  0.00000000000E+00 0.  1.
</event>
<event>
 7    1  0.8278507E-006  0.9037484E+02  0.7818608E-02  0.1324810E+00
          2   -1    0    0  502    0  0.00000000000E+00  0.00000000000E+00  0.20239006528E+04  0.20239006528E+04  0.00000000000E+00 0. -1.
          1   -1    0    0  501    0 -0.00000000000E+00 -0.00000000000E+00 -0.26369833114E+03  0.26369833114E+03  0.00000000000E+00 0. -1.
         25    2    1    2    0    0  0.12389733608E+03  0.37996664139E+02  0.71055819158E+02  0.19356436096E+03  0.12499574403E+03 0.  0.
          2    1    1    2  501    0 -0.66487236921E+02  0.31382663203E+02 -0.19465761084E+03  0.20807933506E+03  0.00000000000E+00 0. -1.
          1    1    1    2  502    0 -0.57410099157E+02 -0.69379327343E+02  0.18838041134E+04  0.18859552880E+04  0.00000000000E+00 0. -1.
         22    1    3    3    0    0  0.99278866866E+02 -0.25729186672E+02  0.71886331886E+02  0.12524347953E+03  0.00000000000E+00 0. -1.
         22    1    3    3    0    0  0.24618469212E+02  0.63725850811E+02 -0.83051272796E+00  0.68320881430E+02  0.00000000000E+00 0. -1.
</event>
<event>
 7    1  0.8278507E-006  0.1130059E+03  0.7818608E-02  0.1340262E+00
          2   -1    0    0  502    0  0.00000000000E+00  0.00000000000E+00  0.59071649507E+03  0.59071649507E+03  0.00000000000E+00 0. -1.
          1   -1    0    0  501    0 -0.00000000000E+00 -0.00000000000E+00 -0.18553690302E+03  0.18553690302E+03  0.00000000000E+00 0. -1.
         25    2    1    2    0    0 -0.94921350394E+02  0.74606930815E+02 -0.15520568101E+02  0.17447639236E+03  0.12499946628E+03 0.  0.
          2    1    1    2  501    0  0.50841226889E+02 -0.10094949898E+03 -0.53326214790E+02  0.12497726545E+03  0.00000000000E+00 0. -1.
          1    1    1    2  502    0  0.44080123506E+02  0.26342568169E+02  0.47402637494E+03  0.47679974027E+03  0.00000000000E+00 0. -1.
         22    1    3    3    0    0 -0.90442413906E+02  0.68170157983E+01 -0.44003172052E+02  0.10080962795E+03  0.00000000000E+00 0. -1.
         22    1    3    3    0    0 -0.44789364885E+01  0.67789915017E+02  0.28482603951E+02  0.73666764405E+02  0.00000000000E+00 0. -1.
</event>
<event>
 7    1  0.8278507E-006  0.7632257E+02  0.7818608E-02  0.1351668E+00
          2   -1    0    0  502    0  0.00000000000E+00  0.00000000000E+00  0.14132172676E+04  0.14132172676E+04  0.00000000000E+00 0. -1.
          1   -1    0    0  501    0 -0.00000000000E+00 -0.00000000000E+00 -0.11545480173E+04  0.11545480173E+04  0.00000000000E+00 0. -1.
         25    2    1    2    0    0 -0.12124977004E+03 -0.75992268905E+01  0.90235549297E+02  0.19628313420E+03  0.12500143772E+03 0.  0.
          2    1    1    2  501    0  0.62397849142E+02  0.43507298935E+02 -0.10992732232E+04  0.11019019901E+04  0.00000000000E+00 0. -1.
          1    1    1    2  502    0  0.58851920897E+02 -0.35908072045E+02  0.12677069242E+04  0.12695801605E+04  0.00000000000E+00 0. -1.
         22    1    3    3    0    0 -0.20825753030E+02  0.39288087047E+02  0.71030542559E+02  0.83800977019E+02  0.00000000000E+00 0. -1.
         22    1    3    3    0    0 -0.10042401701E+03 -0.46887313938E+02  0.19205006739E+02  0.11248215718E+03  0.00000000000E+00 0. -1.
</event>
<event>
 7    1  0.8278507E-006  0.4315961E+03  0.7818608E-02  0.1149231E+00
          2   -1    0    0  502    0  0.00000000000E+00  0.00000000000E+00  0.77088657519E+03  0.77088657519E+03  0.00000000000E+00 0. -1.
          1   -1    0    0  501    0 -0.00000000000E+00 -0.00000000000E+00 -0.49973017208E+03  0.49973017208E+03  0.00000000000E+00 0. -1.
         25    2    1    2    0    0  0.25619267583E+03  0.26599641696E+03  0.26467290427E+03  0.47123822651E+03  0.12499975555E+03 0.  0.
          2    1    1    2  501    0 -0.34414385584E+03 -0.29694905779E+03 -0.25540458006E+03  0.52138779805E+03  0.00000000000E+00 0. -1.
          1    1    1    2  502    0  0.87951180011E+02  0.30952640833E+02  0.26188807890E+03  0.27799072270E+03  0.00000000000E+00 0. -1.
         22    1    3    3    0    0  0.68031774026E+02  0.12861711191E+03  0.48367527586E+02  0.15333004101E+03  0.00000000000E+00 0. -1.
         22    1    3    3    0    0  0.18816090180E+03  0.13737930505E+03  0.21630537669E+03  0.31790818550E+03  0.00000000000E+00 0. -1.
</event>
<event>
 7    1  0.8278507E-006  0.6380998E+02  0.7818608E-02  0.1470599E+00
          2   -1    0    0  502    0  0.00000000000E+00  0.00000000000E+00  0.70022675831E+02  0.70022675831E+02  0.00000000000E+00 0. -1.
          1   -1    0    0  501    0 -0.00000000000E+00 -0.00000000000E+00 -0.77773303638E+03  0.77773303638E+03  0.00000000000E+00 0. -1.
         25    2    1    2    0    0 -0.20708876954E+01 -0.40671532945E+02 -0.27620975357E+03  0.30590061968E+03  0.12499959595E+03 0.  0.
          2    1    1    2  501    0 -0.19646322728E+02  0.64976497972E+02 -0.47925455576E+03  0.48403806927E+03  0.00000000000E+00 0. -1.
          1    1    1    2  502    0  0.21717210423E+02 -0.24304965027E+02  0.47753948783E+02  0.57817023254E+02  0.00000000000E+00 0. -1.
         22    1    3    3    0    0  0.52115361031E+01 -0.85034212504E+02 -0.20050220442E+03  0.21785112205E+03  0.00000000000E+00 0.  1.
         22    1    3    3    0    0 -0.72824237986E+01  0.44362679559E+02 -0.75707549153E+02  0.88049497629E+02  0.00000000000E+00 0.  1.
</event>
<event>
 7    1  0.8278507E-006  0.2868953E+02  0.7818608E-02  0.1635480E+00
          2   -1    0    0  502    0  0.00000000000E+00  0.00000000000E+00  0.21610634694E+04  0.21610634694E+04  0.00000000000E+00 0. -1.
          1   -1    0    0  501    0 -0.00000000000E+00 -0.00000000000E+00 -0.60349678831E+03  0.60349678831E+03  0.00000000000E+00 0. -1.
         25    2    1    2    0    0 -0.24050354974E+02  0.29726427447E+02  0.18411550147E+04  0.18457896225E+04  0.12500185051E+03 0.  0.
          2    1    1    2  501    0  0.28265914444E+02 -0.49118689341E+01 -0.60033767884E+03  0.60102280906E+03  0.00000000000E+00 0. -1.
          1    1    1    2  502    0 -0.42155594705E+01 -0.24814558513E+02  0.31674934527E+03  0.31774782609E+03  0.00000000000E+00 0. -1.
         22    1    3    3    0    0 -0.70588904961E+01 -0.42126861605E+02  0.31927482551E+03  0.32211941048E+03  0.00000000000E+00 0.  1.
         22    1    3    3    0    0 -0.16991464477E+02  0.71853289052E+02  0.15218801891E+04  0.15236702121E+04  0.00000000000E+00 0.  1.
</event>
<event>
 7    1  0.8278507E-006  0.8931603E+02  0.7818608E-02  0.1361867E+00
          2   -1    0    0  502    0  0.00000000000E+00  0.00000000000E+00  0.41238682857E+03  0.41238682857E+03  0.00000000000E+00 0. -1.
          1   -1    0    0  501    0 -0.00000000000E+00 -0.00000000000E+00 -0.36924493629E+03  0.36924493629E+03  0.00000000000E+00 0. -1.
         25    2    1    2    0    0  0.49888496504E+02  0.23957077850E+02 -0.97985676321E+02  0.16819400320E+03  0.12500090514E+03 0.  0.
          2    1    1    2  501    0 -0.10079021045E+03 -0.57772588475E+01 -0.22328031397E+03  0.24504314283E+03  0.00000000000E+00 0. -1.
          1    1    1    2  502    0  0.50901713944E+02 -0.18179819003E+02  0.36440788257E+03  0.36839461882E+03  0.00000000000E+00 0. -1.
         22    1    3    3    0    0  0.50465328800E+02 -0.45077505499E+02 -0.48204044408E+02  0.83080447821E+02  0.00000000000E+00 0.  1.
         22    1    3    3    0    0 -0.57683229549E+00  0.69034583350E+02 -0.49781631913E+02  0.85113555381E+02  0.00000000000E+00 0.  1.
</event>
<event>
 7    1  0.8278507E-006  0.2077308E+03  0.7818608E-02  0.1226830E+00
          2   -1    0    0  502    0  0.00000000000E+00  0.00000000000E+00  0.13824846228E+04  0.13824846228E+04  0.00000000000E+00 0. -1.
          1   -1    0    0  501    0 -0.00000000000E+00 -0.00000000000E+00 -0.11067397123E+03  0.11067397123E+03  0.00000000000E+00 0. -1.
         25    2    1    2    0    0  0.25689337802E+03 -0.14784919978E+01  0.53028546271E+03  0.60234849220E+03  0.12499856194E+03 0.  0.
          2    1    1    2  501    0 -0.19157381540E+03 -0.47902523069E+02  0.62878407940E+02  0.20724109787E+03  0.00000000000E+00 0. -1.
          1    1    1    2  502    0 -0.65319562622E+02  0.49381015067E+02  0.67864678094E+03  0.68356900397E+03  0.00000000000E+00 0. -1.
         22    1    3    3    0    0  0.17578688932E+03  0.57048337283E+02  0.36594331777E+03  0.40996348016E+03  0.00000000000E+00 0.  1.
         22    1    3    3    0    0  0.81106488698E+02 -0.58526829281E+02  0.16434214493E+03  0.19238501204E+03  0.00000000000E+00 0.  1.
</event>
<event>
 7    1  0.8278507E-006  0.6280271E+02  0.7818608E-02  0.1405737E+00
          2   -1    0    0  502    0  0.00000000000E+00  0.00000000000E+00  0.83984734451E+03  0.83984734451E+03  0.00000000000E+00 0. -1.
          1   -1    0    0  501    0 -0.00000000000E+00 -0.00000000000E+00 -0.53177609454E+03  0.53177609454E+03  0.00000000000E+00 0. -1.
         25    2    1    2    0    0  0.11430917324E+02  0.12857630429E+02  0.16544082217E+03  0.20806641671E+03  0.12499993437E+03 0.  0.
          2    1    1    2  501    0 -0.63329417708E+02  0.15198640798E+01 -0.50738014289E+03  0.51131940559E+03  0.00000000000E+00 0. -1.
          1    1    1    2  502    0  0.51898500384E+02 -0.14377494509E+02  0.65001057070E+03  0.65223761675E+03  0.00000000000E+00 0. -1.
         22    1    3    3    0    0  0.38394314741E+02 -0.24533252656E+02  0.10972133370E+02  0.46865676150E+02  0.00000000000E+00 0.  1.
         22    1    3    3    0    0 -0.26963397417E+02  0.37390883085E+02  0.15446868880E+03  0.16120074056E+03  0.00000000000E+00 0.  1.
</event>
<event>
 7    1  0.8278507E-006  0.1087176E+03  0.7818608E-02  0.1309670E+00
          2   -1    0    0  502    0  0.00000000000E+00  0.00000000000E+00  0.67647181966E+03  0.67647181966E+03  0.00000000000E+00 0. -1.
          1   -1    0    0  501    0 -0.00000000000E+00 -0.00000000000E+00 -0.31766393796E+03  0.31766393796E+03  0.00000000000E+00 0. -1.
         25    2    1    2    0    0 -0.18462388069E+01  0.11467935209E+02 -0.12355121918E+03  0.17614541439E+03  0.12500952408E+03 0.  0.
          2    1    1    2  501    0 -0.32184745891E+02 -0.11472202524E+03 -0.14135412150E+03  0.18487289852E+03  0.00000000000E+00 0. -1.
          1    1    1    2  502    0  0.34030984698E+02  0.10325409003E+03  0.62371322239E+03  0.63311744472E+03  0.00000000000E+00 0. -1.
         22    1    3    3    0    0  0.58162576526E+02  0.19788217168E+02 -0.41450801027E+02  0.74112264522E+02  0.00000000000E+00 0. -1.
         22    1    3    3    0    0 -0.60008815333E+02 -0.83202819591E+01 -0.82100418157E+02  0.10203314986E+03  0.00000000000E+00 0. -1.
</event>
<event>
 7    1  0.8278507E-006  0.1043289E+03  0.7818608E-02  0.1374266E+00
          2   -1    0    0  502    0  0.00000000000E+00  0.00000000000E+00  0.14694640829E+02  0.14694640829E+02  0.00000000000E+00 0. -1.
          1   -1    0    0  501    0 -0.00000000000E+00 -0.00000000000E+00 -0.22258990545E+04  0.22258990545E+04  0.00000000000E+00 0. -1.
         25    2    1    2    0    0  0.72018046539E+02  0.22313158712E+02 -0.93587102413E+03  0.94719003741E+03  0.12501966675E+03 0.  0.
          2    1    1    2  501    0  0.36682575205E+02  0.19929538146E+02 -0.88591022131E+03  0.88689329574E+03  0.00000000000E+00 0. -1.
          1    1    1    2  502    0 -0.10870062174E+03 -0.42242696857E+02 -0.38942316825E+03  0.40651036220E+03  0.00000000000E+00 0. -1.
         22    1    3    3    0    0  0.71927814605E+02 -0.38316853385E+02 -0.64021708269E+03  0.64538337811E+03  0.00000000000E+00 0. -1.
         22    1    3    3    0    0  0.90231934335E-01  0.60630012097E+02 -0.29565394144E+03  0.30180665930E+03  0.00000000000E+00 0. -1.
</event>
<event>
 7    1  0.8278507E-006  0.5542644E+02  0.7818608E-02  0.1478202E+00
          2   -1    0    0  502    0  0.00000000000E+00  0.00000000000E+00  0.59742257046E+03  0.59742257046E+03  0.00000000000E+00 0. -1.
          1   -1    0    0  501    0 -0.00000000000E+00 -0.00000000000E+00 -0.20513055908E+03  0.20513055908E+03  0.00000000000E+00 0. -1.
         25    2    1    2    0    0 -0.33780893851E+02 -0.15624271671E+02  0.29136541549E+03  0.31922493046E+03  0.12500193690E+03 0.  0.
          2    1    1    2  501    0 -0.26428519050E+02  0.23772585984E+02 -0.18634320178E+03  0.18970342989E+03  0.00000000000E+00 0. -1.
          1    1    1    2  502    0  0.60209412901E+02 -0.81483143130E+01  0.28726979767E+03  0.29362476919E+03  0.00000000000E+00 0. -1.
         22    1    3    3    0    0  0.14038497679E+02 -0.32645852502E+02  0.25329550470E+03  0.25577615956E+03  0.00000000000E+00 0. -1.
         22    1    3    3    0    0 -0.47819391531E+02  0.17021580831E+02  0.38069910796E+02  0.63448770897E+02  0.00000000000E+00 0. -1.
</event>
<event>
 7    1  0.8278507E-006  0.9202592E+02  0.7818608E-02  0.1396957E+00
          2   -1    0    0  502    0  0.00000000000E+00  0.00000000000E+00  0.22109457672E+03  0.22109457672E+03  0.00000000000E+00 0. -1.
          1   -1    0    0  501    0 -0.00000000000E+00 -0.00000000000E+00 -0.12806453835E+04  0.12806453835E+04  0.00000000000E+00 0. -1.
         25    2    1    2    0    0  0.53217812605E+02  0.55710902593E+02 -0.85528470424E+03  0.86779681020E+03  0.12499415283E+03 0.  0.
          2    1    1    2  501    0  0.32682044589E+02 -0.21991920029E+02 -0.40820305647E+03  0.41009937320E+03  0.00000000000E+00 0. -1.
          1    1    1    2  502    0 -0.85899857195E+02 -0.33718982564E+02  0.20393695393E+03  0.22384377683E+03  0.00000000000E+00 0. -1.
         22    1    3    3    0    0 -0.23569155444E+02  0.25878376519E+02 -0.70609594526E+02  0.78809328754E+02  0.00000000000E+00 0. -1.
         22    1    3    3    0    0  0.76786968049E+02  0.29832526074E+02 -0.78467510971E+03  0.78898748144E+03  0.00000000000E+00 0. -1.
</event>
<event>
 7    1  0.8278507E-006  0.9154258E+02  0.7818608E-02  0.1348700E+00
          2   -1    0    0  502    0  0.00000000000E+00  0.00000000000E+00  0.25333878795E+04  0.25333878795E+04  0.00000000000E+00 0. -1.
          1   -1    0    0  501    0 -0.00000000000E+00 -0.00000000000E+00 -0.40045978159E+02  0.40045978159E+02  0.00000000000E+00 0. -1.
         25    2    1    2    0    0 -0.32151495955E+02 -0.53963656909E+02  0.90402009160E+03  0.91478032908E+03  0.12499971797E+03 0.  0.
          2    1    1    2  501    0  0.33098107461E+02 -0.48785250292E+02 -0.66952429934E+01  0.59332214203E+02  0.00000000000E+00 0. -1.
          1    1    1    2  502    0 -0.94661150556E+00  0.10274890720E+03  0.15960170528E+04  0.15993213144E+04  0.00000000000E+00 0. -1.
         22    1    3    3    0    0 -0.11975405035E+02 -0.41867609493E+02  0.88028907304E+03  0.88136550826E+03  0.00000000000E+00 0.  1.
         22    1    3    3    0    0 -0.20176090920E+02 -0.12096047416E+02  0.23731018560E+02  0.33414820811E+02  0.00000000000E+00 0.  1.
</event>
<event>
 7    1  0.8278507E-006  0.3072002E+02  0.7818608E-02  0.1663141E+00
          2   -1    0    0  502    0  0.00000000000E+00  0.00000000000E+00  0.62217113686E+03  0.62217113686E+03  0.00000000000E+00 0. -1.
          1   -1    0    0  501    0 -0.00000000000E+00 -0.00000000000E+00 -0.23139399372E+03  0.23139399372E+03  0.00000000000E+00 0. -1.
         25    2    1    2    0    0 -0.19435318592E+01  0.50029880778E+02  0.16112988997E+03  0.20998509264E+03  0.12499652555E+03 0.  0.
          2    1    1    2  501    0  0.51049507721E+01 -0.30175659072E+02 -0.20560170862E+03  0.20786700919E+03  0.00000000000E+00 0. -1.
          1    1    1    2  502    0 -0.31614189128E+01 -0.19854221705E+02  0.43524896179E+03  0.43571302876E+03  0.00000000000E+00 0. -1.
         22    1    3    3    0    0 -0.55018974334E+02 -0.67232122164E+01  0.51879011978E+02  0.75919174147E+02  0.00000000000E+00 0. -1.
         22    1    3    3    0    0  0.53075442475E+02  0.56753092994E+02  0.10925087799E+03  0.13406591849E+03  0.00000000000E+00 0. -1.
</event>
<event>
 7    1  0.8278507E-006  0.1764687E+03  0.7818608E-02  0.1218297E+00
          2   -1    0    0  502    0  0.00000000000E+00  0.00000000000E+00  0.23342774243E+04  0.23342774243E+04  0.00000000000E+00 0. -1.
          1   -1    0    0  501    0 -0.00000000000E+00 -0.00000000000E+00 -0.12455898786E+04  0.12455898786E+04  0.00000000000E+00 0. -1.
         25    2    1    2    0    0 -0.24609143587E+03  0.66916013519E+01  0.13795667222E+03  0.30864824192E+03  0.12500368592E+03 0.  0.
          2    1    1    2  501    0  0.16434896524E+03  0.59822274303E+02 -0.11523260737E+04  0.11655233447E+04  0.00000000000E+00 0. -1.
          1    1    1    2  502    0  0.81742470631E+02 -0.66513875654E+02  0.21030569472E+04  0.21056957164E+04  0.00000000000E+00 0. -1.
         22    1    3    3    0    0 -0.89873875674E+02  0.42375025176E+00 -0.13606828407E+02  0.90899058698E+02  0.00000000000E+00 0. -1.
         22    1    3    3    0    0 -0.15621756020E+03  0.62678511001E+01  0.15156350063E+03  0.21774918323E+03  0.00000000000E+00 0. -1.
</event>
<event>
 7    1  0.8278507E-006  0.7648552E+02  0.7818608E-02  0.1357114E+00
          2   -1    0    0  502    0  0.00000000000E+00  0.00000000000E+00  0.40351869351E+03  0.40351869351E+03  0.00000000000E+00 0. -1.
          1   -1    0    0  501    0 -0.00000000000E+00 -0.00000000000E+00 -0.38093923880E+03  0.38093923880E+03  0.00000000000E+00 0. -1.
         25    2    1    2    0    0  0.82327543455E+02 -0.99101716008E+02 -0.18070377738E+03  0.25472451172E+03  0.12502698584E+03 0.  0.
          2    1    1    2  501    0 -0.29287078497E+02  0.60344605792E+02 -0.15320384077E+03  0.16724419644E+03  0.00000000000E+00 0. -1.
          1    1    1    2  502    0 -0.53040464957E+02  0.38757110217E+02  0.35648707286E+03  0.36248922415E+03  0.00000000000E+00 0. -1.
         22    1    3    3    0    0 -0.46255747462E+01 -0.31383913493E+02 -0.12926400638E+03  0.13309969689E+03  0.00000000000E+00 0.  1.
         22    1    3    3    0    0  0.86953118201E+02 -0.67717802515E+02 -0.51439770997E+02  0.12162481483E+03  0.00000000000E+00 0.  1.
</event>
<event>
 7    1  0.8278507E-006  0.1969872E+03  0.7818608E-02  0.1217970E+00
          2   -1    0    0  502    0  0.00000000000E+00  0.00000000000E+00  0.12990531702E+04  0.12990531702E+04  0.00000000000E+00 0. -1.
          1   -1    0    0  501    0 -0.00000000000E+00 -0.00000000000E+00 -0.68032464304E+03  0.68032464304E+03  0.00000000000E+00 0. -1.
         25    2    1    2    0    0  0.17215834025E+03 -0.52741161983E+02  0.75695442027E+03  0.78805155465E+03  0.12500053650E+03 0.  0.
          2    1    1    2  501    0  0.11608671713E+02 -0.94018882742E+02 -0.63482490707E+03  0.64185432475E+03  0.00000000000E+00 0. -1.
          1    1    1    2  502    0 -0.18376701197E+03  0.14676004473E+03  0.49659901397E+03  0.54947193385E+03  0.00000000000E+00 0. -1.
         22    1    3    3    0    0 -0.11156215489E+02 -0.30641258785E+02  0.15598184616E+03  0.15935395889E+03  0.00000000000E+00 0.  1.
         22    1    3    3    0    0  0.18331455574E+03 -0.22099903198E+02  0.60097257411E+03  0.62869759575E+03  0.00000000000E+00 0.  1.
</event>
<event>
 7    1  0.8278507E-006  0.1733887E+03  0.7818608E-02  0.1202311E+00
          2   -1    0    0  502    0  0.00000000000E+00  0.00000000000E+00  0.74167502500E+03  0.74167502500E+03  0.00000000000E+00 0. -1.
          1   -1    0    0  501    0 -0.00000000000E+00 -0.00000000000E+00 -0.55342202632E+03  0.55342202632E+03  0.00000000000E+00 0. -1.
         25    2    1    2    0    0 -0.25078959498E+03 -0.89655343759E+00 -0.44265193768E+02  0.28368933411E+03  0.12499602454E+03 0.  0.
          2    1    1    2  501    0  0.14777428499E+03 -0.73733712994E+02 -0.36493413200E+03  0.40056312915E+03  0.00000000000E+00 0. -1.
          1    1    1    2  502    0  0.10301530999E+03  0.74630266432E+02  0.59745232445E+03  0.61084458805E+03  0.00000000000E+00 0. -1.
         22    1    3    3    0    0 -0.62044192177E+02  0.16364907037E+02  0.40697585277E+02  0.75984112896E+02  0.00000000000E+00 0. -1.
         22    1    3    3    0    0 -0.18874540280E+03 -0.17261460475E+02 -0.84962779044E+02  0.20770522122E+03  0.00000000000E+00 0. -1.
</event>
<event>
 7    1  0.8278507E-006  0.1011255E+03  0.7818608E-02  0.1355940E+00
          2   -1    0    0  502    0  0.00000000000E+00  0.00000000000E+00  0.22859073455E+04  0.22859073455E+04  0.00000000000E+00 0. -1.
          1   -1    0    0  501    0 -0.00000000000E+00 -0.00000000000E+00 -0.37059844655E+02  0.37059844655E+02  0.00000000000E+00 0. -1.
         25    2    1    2    0    0 -0.53511084306E+02  0.37295555694E+02  0.55746564015E+03  0.57501958124E+03  0.12500073698E+03 0.  0.
          2    1    1    2  501    0 -0.50023795098E+02 -0.39657220584E+01 -0.28180998527E+01  0.50259812119E+02  0.00000000000E+00 0. -1.
          1    1    1    2  502    0  0.10353487940E+03 -0.33329833636E+02  0.16941999606E+04  0.16976877968E+04  0.00000000000E+00 0. -1.
         22    1    3    3    0    0 -0.88165894163E+02  0.35672614041E+02  0.28725248682E+03  0.30258841926E+03  0.00000000000E+00 0.  1.
         22    1    3    3    0    0  0.34654809858E+02  0.16229416534E+01  0.27021315333E+03  0.27243116198E+03  0.00000000000E+00 0.  1.
</event>
<event>
 7    1  0.8278507E-006  0.6064381E+02  0.7818608E-02  0.1395616E+00
          2   -1    0    0  502    0  0.00000000000E+00  0.00000000000E+00  0.28321067149E+04  0.28321067149E+04  0.00000000000E+00 0. -1.
          1   -1    0    0  501    0 -0.00000000000E+00 -0.00000000000E+00 -0.69694484334E+03  0.69694484334E+03  0.00000000000E+00 0. -1.
         25    2    1    2    0    0  0.49196338572E+01 -0.31309169089E+02  0.13335486091E+03  0.18553058909E+03  0.12503445003E+03 0.  0.
          2    1    1    2  501    0 -0.60228820753E+02  0.47901027395E+01 -0.66914378472E+03  0.67186595431E+03  0.00000000000E+00 0. -1.
          1    1    1    2  502    0  0.55309186896E+02  0.26519066350E+02  0.26709507953E+04  0.26716550148E+04  0.00000000000E+00 0. -1.
         22    1    3    3    0    0  0.21305959737E+02 -0.71806594841E+02  0.11692112607E+03  0.13885489082E+03  0.00000000000E+00 0.  1.
         22    1    3    3    0    0 -0.16386325880E+02  0.40497425752E+02  0.16433734839E+02  0.46675698272E+02  0.00000000000E+00 0.  1.
</event>
<event>
 7    1  0.8278507E-006  0.6488725E+02  0.7818608E-02  0.1493389E+00
          2   -1    0    0  502    0  0.00000000000E+00  0.00000000000E+00  0.34817193887E+02  0.34817193887E+02  0.00000000000E+00 0. -1.
          1   -1    0    0  501    0 -0.00000000000E+00 -0.00000000000E+00 -0.29397871347E+04  0.29397871347E+04  0.00000000000E+00 0. -1.
         25    2    1    2    0    0  0.38984861249E+02 -0.12955775207E+02 -0.10994669442E+04  0.11073116625E+04  0.12499554000E+03 0.  0.
          2    1    1    2  501    0  0.26411697678E+02  0.69028125760E+01 -0.18012736961E+04  0.18014805452E+04  0.00000000000E+00 0. -1.
          1    1    1    2  502    0 -0.65396558926E+02  0.60529626310E+01 -0.42293005835E+01  0.65812120916E+02  0.00000000000E+00 0. -1.
         22    1    3    3    0    0  0.13149302848E+02 -0.16465336887E+02 -0.10587665846E+04  0.10589762472E+04  0.00000000000E+00 0. -1.
         22    1    3    3    0    0  0.25835558401E+02  0.35095616798E+01 -0.40700359622E+02  0.48335415323E+02  0.00000000000E+00 0. -1.
</event>
<event>
 7    1  0.8278507E-006  0.9567452E+02  0.7818608E-02  0.1430962E+00
          2   -1    0    0  502    0  0.00000000000E+00  0.00000000000E+00  0.76543540784E+03  0.76543540784E+03  0.00000000000E+00 0. -1.
          1   -1    0    0  501    0 -0.00000000000E+00 -0.00000000000E+00 -0.83367804403E+02  0.83367804403E+02  0.00000000000E+00 0. -1.
         25    2    1    2    0    0 -0.82694056307E+02  0.82163128068E+02  0.44141828904E+03  0.47335455867E+03  0.12500138297E+03 0.  0.
          2    1    1    2  501    0  0.77620174284E+02 -0.53505967233E+02 -0.33280761321E+02  0.99976942640E+02  0.00000000000E+00 0. -1.
          1    1    1    2  502    0  0.50738820230E+01 -0.28657160835E+02  0.27393007572E+03  0.27547171094E+03  0.00000000000E+00 0. -1.
         22    1    3    3    0    0 -0.98646775089E+02  0.76876549822E+02  0.23459495274E+03  0.26584954768E+03  0.00000000000E+00 0.  1.
         22    1    3    3    0    0  0.15952718782E+02  0.52865782458E+01  0.20682333630E+03  0.20750501099E+03  0.00000000000E+00 0.  1.
</event>
<event>
 7    1  0.8278507E-006  0.8505528E+02  0.7818608E-02  0.1334447E+00
          2   -1    0    0  502    0  0.00000000000E+00  0.00000000000E+00  0.13476559464E+04  0.13476559464E+04  0.00000000000E+00 0. -1.
          1   -1    0    0  501    0 -0.00000000000E+00 -0.00000000000E+00 -0.53553088546E+03  0.53553088546E+03  0.00000000000E+00 0. -1.
         25    2    1    2    0    0 -0.12184625270E+02 -0.10477513756E+03 -0.36668554678E+03  0.40150653935E+03  0.12499166524E+03 0.  0.
          2    1    1    2  501    0 -0.48422645128E+02  0.66341548766E+02 -0.13924969810E+03  0.16166765933E+03  0.00000000000E+00 0. -1.
          1    1    1    2  502    0  0.60607270398E+02  0.38433588796E+02  0.13180603058E+04  0.13200126332E+04  0.00000000000E+00 0. -1.
         22    1    3    3    0    0  0.41496590819E+00 -0.95223268262E+02 -0.11492258536E+03  0.14924759174E+03  0.00000000000E+00 0. -1.
         22    1    3    3    0    0 -0.12599591178E+02 -0.95518693002E+01 -0.25176296142E+03  0.25225894761E+03  0.00000000000E+00 0. -1.
</event>
<event>
 7    1  0.8278507E-006  0.1152770E+03  0.7818608E-02  0.1341528E+00
          2   -1    0    0  502    0  0.00000000000E+00  0.00000000000E+00  0.29740967705E+04  0.29740967705E+04  0.00000000000E+00 0. -1.
          1   -1    0    0  501    0 -0.00000000000E+00 -0.00000000000E+00 -0.11302961706E+03  0.11302961706E+03  0.00000000000E+00 0. -1.
         25    2    1    2    0    0 -0.26132359881E+02 -0.78377183427E+02  0.22439203256E+04  0.22489173421E+04  0.12499960316E+03 0.  0.
          2    1    1    2  501    0 -0.69464553248E+01  0.11559321064E+03 -0.79065093273E+02  0.14021887377E+03  0.00000000000E+00 0. -1.
          1    1    1    2  502    0  0.33078815206E+02 -0.37216027214E+02  0.69621192109E+03  0.69799017168E+03  0.00000000000E+00 0. -1.
         22    1    3    3    0    0 -0.38962144829E+02 -0.13491538584E+02  0.17616623232E+04  0.17621447759E+04  0.00000000000E+00 0. -1.
         22    1    3    3    0    0  0.12829784948E+02 -0.64885644843E+02  0.48225800237E+03  0.48677256613E+03  0.00000000000E+00 0. -1.
</event>
<event>
 7    1  0.8278507E-006  0.7359862E+02  0.7818608E-02  0.1397449E+00
          2   -1    0    0  502    0  0.00000000000E+00  0.00000000000E+00  0.59798079926E+03  0.59798079926E+03  0.00000000000E+00 0. -1.
          1   -1    0    0  501    0 -0.00000000000E+00 -0.00000000000E+00 -0.41432385556E+04  0.41432385556E+04  0.00000000000E+00 0. -1.
         25    2    1    2    0    0  0.47534829239E+02  0.30251943337E+01 -0.63427905856E+02  0.14804032935E+03  0.12499651228E+03 0.  0.
          2    1    1    2  501    0 -0.58831896565E+02  0.44719411499E+02 -0.40360825495E+04  0.40367590174E+04  0.00000000000E+00 0. -1.
          1    1    1    2  502    0  0.11297067326E+02 -0.47744605833E+02  0.55425269901E+03  0.55642000816E+03  0.00000000000E+00 0. -1.
         22    1    3    3    0    0  0.35751815180E+02 -0.47917818266E+02  0.71414921350E+01  0.60210551450E+02  0.00000000000E+00 0. -1.
         22    1    3    3    0    0  0.11783014059E+02  0.50943012600E+02 -0.70569397991E+02  0.87829777899E+02  0.00000000000E+00 0. -1.
</event>
<event>
 7    1  0.8278507E-006  0.4179609E+02  0.7818608E-02  0.1532580E+00
          2   -1    0    0  502    0  0.00000000000E+00  0.00000000000E+00  0.28881755841E+03  0.28881755841E+03  0.00000000000E+00 0. -1.
          1   -1    0    0  501    0 -0.00000000000E+00 -0.00000000000E+00 -0.20638575546E+04  0.20638575546E+04  0.00000000000E+00 0. -1.
         25    2    1    2    0    0 -0.11799834849E+02 -0.10599502660E+02 -0.13520645853E+03  0.18481670560E+03  0.12499937072E+03 0.  0.
          2    1    1    2  501    0  0.85347275479E+01 -0.31388010034E+02 -0.19020265512E+04  0.19023046681E+04  0.00000000000E+00 0. -1.
          1    1    1    2  502    0  0.32651073011E+01  0.41987512694E+02  0.26219301352E+03  0.26555373936E+03  0.00000000000E+00 0. -1.
         22    1    3    3    0    0 -0.23001343065E+02 -0.65131995342E+02 -0.87666411756E+02  0.11160931122E+03  0.00000000000E+00 0.  1.
         22    1    3    3    0    0  0.11201508216E+02  0.54532492682E+02 -0.47540046776E+02  0.73207394380E+02  0.00000000000E+00 0.  1.
</event>
<event>
 7    1  0.8278507E-006  0.1423659E+03  0.7818608E-02  0.1316110E+00
          2   -1    0    0  502    0  0.00000000000E+00  0.00000000000E+00  0.12954503233E+03  0.12954503233E+03  0.00000000000E+00 0. -1.
          1   -1    0    0  501    0 -0.00000000000E+00 -0.00000000000E+00 -0.83956060596E+03  0.83956060596E+03  0.00000000000E+00 0. -1.
         25    2    1    2    0    0 -0.16995262164E+03 -0.69471814956E+02 -0.13714737582E+03  0.26104261070E+03  0.12499446081E+03 0.  0.
          2    1    1    2  501    0  0.13294968440E+03  0.35191997875E+02 -0.62237319283E+03  0.63738723430E+03  0.00000000000E+00 0. -1.
          1    1    1    2  502    0  0.37002937235E+02  0.34279817081E+02  0.49504995026E+02  0.70675793279E+02  0.00000000000E+00 0. -1.
         22    1    3    3    0    0 -0.59106707912E+02 -0.72499945090E+02 -0.12763656857E+02  0.94407393220E+02  0.00000000000E+00 0. -1.
         22    1    3    3    0    0 -0.11084591372E+03  0.30281301342E+01 -0.12438371897E+03  0.16663521748E+03  0.00000000000E+00 0. -1.
</event>
<event>
 7    1  0.8278507E-006  0.9942121E+02  0.7818608E-02  0.1293062E+00
          2   -1    0    0  502    0  0.00000000000E+00  0.00000000000E+00  0.12331146335E+04  0.12331146335E+04  0.00000000000E+00 0. -1.
          1   -1    0    0  501    0 -0.00000000000E+00 -0.00000000000E+00 -0.40152008235E+03  0.40152008235E+03  0.00000000000E+00 0. -1.
         25    2    1    2    0    0 -0.52445619949E+02 -0.15852775048E+03  0.16361144343E+03  0.26508986842E+03  0.12498937231E+03 0.  0.
          2    1    1    2  501    0  0.67581332543E+02  0.70630152343E+02 -0.34196672944E+03  0.35566430658E+03  0.00000000000E+00 0. -1.
          1    1    1    2  502    0 -0.15135712594E+02  0.87897598142E+02  0.10099498372E+04  0.10138805409E+04  0.00000000000E+00 0. -1.
         22    1    3    3    0    0 -0.42352024604E+02 -0.13463340490E+03  0.18414228993E+03  0.23200911759E+03  0.00000000000E+00 0.  1.
         22    1    3    3    0    0 -0.10093595345E+02 -0.23894345586E+02 -0.20530846495E+02  0.33080750835E+02  0.00000000000E+00 0.  1.
</event>
<event>
 7    1  0.8278507E-006  0.1194628E+03  0.7818608E-02  0.1260540E+00
          2   -1    0    0  502    0  0.00000000000E+00  0.00000000000E+00  0.33962015504E+03  0.33962015504E+03  0.00000000000E+00 0. -1.
          1   -1    0    0  501    0 -0.00000000000E+00 -0.00000000000E+00 -0.12453063274E+04  0.12453063274E+04  0.00000000000E+00 0. -1.
         25    2    1    2    0    0  0.42495454091E+02 -0.50756739298E+02 -0.47264906562E+03  0.49336571446E+03  0.12502191318E+03 0.  0.
          2    1    1    2  501    0 -0.11611873451E+03  0.12035988365E+03 -0.74500874093E+03  0.76354966188E+03  0.00000000000E+00 0. -1.
          1    1    1    2  502    0  0.73623280418E+02 -0.69603144349E+02  0.31197163424E+03  0.32801110605E+03  0.00000000000E+00 0. -1.
         22    1    3    3    0    0  0.70840203769E+02 -0.14652538664E+02 -0.40628072220E+03  0.41267063936E+03  0.00000000000E+00 0. -1.
         22    1    3    3    0    0 -0.28344749678E+02 -0.36104200634E+02 -0.66368343422E+02  0.80695075105E+02  0.00000000000E+00 0. -1.
</event>
<event>
 7    1  0.8278507E-006  0.1416413E+03  0.7818608E-02  0.1299971E+00
          2   -1    0    0  502    0  0.00000000000E+00  0.00000000000E+00  0.42077228072E+03  0.42077228072E+03  0.00000000000E+00 0. -1.
          1   -1    0    0  501    0 -0.00000000000E+00 -0.00000000000E+00 -0.66450373681E+03  0.66450373681E+03  0.00000000000E+00 0. -1.
         25    2    1    2    0    0  0.64823944557E+02  0.17814290038E+03 -0.17625453302E+03  0.28745345870E+03  0.12500717485E+03 0.  0.
          2    1    1    2  501    0 -0.42084257945E+02 -0.40953852881E+02 -0.41728008827E+03  0.42139171195E+03  0.00000000000E+00 0. -1.
          1    1    1    2  502    0 -0.22739686612E+02 -0.13718904750E+03  0.34980316521E+03  0.37643084689E+03  0.00000000000E+00 0. -1.
         22    1    3    3    0    0  0.50206394352E+02  0.11930559405E+03 -0.35532736257E+02  0.13422772498E+03  0.00000000000E+00 0. -1.
         22    1    3    3    0    0  0.14617550205E+02  0.58837306322E+02 -0.14072179677E+03  0.15322573372E+03  0.00000000000E+00 0. -1.
</event>
<event>
 7    1  0.8278507E-006  0.5968653E+02  0.7818608E-02  0.1427757E+00
          2   -1    0    0  502    0  0.00000000000E+00  0.00000000000E+00  0.10597177435E+04  0.10597177435E+04  0.00000000000E+00 0. -1.
          1   -1    0    0  501    0 -0.00000000000E+00 -0.00000000000E+00 -0.42851874145E+03  0.42851874145E+03  0.00000000000E+00 0. -1.
         25    2    1    2    0    0  0.14878202373E+02  0.17691807977E+02  0.73769287613E+02  0.14697161098E+03  0.12499754263E+03 0.  0.
          2    1    1    2  501    0 -0.60517094031E+02 -0.34859721410E+01 -0.38896691640E+03  0.39366195235E+03  0.00000000000E+00 0. -1.
          1    1    1    2  502    0  0.45638891659E+02 -0.14205835836E+02  0.94639663087E+03  0.94760292165E+03  0.00000000000E+00 0. -1.
         22    1    3    3    0    0 -0.44488713191E+02 -0.16934631549E+02  0.20624932229E+01  0.47647468195E+02  0.00000000000E+00 0. -1.
         22    1    3    3    0    0  0.59366915564E+02  0.34626439525E+02  0.71706794390E+02  0.99324142783E+02  0.00000000000E+00 0. -1.
</event>
<event>
 7    1  0.8278507E-006  0.1381166E+03  0.7818608E-02  0.1279183E+00
          2   -1    0    0  502    0  0.00000000000E+00  0.00000000000E+00  0.11757668729E+04  0.11757668729E+04  0.00000000000E+00 0. -1.
          1   -1    0    0  501    0 -0.00000000000E+00 -0.00000000000E+00 -0.52291590547E+02  0.52291590547E+02  0.00000000000E+00 0. -1.
         25    2    1    2    0    0  0.12026872257E+03 -0.14169024905E+03  0.69162595709E+03  0.72699419654E+03  0.12503361536E+03 0.  0.
          2    1    1    2  501    0 -0.31396469357E+02  0.66095683590E+02  0.24238137461E+02  0.77083493596E+02  0.00000000000E+00 0. -1.
          1    1    1    2  502    0 -0.88872253215E+02  0.75594565462E+02  0.40761118780E+03  0.42398077331E+03  0.00000000000E+00 0. -1.
         22    1    3    3    0    0  0.61131466288E+02 -0.30361870244E+02  0.93704924538E+02  0.11592891019E+03  0.00000000000E+00 0.  1.
         22    1    3    3    0    0  0.59137256285E+02 -0.11132837881E+03  0.59792103255E+03  0.61106528635E+03  0.00000000000E+00 0.  1.
</event>
<event>
 7    1  0.8278507E-006  0.2944109E+03  0.7818608E-02  0.1254501E+00
          2   -1    0    0  502    0  0.00000000000E+00  0.00000000000E+00  0.24554467414E+04  0.24554467414E+04  0.00000000000E+00 0. -1.
          1   -1    0    0  501    0 -0.00000000000E+00 -0.00000000000E+00 -0.37153223571E+03  0.37153223571E+03  0.00000000000E+00 0. -1.
         25    2    1    2    0    0 -0.18370333874E+03  0.17626903294E+03  0.71334232907E+02  0.29245393445E+03  0.12499216916E+03 0.  0.
          2    1    1    2  501    0 -0.35034692063E+02  0.26011769467E+02 -0.24930884682E+03  0.25309868214E+03  0.00000000000E+00 0. -1.
          1    1    1    2  502    0  0.21873803080E+03 -0.20228080241E+03  0.22618891196E+04  0.22814263605E+04  0.00000000000E+00 0. -1.
         22    1    3    3    0    0 -0.10307833139E+03  0.15102594409E+03  0.93134322817E+02  0.20520229111E+03  0.00000000000E+00 0.  1.
         22    1    3    3    0    0 -0.80625007346E+02  0.25243088844E+02 -0.21800089910E+02  0.87251643331E+02  0.00000000000E+00 0.  1.
</event>
<event>
 7    1  0.8278507E-006  0.1704730E+03  0.7818608E-02  0.1264685E+00
          2   -1    0    0  502    0  0.00000000000E+00  0.00000000000E+00  0.95192481120E+03  0.95192481120E+03  0.00000000000E+00 0. -1.
          1   -1    0    0  501    0 -0.00000000000E+00 -0.00000000000E+00 -0.13593748995E+04  0.13593748995E+04  0.00000000000E+00 0. -1.
         25    2    1    2    0    0 -0.69831837378E+02 -0.17682230664E+03 -0.20466850900E+03  0.30603024604E+03  0.12499079677E+03 0.  0.
          2    1    1    2  501    0 -0.45037391489E+02  0.51184234648E+02 -0.10949169169E+04  0.10970374868E+04  0.00000000000E+00 0. -1.
          1    1    1    2  502    0  0.11486922887E+03  0.12563807199E+03  0.89213533764E+03  0.90823197782E+03  0.00000000000E+00 0. -1.
         22    1    3    3    0    0 -0.74525141464E+02 -0.13857551497E+03 -0.81954270626E+02  0.17740820875E+03  0.00000000000E+00 0.  1.
         22    1    3    3    0    0  0.46933040859E+01 -0.38246791673E+02 -0.12271423837E+03  0.12862203729E+03  0.00000000000E+00 0.  1.
</event>
<event>
 7    1  0.8278507E-006  0.6443344E+02  0.7818608E-02  0.1389670E+00
          2   -1    0    0  502    0  0.00000000000E+00  0.00000000000E+00  0.11908844766E+03  0.11908844766E+03  0.00000000000E+00 0. -1.
          1   -1    0    0  501    0 -0.00000000000E+00 -0.00000000000E+00 -0.10962253780E+04  0.10962253780E+04  0.00000000000E+00 0. -1.
         25    2    1    2    0    0 -0.69010277003E+01 -0.55703065712E+02 -0.36023003892E+02  0.14170075089E+03  0.12502395883E+03 0.  0.
          2    1    1    2  501    0  0.59229268707E+02  0.27096162853E+02 -0.99265525123E+03  0.99478980499E+03  0.00000000000E+00 0. -1.
          1    1    1    2  502    0 -0.52328241006E+02  0.28606902860E+02  0.51541324776E+02  0.78823269773E+02  0.00000000000E+00 0. -1.
         22    1    3    3    0    0 -0.50256814958E+02  0.10741747606E+02 -0.35319935551E+02  0.62358884200E+02  0.00000000000E+00 0.  1.
         22    1    3    3    0    0  0.43355787257E+02 -0.66444813318E+02 -0.70306834093E+00  0.79341866695E+02  0.00000000000E+00 0.  1.
</event>
<event>
 7    1  0.8278507E-006  0.1731696E+03  0.7818608E-02  0.1335341E+00
          2   -1    0    0  502    0  0.00000000000E+00  0.00000000000E+00  0.12639041359E+04  0.12639041359E+04  0.00000000000E+00 0. -1.
          1   -1    0    0  501    0 -0.00000000000E+00 -0.00000000000E+00 -0.15665324773E+04  0.15665324773E+04  0.00000000000E+00 0. -1.
         25    2    1    2    0    0  0.20655319867E+02 -0.18765801690E+03 -0.34223696987E+03  0.41035578338E+03  0.12499420732E+03 0.  0.
          2    1    1    2  501    0  0.27548415019E+02  0.21549151709E+02 -0.11838953570E+04  0.11844118783E+04  0.00000000000E+00 0. -1.
          1    1    1    2  502    0 -0.48203734886E+02  0.16610886519E+03  0.12235039855E+04  0.12356689515E+04  0.00000000000E+00 0. -1.
         22    1    3    3    0    0  0.39728918570E+02 -0.39653816833E+01 -0.42670794785E+02  0.58437213744E+02  0.00000000000E+00 0.  1.
         22    1    3    3    0    0 -0.19073598704E+02 -0.18369263522E+03 -0.29956617508E+03  0.35191856964E+03  0.00000000000E+00 0.  1.
</event>
<event>
 7    1  0.8278507E-006  0.4557913E+02  0.7818608E-02  0.1498458E+00
          2   -1    0    0  502    0  0.00000000000E+00  0.00000000000E+00  0.97406976097E+03  0.97406976097E+03  0.00000000000E+00 0. -1.
          1   -1    0    0  501    0 -0.00000000000E+00 -0.00000000000E+00 -0.52332590267E+03  0.52332590267E+03  0.00000000000E+00 0. -1.
         25    2    1    2    0    0 -0.26781438511E+02 -0.16105588157E+02  0.23370508130E+03  0.26686596173E+03  0.12499096401E+03 0.  0.
          2    1    1    2  501    0  0.21953798831E+02 -0.30433405242E+02 -0.50529282819E+03  0.50668432348E+03  0.00000000000E+00 0. -1.
          1    1    1    2  502    0  0.48276396805E+01  0.46538993399E+02  0.72233160519E+03  0.72384537843E+03  0.00000000000E+00 0. -1.
         22    1    3    3    0    0  0.41383291561E+02  0.25834712186E+02  0.86270945419E+02  0.99109460686E+02  0.00000000000E+00 0. -1.
         22    1    3    3    0    0 -0.68164730072E+02 -0.41940300343E+02  0.14743413588E+03  0.16775650104E+03  0.00000000000E+00 0. -1.
</event>
<event>
 7    1  0.8278507E-006  0.4207761E+02  0.7818608E-02  0.1566780E+00
          2   -1    0    0  502    0  0.00000000000E+00  0.00000000000E+00  0.70018347190E+03  0.70018347190E+03  0.00000000000E+00 0. -1.
          1   -1    0    0  501    0 -0.00000000000E+00 -0.00000000000E+00 -0.42168673043E+03  0.42168673043E+03  0.00000000000E+00 0. -1.
         25    2    1    2    0    0 -0.56549364010E+02  0.35063297655E+02  0.16125108168E+03  0.21460219682E+03  0.12499970451E+03 0.  0.
          2    1    1    2  501    0  0.19141341314E+02 -0.17499669467E+02 -0.39375038577E+03  0.39460359308E+03  0.00000000000E+00 0. -1.
          1    1    1    2  502    0  0.37408022696E+02 -0.17563628188E+02  0.51099604556E+03  0.51266441243E+03  0.00000000000E+00 0. -1.
         22    1    3    3    0    0 -0.38358295118E+02  0.59576246367E+01 -0.98859408111E+01  0.40057258037E+02  0.00000000000E+00 0. -1.
         22    1    3    3    0    0 -0.18191068891E+02  0.29105673018E+02  0.17113702249E+03  0.17454493879E+03  0.00000000000E+00 0. -1.
</event>
<event>
 7    1  0.8278507E-006  0.6932568E+02  0.7818608E-02  0.1461837E+00
          2   -1    0    0  502    0  0.00000000000E+00  0.00000000000E+00  0.14672710751E+03  0.14672710751E+03  0.00000000000E+00 0. -1.
          1   -1    0    0  501    0 -0.00000000000E+00 -0.00000000000E+00 -0.10781159098E+04  0.10781159098E+04  0.00000000000E+00 0. -1.
         25    2    1    2    0    0 -0.14481753359E+02 -0.52710621834E+02 -0.48178378044E+02  0.14468772989E+03  0.12500100894E+03 0.  0.
          2    1    1    2  501    0 -0.13254794793E+02  0.68578348737E+02 -0.97781152866E+03  0.98030304757E+03  0.00000000000E+00 0. -1.
          1    1    1    2  502    0  0.27736548152E+02 -0.15867726903E+02  0.94601104373E+02  0.99852239880E+02  0.00000000000E+00 0. -1.
         22    1    3    3    0    0 -0.29636011532E+02  0.14827096486E+02  0.26818972175E+02  0.42630895349E+02  0.00000000000E+00 0. -1.
         22    1    3    3    0    0  0.15154258173E+02 -0.67537718320E+02 -0.74997350219E+02  0.10205683454E+03  0.00000000000E+00 0. -1.
</event>
<event>
 7    1  0.8278507E-006  0.9075668E+02  0.7818608E-02  0.1329658E+00
          2   -1    0    0  502    0  0.00000000000E+00  0.00000000000E+00  0.15174235731E+04  0.15174235731E+04  0.00000000000E+00 0. -1.
          1   -1    0    0  501    0 -0.00000000000E+00 -0.00000000000E+00 -0.21541845674E+03  0.21541845674E+03  0.00000000000E+00 0. -1.
         25    2    1    2    0    0  0.33861929194E+02  0.16087274404E+02  0.84852623057E+02  0.15566000023E+03  0.12499854953E+03 0.  0.
          2    1    1    2  501    0  0.55915861585E+02 -0.42348677724E+02 -0.17154837784E+03  0.18533440054E+03  0.00000000000E+00 0. -1.
          1    1    1    2  502    0 -0.89777790779E+02  0.26261403320E+02  0.13887008712E+04  0.13918476291E+04  0.00000000000E+00 0. -1.
         22    1    3    3    0    0  0.10639982809E+02 -0.40154474484E+02 -0.10223819766E+02  0.42779873140E+02  0.00000000000E+00 0.  1.
         22    1    3    3    0    0  0.23221946385E+02  0.56241748888E+02  0.95076442824E+02  0.11288012709E+03  0.00000000000E+00 0.  1.
</event>
<event>
 7    1  0.8278507E-006  0.9837127E+02  0.7818608E-02  0.1361085E+00
          2   -1    0    0  502    0  0.00000000000E+00  0.00000000000E+00  0.40157288452E+03  0.40157288452E+03  0.00000000000E+00 0. -1.
          1   -1    0    0  501    0 -0.00000000000E+00 -0.00000000000E+00 -0.66894932360E+03  0.66894932360E+03  0.00000000000E+00 0. -1.
         25    2    1    2    0    0 -0.29166769955E+02  0.40761200686E+02 -0.51288083441E+03  0.53026792721E+03  0.12500059348E+03 0.  0.
          2    1    1    2  501    0 -0.19618101147E+02  0.45335365997E+02 -0.13675004755E+03  0.14539855847E+03  0.00000000000E+00 0. -1.
          1    1    1    2  502    0  0.48784871102E+02 -0.86096566683E+02  0.38225444288E+03  0.39485572244E+03  0.00000000000E+00 0. -1.
         22    1    3    3    0    0 -0.10009115516E+02 -0.43973899044E+02 -0.22873194872E+03  0.23313556261E+03  0.00000000000E+00 0.  1.
         22    1    3    3    0    0 -0.19157654439E+02  0.84735099730E+02 -0.28414888569E+03  0.29713236460E+03  0.00000000000E+00 0.  1.
</event>
<event>
 7    1  0.8278507E-006  0.1410467E+03  0.7818608E-02  0.1216393E+00
          2   -1    0    0  502    0  0.00000000000E+00  0.00000000000E+00  0.31169825383E+04  0.31169825383E+04  0.00000000000E+00 0. -1.
          1   -1    0    0  501    0 -0.00000000000E+00 -0.00000000000E+00 -0.29018135016E+03  0.29018135016E+03  0.00000000000E+00 0. -1.
         25    2    1    2    0    0 -0.65264393849E+01 -0.12545875160E+02  0.15665216741E+02  0.12677295659E+03  0.12500396038E+03 0.  0.
          2    1    1    2  501    0 -0.12711994708E+03 -0.44014594736E+02 -0.21346122461E+03  0.25231420869E+03  0.00000000000E+00 0. -1.
          1    1    1    2  502    0  0.13364638646E+03  0.56560469895E+02  0.30245971960E+04  0.30280767232E+04  0.00000000000E+00 0. -1.
         22    1    3    3    0    0 -0.57268125405E+02 -0.27782570273E+02  0.32119900338E+02  0.71296545471E+02  0.00000000000E+00 0.  1.
         22    1    3    3    0    0  0.50741686020E+02  0.15236695114E+02 -0.16454683597E+02  0.55476411117E+02  0.00000000000E+00 0.  1.
</event>
<event>
 7    1  0.8278507E-006  0.9412630E+02  0.7818608E-02  0.1465481E+00
          2   -1    0    0  502    0  0.00000000000E+00  0.00000000000E+00  0.20294347368E+03  0.20294347368E+03  0.00000000000E+00 0. -1.
          1   -1    0    0  501    0 -0.00000000000E+00 -0.00000000000E+00 -0.57634405896E+03  0.57634405896E+03  0.00000000000E+00 0. -1.
         25    2    1    2    0    0 -0.10685525201E+03  0.20637783357E+02 -0.83611795857E+02  0.18563374116E+03  0.12499996187E+03 0.  0.
          2    1    1    2  501    0  0.14179732411E+02 -0.18011676254E+02 -0.42724150139E+03  0.42785603397E+03  0.00000000000E+00 0. -1.
          1    1    1    2  502    0  0.92675519594E+02 -0.26261071023E+01  0.13745271197E+03  0.16579775752E+03  0.00000000000E+00 0. -1.
         22    1    3    3    0    0 -0.33397125690E+02 -0.20121447518E+02  0.26493572037E+02  0.47139686188E+02  0.00000000000E+00 0. -1.
         22    1    3    3    0    0 -0.73458126315E+02  0.40759230875E+02 -0.11010536789E+03  0.13849405497E+03  0.00000000000E+00 0. -1.
</event>
<event>
 7    1  0.8278507E-006  0.1108792E+03  0.7818608E-02  0.1318810E+00
          2   -1    0    0  502    0  0.00000000000E+00  0.00000000000E+00  0.14180281800E+04  0.14180281800E+04  0.00000000000E+00 0. -1.
          1   -1    0    0  501    0 -0.00000000000E+00 -0.00000000000E+00 -0.47699019930E+03  0.47699019930E+03  0.00000000000E+00 0. -1.
         25    2    1    2    0    0 -0.34691765710E+02 -0.15226091153E+03  0.37028467584E+03  0.42085945455E+03  0.12500014216E+03 0.  0.
          2    1    1    2  501    0  0.43328647263E+02  0.46031124898E+02 -0.44669380580E+03  0.45114475756E+03  0.00000000000E+00 0. -1.
          1    1    1    2  502    0 -0.86368815530E+01  0.10622978663E+03  0.10174471106E+04  0.10230141672E+04  0.00000000000E+00 0. -1.
         22    1    3    3    0    0 -0.18554862448E+02 -0.81040783454E+02  0.61118680295E+02  0.10318616469E+03  0.00000000000E+00 0.  1.
         22    1    3    3    0    0 -0.16136903262E+02 -0.71220128075E+02  0.30916599554E+03  0.31767328986E+03  0.00000000000E+00 0.  1.
</event>
<event>
 7    1  0.8278507E-006  0.3586570E+02  0.7818608E-02  0.1626670E+00
          2   -1    0    0  502    0  0.00000000000E+00  0.00000000000E+00  0.43548031314E+03  0.43548031314E+03  0.00000000000E+00 0. -1.
          1   -1    0    0  501    0 -0.00000000000E+00 -0.00000000000E+00 -0.14463737770E+04  0.14463737770E+04  0.00000000000E+00 0. -1.
         25    2    1    2    0    0  0.39883750050E+02 -0.10052806841E+02 -0.22937522198E+03  0.26444245339E+03  0.12500018501E+03 0.  0.
          2    1    1    2  501    0 -0.34334773685E+02 -0.10393895119E+02 -0.11989279905E+04  0.11994645623E+04  0.00000000000E+00 0. -1.
          1    1    1    2  502    0 -0.55489763649E+01  0.20446701961E+02  0.41740974865E+03  0.41794707444E+03  0.00000000000E+00 0. -1.
         22    1    3    3    0    0 -0.23668971445E+02  0.15837788659E+02 -0.38870361427E+01  0.28743082800E+02  0.00000000000E+00 0. -1.
         22    1    3    3    0    0  0.63552721494E+02 -0.25890595500E+02 -0.22548818584E+03  0.23569937059E+03  0.00000000000E+00 0. -1.
</event>
<event>
 7    1  0.8278507E-006  0.8254362E+02  0.7818608E-02  0.1325682E+00
          2   -1    0    0  502    0  0.00000000000E+00  0.00000000000E+00  0.53364148653E+03  0.53364148653E+03  0.00000000000E+00 0. -1.
          1   -1    0    0  501    0 -0.00000000000E+00 -0.00000000000E+00 -0.71174135935E+03  0.71174135935E+03  0.00000000000E+00 0. -1.
         25    2    1    2    0    0  0.28902479569E+01 -0.37247746948E+01  0.65777854941E+02  0.14133251310E+03  0.12500370226E+03 0.  0.
          2    1    1    2  501    0 -0.42689312524E+02  0.72980120825E+02 -0.66756576217E+03  0.67289859731E+03  0.00000000000E+00 0. -1.
          1    1    1    2  502    0  0.39799064567E+02 -0.69255346130E+02  0.42368803440E+03  0.43115173548E+03  0.00000000000E+00 0. -1.
         22    1    3    3    0    0  0.12047840390E+02 -0.44607899765E+02  0.83823543127E+02  0.95715210713E+02  0.00000000000E+00 0.  1.
         22    1    3    3    0    0 -0.91575924331E+01  0.40883125070E+02 -0.18045688186E+02  0.45617302384E+02  0.00000000000E+00 0.  1.
</event>
<event>
 7    1  0.8278507E-006  0.1021135E+03  0.7818608E-02  0.1324160E+00
          2   -1    0    0  502    0  0.00000000000E+00  0.00000000000E+00  0.26950411833E+03  0.26950411833E+03  0.00000000000E+00 0. -1.
          1   -1    0    0  501    0 -0.00000000000E+00 -0.00000000000E+00 -0.65099255753E+03  0.65099255753E+03  0.00000000000E+00 0. -1.
         25    2    1    2    0    0 -0.12193926487E+02  0.59189145209E+02 -0.10962679201E+03  0.17690449145E+03  0.12500047526E+03 0.  0.
          2    1    1    2  501    0 -0.33837177978E+02 -0.10571100399E+03 -0.49694377108E+03  0.50918845489E+03  0.00000000000E+00 0. -1.
          1    1    1    2  502    0  0.46031104464E+02  0.46521858778E+02  0.22508212389E+03  0.23440372953E+03  0.00000000000E+00 0. -1.
         22    1    3    3    0    0 -0.57055339753E+02  0.71583805019E+02 -0.81225007069E+02  0.12238077753E+03  0.00000000000E+00 0. -1.
         22    1    3    3    0    0  0.44861413266E+02 -0.12394659810E+02 -0.28401784941E+02  0.54523713922E+02  0.00000000000E+00 0. -1.
</event>
<event>
 7    1  0.8278507E-006  0.1085807E+03  0.7818608E-02  0.1344380E+00
          2   -1    0    0  502    0  0.00000000000E+00  0.00000000000E+00  0.13673048349E+03  0.13673048349E+03  0.00000000000E+00 0. -1.
          1   -1    0    0  501    0 -0.00000000000E+00 -0.00000000000E+00 -0.40637444567E+03  0.40637444567E+03  0.00000000000E+00 0. -1.
         25    2    1    2    0    0 -0.61765259537E+02  0.14936824641E+02 -0.22072047413E+03  0.26149750094E+03  0.12500143712E+03 0.  0.
          2    1    1    2  501    0 -0.51550342964E+02 -0.16962982295E+01 -0.13118243780E+03  0.14095796279E+03  0.00000000000E+00 0. -1.
          1    1    1    2  502    0  0.11331560250E+03 -0.13240526412E+02  0.82258949750E+02  0.14064946542E+03  0.00000000000E+00 0. -1.
         22    1    3    3    0    0  0.28718368137E+02  0.15331724581E+02 -0.12747446114E+03  0.13156574285E+03  0.00000000000E+00 0.  1.
         22    1    3    3    0    0 -0.90483627674E+02 -0.39489993933E+00 -0.93246012987E+02  0.12993175809E+03  0.00000000000E+00 0.  1.
</event>
<event>
 7    1  0.8278507E-006  0.1455690E+03  0.7818608E-02  0.1337491E+00
          2   -1    0    0  502    0  0.00000000000E+00  0.00000000000E+00  0.10580372607E+04  0.10580372607E+04  0.00000000000E+00 0. -1.
          1   -1    0    0  501    0 -0.00000000000E+00 -0.00000000000E+00 -0.16842384776E+03  0.16842384776E+03  0.00000000000E+00 0. -1.
         25    2    1    2    0    0  0.10244673116E+03 -0.80687524172E+02  0.39654735030E+03  0.43575380008E+03  0.12500305584E+03 0.  0.
          2    1    1    2  501    0 -0.87314079176E+02  0.11861512323E+03 -0.11152043118E+03  0.18474334210E+03  0.00000000000E+00 0. -1.
          1    1    1    2  502    0 -0.15132651983E+02 -0.37927599058E+02  0.60458649386E+03  0.60596396633E+03  0.00000000000E+00 0. -1.
         22    1    3    3    0    0 -0.82272015237E+01 -0.16699501012E+02 -0.51034947274E+00  0.18623120993E+02  0.00000000000E+00 0.  1.
         22    1    3    3    0    0  0.11067393268E+03 -0.63988023161E+02  0.39705769978E+03  0.41713067909E+03  0.00000000000E+00 0.  1.
</event>
<event>
 7    1  0.8278507E-006  0.4565059E+02  0.7818608E-02  0.1544292E+00
          2   -1    0    0  502    0  0.00000000000E+00  0.00000000000E+00  0.34119764002E+02  0.34119764002E+02  0.00000000000E+00 0. -1.
          1   -1    0    0  501    0 -0.00000000000E+00 -0.00000000000E+00 -0.23412072874E+04  0.23412072874E+04  0.00000000000E+00 0. -1.
         25    2    1    2    0    0 -0.20910762931E+01 -0.72939797210E+02 -0.21097129766E+04  0.21146721530E+04  0.12499953767E+03 0.  0.
          2    1    1    2  501    0  0.21606461336E+01  0.27506111468E+02 -0.21133208827E+03  0.21312556414E+03  0.00000000000E+00 0. -1.
          1    1    1    2  502    0 -0.69569840441E-01  0.45433685742E+02  0.13957541560E+02  0.47529334168E+02  0.00000000000E+00 0. -1.
         22    1    3    3    0    0 -0.37447214848E+02  0.13591222431E+02 -0.31236057392E+03  0.31489068479E+03  0.00000000000E+00 0. -1.
         22    1    3    3    0    0  0.35356138555E+02 -0.86531019641E+02 -0.17973524027E+04  0.17997814683E+04  0.00000000000E+00 0. -1.
</event>
<event>
 7    1  0.8278507E-006  0.4476010E+02  0.7818608E-02  0.1548393E+00
          2   -1    0    0  502    0  0.00000000000E+00  0.00000000000E+00  0.42518508158E+02  0.42518508158E+02  0.00000000000E+00 0. -1.
          1   -1    0    0  501    0 -0.00000000000E+00 -0.00000000000E+00 -0.13258892705E+04  0.13258892705E+04  0.00000000000E+00 0. -1.
         25    2    1    2    0    0 -0.19641821702E+02 -0.52947770639E+02 -0.86202391814E+03  0.87286928873E+03  0.12500516866E+03 0.  0.
          2    1    1    2  501    0  0.25981046655E+02  0.87179430073E+01 -0.44441096540E+03  0.44525512179E+03  0.00000000000E+00 0. -1.
          1    1    1    2  502    0 -0.63392249526E+01  0.44229827632E+02  0.23064121189E+02  0.50283368140E+02  0.00000000000E+00 0. -1.
         22    1    3    3    0    0  0.37713718664E+02 -0.33730782421E+02 -0.66120392610E+03  0.66313703120E+03  0.00000000000E+00 0.  1.
         22    1    3    3    0    0 -0.57355540367E+02 -0.19216988218E+02 -0.20081999203E+03  0.20973225753E+03  0.00000000000E+00 0.  1.
</event>
<event>
 7    1  0.1169021E-005  0.7806385E+02  0.7818608E-02  0.1364393E+00
          2   -1    0    0  502    0  0.00000000000E+00  0.00000000000E+00  0.19730571686E+04  0.19730571686E+04  0.00000000000E+00 0. -1.
          1   -1    0    0  501    0 -0.00000000000E+00 -0.00000000000E+00 -0.72187891744E+03  0.72187891744E+03  0.00000000000E+00 0. -1.
         25    2    1    2    0    0  0.54301345224E+02 -0.98842860977E+02 -0.26090608907E+03  0.31050795488E+03  0.12499862189E+03 0.  0.
          2    1    1    2  501    0 -0.64204157081E+02  0.39109169799E+02 -0.43245778681E+03  0.43894354799E+03  0.00000000000E+00 0. -1.
          1    1    1    2  502    0  0.99028118571E+01  0.59733691178E+02  0.19445421270E+04  0.19454845832E+04  0.00000000000E+00 0. -1.
         22    1    3    3    0    0  0.53902054675E+02 -0.39081999121E+02 -0.31890110457E+02  0.73822850787E+02  0.00000000000E+00 0. -1.
         22    1    3    3    0    0  0.39929054915E+00 -0.59760861856E+02 -0.22901597861E+03  0.23668510410E+03  0.00000000000E+00 0. -1.
</event>
<event>
 7    1  0.8278507E-006  0.6224957E+02  0.7818608E-02  0.1403927E+00
          2   -1    0    0  502    0  0.00000000000E+00  0.00000000000E+00  0.58569463658E+03  0.58569463658E+03  0.00000000000E+00 0. -1.
          1   -1    0    0  501    0 -0.00000000000E+00 -0.00000000000E+00 -0.11019223133E+04  0.11019223133E+04  0.00000000000E+00 0. -1.
         25    2    1    2    0    0 -0.91291746808E+02  0.48171250887E+02 -0.22175982920E+02  0.16361739356E+03  0.12499689920E+03 0.  0.
          2    1    1    2  501    0  0.55083776511E+02  0.17125899515E+01 -0.10064245743E+04  0.10079323287E+04  0.00000000000E+00 0. -1.
          1    1    1    2  502    0  0.36207970296E+02 -0.49883840839E+02  0.51237288056E+03  0.51606722762E+03  0.00000000000E+00 0. -1.
         22    1    3    3    0    0 -0.68765376088E+02 -0.33267410808E+02 -0.20547590113E+02  0.79105000031E+02  0.00000000000E+00 0. -1.
         22    1    3    3    0    0 -0.22526370719E+02  0.81438661695E+02 -0.16283928070E+01  0.84512393527E+02  0.00000000000E+00 0. -1.
</event>
<event>
 7    1  0.8278507E-006  0.7436680E+02  0.7818608E-02  0.1437022E+00
          2   -1    0    0  502    0  0.00000000000E+00  0.00000000000E+00  0.22324728817E+04  0.22324728817E+04  0.00000000000E+00 0. -1.
          1   -1    0    0  501    0 -0.00000000000E+00 -0.00000000000E+00 -0.96994004354E+03  0.96994004354E+03  0.00000000000E+00 0. -1.
         25    2    1    2    0    0  0.77151858294E+02 -0.77541342609E+02 -0.18185609975E+02  0.16709811208E+03  0.12500397434E+03 0.  0.
          2    1    1    2  501    0 -0.51160119672E+02  0.52967057389E+02 -0.87560426075E+03  0.87869544693E+03  0.00000000000E+00 0. -1.
          1    1    1    2  502    0 -0.25991738622E+02  0.24574285220E+02  0.21563227089E+04  0.21566193662E+04  0.00000000000E+00 0. -1.
         22    1    3    3    0    0 -0.30611600380E+02  0.18939970944E+01  0.54515614463E+01  0.31150871979E+02  0.00000000000E+00 0.  1.
         22    1    3    3    0    0  0.10776345867E+03 -0.79435339703E+02 -0.23637171422E+02  0.13594724010E+03  0.00000000000E+00 0.  1.
</event>
<event>
 7    1  0.8278507E-006  0.5314136E+02  0.7818608E-02  0.1439480E+00
          2   -1    0    0  502    0  0.00000000000E+00  0.00000000000E+00  0.25718297106E+04  0.25718297106E+04  0.00000000000E+00 0. -1.
          1   -1    0    0  501    0 -0.00000000000E+00 -0.00000000000E+00 -0.93605127908E+03  0.93605127908E+03  0.00000000000E+00 0. -1.
         25    2    1    2    0    0  0.53386099739E+02  0.12593702664E+02  0.53640772260E+03  0.55350170695E+03  0.12498887048E+03 0.  0.
          2    1    1    2  501    0 -0.12283507148E+02 -0.47583644031E+02 -0.92649356931E+03  0.92779600220E+03  0.00000000000E+00 0. -1.
          1    1    1    2  502    0 -0.41102592590E+02  0.34989941366E+02  0.20258642782E+04  0.20265832805E+04  0.00000000000E+00 0. -1.
         22    1    3    3    0    0  0.52750909825E+02 -0.35272609542E+02  0.13410529583E+03  0.14836120059E+03  0.00000000000E+00 0. -1.
         22    1    3    3    0    0  0.63518991329E+00  0.47866312206E+02  0.40230242677E+03  0.40514050636E+03  0.00000000000E+00 0. -1.
</event>
<event>
 7    1  0.8278507E-006  0.5161152E+02  0.7818608E-02  0.1479889E+00
          2   -1    0    0  502    0  0.00000000000E+00  0.00000000000E+00  0.95788196515E+03  0.95788196515E+03  0.00000000000E+00 0. -1.
          1   -1    0    0  501    0 -0.00000000000E+00 -0.00000000000E+00 -0.91826346459E+02  0.91826346459E+02  0.00000000000E+00 0. -1.
         25    2    1    2    0    0 -0.41529450917E+02 -0.24729257650E+02  0.60539254526E+03  0.62004903471E+03  0.12499776043E+03 0.  0.
          2    1    1    2  501    0 -0.13148784906E+02  0.35355999705E+02 -0.77895845453E+02  0.86548830139E+02  0.00000000000E+00 0. -1.
          1    1    1    2  502    0  0.54678235823E+02 -0.10626742055E+02  0.33855891888E+03  0.34311044676E+03  0.00000000000E+00 0. -1.
         22    1    3    3    0    0 -0.73080261159E+02  0.17634883126E+02  0.26035392625E+03  0.27099055443E+03  0.00000000000E+00 0. -1.
         22    1    3    3    0    0  0.31550810242E+02 -0.42364140776E+02  0.34503861901E+03  0.34905848029E+03  0.00000000000E+00 0. -1.
</event>
<event>
 7    1  0.8278507E-006  0.6707877E+02  0.7818608E-02  0.1412708E+00
          2   -1    0    0  502    0  0.00000000000E+00  0.00000000000E+00  0.14133644443E+04  0.14133644443E+04  0.00000000000E+00 0. -1.
          1   -1    0    0  501    0 -0.00000000000E+00 -0.00000000000E+00 -0.10988288996E+03  0.10988288996E+03  0.00000000000E+00 0. -1.
         25    2    1    2    0    0  0.11325020145E+03 -0.81569320202E+01  0.41814613380E+02  0.17396953038E+03  0.12499916776E+03 0.  0.
          2    1    1    2  501    0 -0.47668418248E+02 -0.27566745964E+01 -0.29679843986E+02  0.56220730092E+02  0.00000000000E+00 0. -1.
          1    1    1    2  502    0 -0.65581783197E+02  0.10913606617E+02  0.12913467849E+04  0.12930570738E+04  0.00000000000E+00 0. -1.
         22    1    3    3    0    0  0.50902905290E+02  0.29253963615E+02  0.73994338474E+02  0.94456668798E+02  0.00000000000E+00 0. -1.
         22    1    3    3    0    0  0.62347296155E+02 -0.37410895635E+02 -0.32179725094E+02  0.79512861584E+02  0.00000000000E+00 0. -1.
</event>
<event>
 7    1  0.8278507E-006  0.1234292E+03  0.7818608E-02  0.1272170E+00
          2   -1    0    0  502    0  0.00000000000E+00  0.00000000000E+00  0.45469971415E+03  0.45469971415E+03  0.00000000000E+00 0. -1.
          1   -1    0    0  501    0 -0.00000000000E+00 -0.00000000000E+00 -0.96836799217E+03  0.96836799217E+03  0.00000000000E+00 0. -1.
         25    2    1    2    0    0  0.12903771136E+03  0.11417417763E+01 -0.11292045373E+03  0.21219810110E+03  0.12499988285E+03 0.  0.
          2    1    1    2  501    0 -0.33148151121E+02 -0.81056464164E+02 -0.79372645677E+03  0.79854282194E+03  0.00000000000E+00 0. -1.
          1    1    1    2  502    0 -0.95889560241E+02  0.79914722387E+02  0.39297863248E+03  0.41232678327E+03  0.00000000000E+00 0. -1.
         22    1    3    3    0    0  0.64786099950E+02  0.20513805200E+02 -0.12662198709E+03  0.14370519324E+03  0.00000000000E+00 0. -1.
         22    1    3    3    0    0  0.64251611411E+02 -0.19372063424E+02  0.13701533357E+02  0.68492907856E+02  0.00000000000E+00 0. -1.
</event>
<event>
 7    1  0.8278507E-006  0.6489155E+02  0.7818608E-02  0.1396968E+00
          2   -1    0    0  502    0  0.00000000000E+00  0.00000000000E+00  0.27691896257E+04  0.27691896257E+04  0.00000000000E+00 0. -1.
          1   -1    0    0  501    0 -0.00000000000E+00 -0.00000000000E+00 -0.11593407631E+03  0.11593407631E+03  0.00000000000E+00 0. -1.
         25    2    1    2    0    0  0.10628279567E+03  0.78459458070E+01  0.25264623067E+03  0.30134984541E+03  0.12499607967E+03 0.  0.
          2    1    1    2  501    0 -0.46324335836E+02 -0.31214225852E+02 -0.82608810465E+02  0.99722051486E+02  0.00000000000E+00 0. -1.
          1    1    1    2  502    0 -0.59958459831E+02  0.23368280045E+02  0.24832181292E+04  0.24840518051E+04  0.00000000000E+00 0. -1.
         22    1    3    3    0    0  0.10727031364E+03 -0.39974515979E+02  0.15579047069E+03  0.19332757919E+03  0.00000000000E+00 0.  1.
         22    1    3    3    0    0 -0.98751797624E+00  0.47820461786E+02  0.96855759986E+02  0.10802226622E+03  0.00000000000E+00 0.  1.
</event>
<event>
 7    1  0.8278507E-006  0.2031047E+03  0.7818608E-02  0.1267540E+00
          2   -1    0    0  502    0  0.00000000000E+00  0.00000000000E+00  0.39693390005E+03  0.39693390005E+03  0.00000000000E+00 0. -1.
          1   -1    0    0  501    0 -0.00000000000E+00 -0.00000000000E+00 -0.46558017354E+03  0.46558017354E+03  0.00000000000E+00 0. -1.
         25    2    1    2    0    0 -0.16022395832E+03  0.59979349855E+02 -0.44296394545E+02  0.21646232181E+03  0.12499810784E+03 0.  0.
          2    1    1    2  501    0 -0.21112605756E+02  0.51496207608E+02 -0.29585928562E+03  0.30104869774E+03  0.00000000000E+00 0. -1.
          1    1    1    2  502    0  0.18133656408E+03 -0.11147555746E+03  0.27150940667E+03  0.34500305404E+03  0.00000000000E+00 0. -1.
         22    1    3    3    0    0 -0.17612714829E+03  0.62600652826E+02 -0.57566027340E+02  0.19558492172E+03  0.00000000000E+00 0.  1.
         22    1    3    3    0    0  0.15903189964E+02 -0.26213029713E+01  0.13269632795E+02  0.20877400097E+02  0.00000000000E+00 0.  1.
</event>
<event>
 7    1  0.8278507E-006  0.7942453E+02  0.7818608E-02  0.1331454E+00
          2   -1    0    0  502    0  0.00000000000E+00  0.00000000000E+00  0.10435881372E+04  0.10435881372E+04  0.00000000000E+00 0. -1.
          1   -1    0    0  501    0 -0.00000000000E+00 -0.00000000000E+00 -0.28037764421E+03  0.28037764421E+03  0.00000000000E+00 0. -1.
         25    2    1    2    0    0  0.17651019420E+02  0.85755307752E+02  0.56138652333E+02  0.16260771825E+03  0.12499676177E+03 0.  0.
          2    1    1    2  501    0 -0.73904765232E+02 -0.29091957908E+02 -0.21842821865E+03  0.23242018639E+03  0.00000000000E+00 0. -1.
          1    1    1    2  502    0  0.56253745813E+02 -0.56663349844E+02  0.92550005927E+03  0.92893787674E+03  0.00000000000E+00 0. -1.
         22    1    3    3    0    0 -0.35747797043E+02  0.59567025232E+02  0.73016263617E+02  0.10078447421E+03  0.00000000000E+00 0. -1.
         22    1    3    3    0    0  0.53398816463E+02  0.26188282520E+02 -0.16877611285E+02  0.61823244040E+02  0.00000000000E+00 0. -1.
</event>
<event>
 7    1  0.8278507E-006  0.9123926E+02  0.7818608E-02  0.1313341E+00
          2   -1    0    0  502    0  0.00000000000E+00  0.00000000000E+00  0.37099462549E+03  0.37099462549E+03  0.00000000000E+00 0. -1.
          1   -1    0    0  501    0 -0.00000000000E+00 -0.00000000000E+00 -0.20814370248E+04  0.20814370248E+04  0.00000000000E+00 0. -1.
         25    2    1    2    0    0 -0.20259254770E+02 -0.16756732189E+01  0.66442002198E+02  0.14301042899E+03  0.12499679140E+03 0.  0.
          2    1    1    2  501    0 -0.26573725969E+02  0.87283676862E+02 -0.20331549539E+04  0.20352011375E+04  0.00000000000E+00 0. -1.
          1    1    1    2  502    0  0.46832980739E+02 -0.85608003643E+02  0.25627055240E+03  0.27422008388E+03  0.00000000000E+00 0. -1.
         22    1    3    3    0    0 -0.14519865707E+02  0.51877767473E+02 -0.43635697133E+01  0.54047849159E+02  0.00000000000E+00 0. -1.
         22    1    3    3    0    0 -0.57393890634E+01 -0.53553440692E+02  0.70805571911E+02  0.88962579832E+02  0.00000000000E+00 0. -1.
</event>
<event>
 7    1  0.8278507E-006  0.2733717E+03  0.7818608E-02  0.1196480E+00
          2   -1    0    0  502    0  0.00000000000E+00  0.00000000000E+00  0.21841661071E+03  0.21841661071E+03  0.00000000000E+00 0. -1.
          1   -1    0    0  501    0 -0.00000000000E+00 -0.00000000000E+00 -0.14752683995E+04  0.14752683995E+04  0.00000000000E+00 0. -1.
         25    2    1    2    0    0 -0.29183552017E+03 -0.16809027588E+03 -0.10224685791E+04  0.10837385528E+04  0.12499977560E+03 0.  0.
          2    1    1    2  501    0  0.40345858923E+02  0.75906175293E+02 -0.31794607401E+03  0.32936187053E+03  0.00000000000E+00 0. -1.
          1    1    1    2  502    0  0.25148966125E+03  0.92184100587E+02  0.83562864297E+02  0.28058458690E+03  0.00000000000E+00 0. -1.
         22    1    3    3    0    0 -0.21629280325E+03 -0.86234279384E+02 -0.82267335481E+03  0.85499144814E+03  0.00000000000E+00 0. -1.
         22    1    3    3    0    0 -0.75542716921E+02 -0.81855996496E+02 -0.19979522431E+03  0.22874710468E+03  0.00000000000E+00 0. -1.
</event>
<event>
 7    1  0.8278507E-006  0.4215839E+03  0.7818608E-02  0.1053031E+00
          2   -1    0    0  502    0  0.00000000000E+00  0.00000000000E+00  0.16214109767E+04  0.16214109767E+04  0.00000000000E+00 0. -1.
          1   -1    0    0  501    0 -0.00000000000E+00 -0.00000000000E+00 -0.16141156346E+04  0.16141156346E+04  0.00000000000E+00 0. -1.
         25    2    1    2    0    0  0.61528513921E+03 -0.27952495973E+03 -0.78731806452E+03  0.10450840296E+04  0.12498355328E+03 0.  0.
          2    1    1    2  501    0 -0.33164299436E+03 -0.23319597480E+02 -0.62690399912E+03  0.70960517434E+03  0.00000000000E+00 0. -1.
          1    1    1    2  502    0 -0.28364214486E+03  0.30284455721E+03  0.14215174057E+04  0.14808374073E+04  0.00000000000E+00 0. -1.
         22    1    3    3    0    0  0.46430365330E+03 -0.22806324734E+03 -0.51792818227E+03  0.73201115377E+03  0.00000000000E+00 0.  1.
         22    1    3    3    0    0  0.15098148591E+03 -0.51461712383E+02 -0.26938988225E+03  0.31307287584E+03  0.00000000000E+00 0.  1.
</event>
<event>
 7    1  0.8278507E-006  0.1028541E+03  0.7818608E-02  0.1359193E+00
          2   -1    0    0  502    0  0.00000000000E+00  0.00000000000E+00  0.25334926869E+04  0.25334926869E+04  0.00000000000E+00 0. -1.
          1   -1    0    0  501    0 -0.00000000000E+00 -0.00000000000E+00 -0.15743763451E+03  0.15743763451E+03  0.00000000000E+00 0. -1.
         25    2    1    2    0    0  0.10283195868E+02  0.60249731888E+02  0.20122642160E+03  0.24464890028E+03  0.12500094938E+03 0.  0.
          2    1    1    2  501    0 -0.36487918696E+02 -0.10046815381E+03 -0.11439112433E+03  0.15655844745E+03  0.00000000000E+00 0. -1.
          1    1    1    2  502    0  0.26204722828E+02  0.40218421924E+02  0.22892197551E+04  0.22897229736E+04  0.00000000000E+00 0. -1.
         22    1    3    3    0    0 -0.20786207351E+02  0.27154471159E+02 -0.40292841570E+01  0.34433513483E+02  0.00000000000E+00 0. -1.
         22    1    3    3    0    0  0.31069403219E+02  0.33095260729E+02  0.20525570576E+03  0.21021538680E+03  0.00000000000E+00 0. -1.
</event>
<event>
 7    1  0.8278507E-006  0.6334540E+02  0.7818608E-02  0.1503889E+00
          2   -1    0    0  502    0  0.00000000000E+00  0.00000000000E+00  0.19154851495E+04  0.19154851495E+04  0.00000000000E+00 0. -1.
          1   -1    0    0  501    0 -0.00000000000E+00 -0.00000000000E+00 -0.21012261765E+04  0.21012261765E+04  0.00000000000E+00 0. -1.
         25    2    1    2    0    0  0.35214424429E+02  0.15845666969E+02  0.23925049367E+03  0.27268546850E+03  0.12500170063E+03 0.  0.
          2    1    1    2  501    0 -0.61220785461E+02 -0.16452193894E+02 -0.20839247265E+04  0.20848887081E+04  0.00000000000E+00 0. -1.
          1    1    1    2  502    0  0.26006361032E+02  0.60652692529E+00  0.16589332059E+04  0.16591371494E+04  0.00000000000E+00 0. -1.
         22    1    3    3    0    0  0.43721684122E+02  0.52429923227E+01  0.25092933236E+03  0.25476382096E+03  0.00000000000E+00 0. -1.
         22    1    3    3    0    0 -0.85072596933E+01  0.10602674646E+02 -0.11678838695E+02  0.17921647536E+02  0.00000000000E+00 0. -1.
</event>
<event>
 7    1  0.8278507E-006  0.1029689E+03  0.7818608E-02  0.1415307E+00
          2   -1    0    0  502    0  0.00000000000E+00  0.00000000000E+00  0.18462957096E+04  0.18462957096E+04  0.00000000000E+00 0. -1.
          1   -1    0    0  501    0 -0.00000000000E+00 -0.00000000000E+00 -0.66426892009E+03  0.66426892009E+03  0.00000000000E+00 0. -1.
         25    2    1    2    0    0  0.21421366613E+02  0.13085567476E+03  0.10173964759E+03  0.20871504444E+03  0.12501572428E+03 0.  0.
          2    1    1    2  501    0 -0.46488537794E+01 -0.30127779339E+02 -0.60885799574E+03  0.60962066394E+03  0.00000000000E+00 0. -1.
          1    1    1    2  502    0 -0.16772512833E+02 -0.10072789542E+03  0.16891451377E+04  0.16922289213E+04  0.00000000000E+00 0. -1.
         22    1    3    3    0    0  0.63074441934E+01 -0.22166506555E+02  0.33077747390E+02  0.40314702498E+02  0.00000000000E+00 0.  1.
         22    1    3    3    0    0  0.15113922419E+02  0.15302218131E+03  0.68661900202E+02  0.16840034194E+03  0.00000000000E+00 0.  1.
</event>
<event>
 7    1  0.8278507E-006  0.7956756E+02  0.7818608E-02  0.1371524E+00
          2   -1    0    0  502    0  0.00000000000E+00  0.00000000000E+00  0.59619471501E+03  0.59619471501E+03  0.00000000000E+00 0. -1.
          1   -1    0    0  501    0 -0.00000000000E+00 -0.00000000000E+00 -0.41700370066E+02  0.41700370066E+02  0.00000000000E+00 0. -1.
         25    2    1    2    0    0 -0.80361925544E+02  0.20357525374E+02  0.29298984175E+03  0.32915604043E+03  0.12501273400E+03 0.  0.
          2    1    1    2  501    0  0.49058725247E+02 -0.66778710950E+02  0.67678836974E+02  0.10698868974E+03  0.00000000000E+00 0. -1.
          1    1    1    2  502    0  0.31303200297E+02  0.46421185576E+02  0.19382566622E+03  0.20175035490E+03  0.00000000000E+00 0. -1.
         22    1    3    3    0    0  0.30995427813E+02  0.22404270872E+02  0.85492322890E+02  0.93656847970E+02  0.00000000000E+00 0. -1.
         22    1    3    3    0    0 -0.11135735336E+03 -0.20467454978E+01  0.20749751886E+03  0.23549919246E+03  0.00000000000E+00 0. -1.
</event>
<event>
 7    1  0.8278507E-006  0.1457516E+03  0.7818608E-02  0.1404069E+00
          2   -1    0    0  502    0  0.00000000000E+00  0.00000000000E+00  0.23387284867E+04  0.23387284867E+04  0.00000000000E+00 0. -1.
          1   -1    0    0  501    0 -0.00000000000E+00 -0.00000000000E+00 -0.98230815175E+03  0.98230815175E+03  0.00000000000E+00 0. -1.
         25    2    1    2    0    0 -0.10504047319E+03 -0.10647388038E+03 -0.90172476002E+03  0.92255236277E+03  0.12500052405E+03 0.  0.
          2    1    1    2  501    0 -0.12305697530E+02  0.20033318433E+02 -0.65851139129E+02  0.69922360970E+02  0.00000000000E+00 0. -1.
          1    1    1    2  502    0  0.11734617072E+03  0.86440561943E+02  0.23239962341E+04  0.23285619147E+04  0.00000000000E+00 0. -1.
         22    1    3    3    0    0 -0.30231769450E+02 -0.11560307789E+03 -0.56488811982E+03  0.57738775482E+03  0.00000000000E+00 0.  1.
         22    1    3    3    0    0 -0.74808703737E+02  0.91291975127E+01 -0.33683664020E+03  0.34516460795E+03  0.00000000000E+00 0.  1.
</event>
<event>
 7    1  0.8278507E-006  0.6051749E+02  0.7818608E-02  0.1545608E+00
          2   -1    0    0  502    0  0.00000000000E+00  0.00000000000E+00  0.41335892300E+03  0.41335892300E+03  0.00000000000E+00 0. -1.
          1   -1    0    0  501    0 -0.00000000000E+00 -0.00000000000E+00 -0.21711501160E+03  0.21711501160E+03  0.00000000000E+00 0. -1.
         25    2    1    2    0    0 -0.64581464929E+02 -0.35058289038E+02 -0.10093670920E+03  0.17667171508E+03  0.12499930561E+03 0.  0.
          2    1    1    2  501    0  0.44000517582E+02  0.36570671610E+02 -0.67529827262E+02  0.88508401519E+02  0.00000000000E+00 0. -1.
          1    1    1    2  502    0  0.20580947347E+02 -0.15123825716E+01  0.36471044786E+03  0.36529381801E+03  0.00000000000E+00 0. -1.
         22    1    3    3    0    0  0.22641094878E+02  0.28071780058E+02 -0.35877228973E+02  0.50870615994E+02  0.00000000000E+00 0. -1.
         22    1    3    3    0    0 -0.87222559807E+02 -0.63130069096E+02 -0.65059480227E+02  0.12580109908E+03  0.00000000000E+00 0. -1.
</event>
<event>
 7    1  0.8278507E-006  0.6463615E+02  0.7818608E-02  0.1408865E+00
          2   -1    0    0  502    0  0.00000000000E+00  0.00000000000E+00  0.63829056761E+03  0.63829056761E+03  0.00000000000E+00 0. -1.
          1   -1    0    0  501    0 -0.00000000000E+00 -0.00000000000E+00 -0.54227548021E+03  0.54227548021E+03  0.00000000000E+00 0. -1.
         25    2    1    2    0    0 -0.31903821421E+02 -0.67419674153E+02  0.27636146877E+03  0.31235597116E+03  0.12500929973E+03 0.  0.
          2    1    1    2  501    0 -0.18855146847E+02  0.61891111879E+02 -0.52036872715E+03  0.52437547472E+03  0.00000000000E+00 0. -1.
          1    1    1    2  502    0  0.50758968268E+02  0.55285622738E+01  0.34002234578E+03  0.34383460193E+03  0.00000000000E+00 0. -1.
         22    1    3    3    0    0 -0.18019196853E+01 -0.95191250031E+02  0.13510218896E+03  0.16527922573E+03  0.00000000000E+00 0.  1.
         22    1    3    3    0    0 -0.30101901736E+02  0.27771575878E+02  0.14125927981E+03  0.14707674543E+03  0.00000000000E+00 0.  1.
</event>
<event>
 7    1  0.8278507E-006  0.1715277E+03  0.7818608E-02  0.1308705E+00
          2   -1    0    0  502    0  0.00000000000E+00  0.00000000000E+00  0.48173056515E+04  0.48173056515E+04  0.00000000000E+00 0. -1.
          1   -1    0    0  501    0 -0.00000000000E+00 -0.00000000000E+00 -0.13115494330E+03  0.13115494330E+03  0.00000000000E+00 0. -1.
         25    2    1    2    0    0 -0.39929954240E+02 -0.19677673409E+03  0.35048876645E+04  0.35128590505E+04  0.12500273615E+03 0.  0.
          2    1    1    2  501    0  0.63655412886E+02  0.15881732708E+03 -0.69035705876E+02  0.18450171722E+03  0.00000000000E+00 0. -1.
          1    1    1    2  502    0 -0.23725458647E+02  0.37959407003E+02  0.12502987496E+04  0.12510998270E+04  0.00000000000E+00 0. -1.
         22    1    3    3    0    0  0.18314601567E+01 -0.77968017800E+02  0.23174675051E+04  0.23187794210E+04  0.00000000000E+00 0. -1.
         22    1    3    3    0    0 -0.41761414396E+02 -0.11880871629E+03  0.11874201594E+04  0.11940796296E+04  0.00000000000E+00 0. -1.
</event>
<event>
 7    1  0.8278507E-006  0.7253288E+02  0.7818608E-02  0.1381165E+00
          2   -1    0    0  502    0  0.00000000000E+00  0.00000000000E+00  0.18345508692E+03  0.18345508692E+03  0.00000000000E+00 0. -1.
          1   -1    0    0  501    0 -0.00000000000E+00 -0.00000000000E+00 -0.23099952389E+04  0.23099952389E+04  0.00000000000E+00 0. -1.
         25    2    1    2    0    0 -0.18117182469E+02  0.36082320063E+02  0.30880012143E+02  0.13494251416E+03  0.12500296339E+03 0.  0.
          2    1    1    2  501    0 -0.56328282759E+02  0.69148258410E+01 -0.22391612442E+04  0.22398803021E+04  0.00000000000E+00 0. -1.
          1    1    1    2  502    0  0.74445465228E+02 -0.42997145904E+02  0.81741080078E+02  0.11862750955E+03  0.00000000000E+00 0. -1.
         22    1    3    3    0    0 -0.59832558202E+02 -0.11603589695E+02 -0.66419269865E+01  0.61308184681E+02  0.00000000000E+00 0.  1.
         22    1    3    3    0    0  0.41715375734E+02  0.47685909758E+02  0.37521939129E+02  0.73634329481E+02  0.00000000000E+00 0.  1.
</event>
<event>
 7    1  0.8278507E-006  0.3071638E+02  0.7818608E-02  0.1649429E+00
          2   -1    0    0  502    0  0.00000000000E+00  0.00000000000E+00  0.74577153228E+02  0.74577153228E+02  0.00000000000E+00 0. -1.
          1   -1    0    0  501    0 -0.00000000000E+00 -0.00000000000E+00 -0.21823186843E+03  0.21823186843E+03  0.00000000000E+00 0. -1.
         25    2    1    2    0    0 -0.22690663447E+02 -0.60177965415E+01 -0.77945298771E+02  0.14916860251E+03  0.12499888916E+03 0.  0.
          2    1    1    2  501    0  0.61923084147E+01 -0.20810633251E+02 -0.96906820162E+02  0.99309410096E+02  0.00000000000E+00 0. -1.
          1    1    1    2  502    0  0.16498355032E+02  0.26828429792E+02  0.31197403731E+02  0.44331009050E+02  0.00000000000E+00 0. -1.
         22    1    3    3    0    0  0.28515270907E+02  0.42336491635E+02 -0.11457867359E+02  0.52314261185E+02  0.00000000000E+00 0. -1.
         22    1    3    3    0    0 -0.51205934354E+02 -0.48354288177E+02 -0.66487431412E+02  0.96854341327E+02  0.00000000000E+00 0. -1.
</event>
<event>
 7    1  0.8278507E-006  0.6992270E+02  0.7818608E-02  0.1416194E+00
          2   -1    0    0  502    0  0.00000000000E+00  0.00000000000E+00  0.20821106501E+02  0.20821106501E+02  0.00000000000E+00 0. -1.
          1   -1    0    0  501    0 -0.00000000000E+00 -0.00000000000E+00 -0.20313195576E+04  0.20313195576E+04  0.00000000000E+00 0. -1.
         25    2    1    2    0    0 -0.39630573522E+02  0.17877295445E+02 -0.52692486495E+03  0.54328476384E+03  0.12497336221E+03 0.  0.
          2    1    1    2  501    0  0.39173593050E+02 -0.62459491604E+02 -0.14528291783E+04  0.14546987248E+04  0.00000000000E+00 0. -1.
          1    1    1    2  502    0  0.45698047188E+00  0.44582196159E+02 -0.30744407852E+02  0.54157175515E+02  0.00000000000E+00 0. -1.
         22    1    3    3    0    0  0.30648608045E+02  0.17814892353E+02 -0.36562149353E+03  0.36733606424E+03  0.00000000000E+00 0.  1.
         22    1    3    3    0    0 -0.70279181567E+02  0.62403091452E-01 -0.16130337142E+03  0.17594869959E+03  0.00000000000E+00 0.  1.
</event>
<event>
 7    1  0.8278507E-006  0.9669846E+02  0.7818608E-02  0.1443236E+00
          2   -1    0    0  502    0  0.00000000000E+00  0.00000000000E+00  0.17615493045E+04  0.17615493045E+04  0.00000000000E+00 0. -1.
          1   -1    0    0  501    0 -0.00000000000E+00 -0.00000000000E+00 -0.82828187810E+02  0.82828187810E+02  0.00000000000E+00 0. -1.
         25    2    1    2    0    0 -0.94088198168E+02 -0.56462360623E+02  0.79650634802E+03  0.81368631970E+03  0.12498990850E+03 0.  0.
          2    1    1    2  501    0  0.91385180643E+02  0.30340809860E+02 -0.42750069466E+02  0.10535361609E+03  0.00000000000E+00 0. -1.
          1    1    1    2  502    0  0.27030175244E+01  0.26121550763E+02  0.92496483809E+03  0.92533755647E+03  0.00000000000E+00 0. -1.
         22    1    3    3    0    0 -0.51062940138E+02 -0.91198621322E+02  0.61912233920E+03  0.62788301720E+03  0.00000000000E+00 0.  1.
         22    1    3    3    0    0 -0.43025258029E+02  0.34736260699E+02  0.17738400882E+03  0.18580330250E+03  0.00000000000E+00 0.  1.
</event>
<event>
 7    1  0.8278507E-006  0.9394651E+02  0.7818608E-02  0.1358436E+00
          2   -1    0    0  502    0  0.00000000000E+00  0.00000000000E+00  0.19824505474E+04  0.19824505474E+04  0.00000000000E+00 0. -1.
          1   -1    0    0  501    0 -0.00000000000E+00 -0.00000000000E+00 -0.20198465385E+03  0.20198465385E+03  0.00000000000E+00 0. -1.
         25    2    1    2    0    0  0.55227993233E+02  0.13782588810E+02  0.82067830865E+02  0.15999765222E+03  0.12499611539E+03 0.  0.
          2    1    1    2  501    0  0.14942793749E+02  0.50734875913E+02 -0.15747426481E+03  0.16611880928E+03  0.00000000000E+00 0. -1.
          1    1    1    2  502    0 -0.70170786981E+02 -0.64517464723E+02  0.18558723275E+04  0.18583187398E+04  0.00000000000E+00 0. -1.
         22    1    3    3    0    0 -0.25302673919E+02 -0.22387261467E+02  0.60226551843E+02  0.69055429405E+02  0.00000000000E+00 0.  1.
         22    1    3    3    0    0  0.80530667151E+02  0.36169850277E+02  0.21841279022E+02  0.90942222813E+02  0.00000000000E+00 0.  1.
</event>
<event>
 7    1  0.8278507E-006  0.1211150E+03  0.7818608E-02  0.1383263E+00
          2   -1    0    0  502    0  0.00000000000E+00  0.00000000000E+00  0.10166310548E+03  0.10166310548E+03  0.00000000000E+00 0. -1.
          1   -1    0    0  501    0 -0.00000000000E+00 -0.00000000000E+00 -0.75240773101E+03  0.75240773101E+03  0.00000000000E+00 0. -1.
         25    2    1    2    0    0 -0.10284418007E+03 -0.92558786620E+02 -0.11695018572E+03  0.22010786461E+03  0.12500428701E+03 0.  0.
          2    1    1    2  501    0  0.33398751301E+02  0.95104198025E+00 -0.51665856733E+03  0.51773782580E+03  0.00000000000E+00 0. -1.
          1    1    1    2  502    0  0.69445428771E+02  0.91607744640E+02 -0.17135872484E+02  0.11622514608E+03  0.00000000000E+00 0. -1.
         22    1    3    3    0    0 -0.78953264329E+02  0.86329643619E+01 -0.70617713309E+02  0.10627797258E+03  0.00000000000E+00 0.  1.
         22    1    3    3    0    0 -0.23890915743E+02 -0.10119175098E+03 -0.46332472406E+02  0.11382989204E+03  0.00000000000E+00 0.  1.
</event>
<event>
 7    1  0.8278507E-006  0.6640285E+02  0.7818608E-02  0.1462835E+00
          2   -1    0    0  502    0  0.00000000000E+00  0.00000000000E+00  0.19874547683E+04  0.19874547683E+04  0.00000000000E+00 0. -1.
          1   -1    0    0  501    0 -0.00000000000E+00 -0.00000000000E+00 -0.57720195778E+02  0.57720195778E+02  0.00000000000E+00 0. -1.
         25    2    1    2    0    0 -0.38514496585E+02 -0.14492743298E+02  0.74624140653E+02  0.15128426750E+03  0.12499904467E+03 0.  0.
          2    1    1    2  501    0 -0.98955895299E+01 -0.31608118796E+02 -0.41935534223E+01  0.33385352421E+02  0.00000000000E+00 0. -1.
          1    1    1    2  502    0  0.48410086115E+02  0.46100862094E+02  0.18593039853E+04  0.18605053442E+04  0.00000000000E+00 0. -1.
         22    1    3    3    0    0  0.67701034670E+01  0.51123975074E+02  0.24343305365E+02  0.57027113239E+02  0.00000000000E+00 0. -1.
         22    1    3    3    0    0 -0.45284600052E+02 -0.65616718371E+02  0.50280835289E+02  0.94257154259E+02  0.00000000000E+00 0. -1.
</event>
<event>
 7    1  0.8278507E-006  0.1800515E+03  0.7818608E-02  0.1246429E+00
          2   -1    0    0  502    0  0.00000000000E+00  0.00000000000E+00  0.77142762274E+03  0.77142762274E+03  0.00000000000E+00 0. -1.
          1   -1    0    0  501    0 -0.00000000000E+00 -0.00000000000E+00 -0.56655657943E+03  0.56655657943E+03  0.00000000000E+00 0. -1.
         25    2    1    2    0    0  0.52137050212E+02 -0.10331871385E+03  0.32654702341E+02  0.17344208962E+03  0.12499120061E+03 0.  0.
          2    1    1    2  501    0 -0.10226605278E+03  0.16220924088E+03 -0.47524806244E+03  0.51247527183E+03  0.00000000000E+00 0. -1.
          1    1    1    2  502    0  0.50129002570E+02 -0.58890527027E+02  0.64746440341E+03  0.65206684072E+03  0.00000000000E+00 0. -1.
         22    1    3    3    0    0  0.14296061196E+01 -0.23164576117E+02  0.68286720378E+02  0.72122933525E+02  0.00000000000E+00 0.  1.
         22    1    3    3    0    0  0.50707444092E+02 -0.80154137734E+02 -0.35632018037E+02  0.10131915609E+03  0.00000000000E+00 0.  1.
</event>
<event>
 7    1  0.8278507E-006  0.6434570E+02  0.7818608E-02  0.1383863E+00
          2   -1    0    0  502    0  0.00000000000E+00  0.00000000000E+00  0.15819268263E+03  0.15819268263E+03  0.00000000000E+00 0. -1.
          1   -1    0    0  501    0 -0.00000000000E+00 -0.00000000000E+00 -0.53375275540E+03  0.53375275540E+03  0.00000000000E+00 0. -1.
         25    2    1    2    0    0  0.10305843741E+02  0.30896183251E+02 -0.14995510759E+03  0.19791963072E+03  0.12499944551E+03 0.  0.
          2    1    1    2  501    0 -0.70341964810E+02 -0.13217203525E+02 -0.34868110707E+03  0.35595112152E+03  0.00000000000E+00 0. -1.
          1    1    1    2  502    0  0.60036121069E+02 -0.17678979726E+02  0.12307614188E+03  0.13807468579E+03  0.00000000000E+00 0. -1.
         22    1    3    3    0    0 -0.19946685652E+02 -0.41201147087E+02 -0.83855187825E+02  0.95535843090E+02  0.00000000000E+00 0. -1.
         22    1    3    3    0    0  0.30252529393E+02  0.72097330338E+02 -0.66099919766E+02  0.10238378763E+03  0.00000000000E+00 0. -1.
</event>
<event>
 7    1  0.8278507E-006  0.8764167E+02  0.7818608E-02  0.1374394E+00
          2   -1    0    0  502    0  0.00000000000E+00  0.00000000000E+00  0.53392653350E+02  0.53392653350E+02  0.00000000000E+00 0. -1.
          1   -1    0    0  501    0 -0.00000000000E+00 -0.00000000000E+00 -0.24224954250E+04  0.24224954250E+04  0.00000000000E+00 0. -1.
         25    2    1    2    0    0 -0.20590036044E+02 -0.68539513262E+02 -0.10182051711E+03  0.17639152924E+03  0.12499975769E+03 0.  0.
          2    1    1    2  501    0  0.20891708475E+02 -0.45033189681E+02 -0.20791375553E+04  0.20797301329E+04  0.00000000000E+00 0. -1.
          1    1    1    2  502    0 -0.30167243091E+00  0.11357270294E+03 -0.18814469926E+03  0.21976641627E+03  0.00000000000E+00 0. -1.
         22    1    3    3    0    0 -0.53168186126E+02 -0.53641452231E+02 -0.11553656878E+03  0.13803246045E+03  0.00000000000E+00 0. -1.
         22    1    3    3    0    0  0.32578150082E+02 -0.14898061031E+02  0.13716051668E+02  0.38359068793E+02  0.00000000000E+00 0. -1.
</event>
<event>
 7    1  0.8278507E-006  0.5947258E+02  0.7818608E-02  0.1408087E+00
          2   -1    0    0  502    0  0.00000000000E+00  0.00000000000E+00  0.34453109887E+04  0.34453109887E+04  0.00000000000E+00 0. -1.
          1   -1    0    0  501    0 -0.00000000000E+00 -0.00000000000E+00 -0.49129734426E+02  0.49129734426E+02  0.00000000000E+00 0. -1.
         25    2    1    2    0    0  0.55803648728E+02  0.89261892485E+02  0.30851415709E+03  0.34912523689E+03  0.12500285296E+03 0.  0.
          2    1    1    2  501    0 -0.44089544328E+02 -0.34673676414E+02 -0.10435613481E+01  0.56100274290E+02  0.00000000000E+00 0. -1.
          1    1    1    2  502    0 -0.11714104401E+02 -0.54588216071E+02  0.30887106585E+04  0.30892152119E+04  0.00000000000E+00 0. -1.
         22    1    3    3    0    0  0.42858853268E+02  0.78926636330E+02  0.31772299670E+03  0.33017298172E+03  0.00000000000E+00 0. -1.
         22    1    3    3    0    0  0.12944795461E+02  0.10335256155E+02 -0.92088396075E+01  0.18952255175E+02  0.00000000000E+00 0. -1.
</event>
<event>
 7    1  0.8278507E-006  0.5861095E+02  0.7818608E-02  0.1457383E+00
          2   -1    0    0  502    0  0.00000000000E+00  0.00000000000E+00  0.21580916016E+04  0.21580916016E+04  0.00000000000E+00 0. -1.
          1   -1    0    0  501    0 -0.00000000000E+00 -0.00000000000E+00 -0.60168399141E+02  0.60168399141E+02  0.00000000000E+00 0. -1.
         25    2    1    2    0    0 -0.66554264998E+02 -0.67212414806E+02  0.75304973650E+03  0.76919117329E+03  0.12499670612E+03 0.  0.
          2    1    1    2  501    0  0.47422268625E+02  0.33181783314E+02 -0.35661033274E+02  0.67982435964E+02  0.00000000000E+00 0. -1.
          1    1    1    2  502    0  0.19131996373E+02  0.34030631491E+02  0.13805344993E+04  0.13810863915E+04  0.00000000000E+00 0. -1.
         22    1    3    3    0    0  0.10697183798E+02 -0.75125200827E+01  0.46234887999E+03  0.46253362529E+03  0.00000000000E+00 0.  1.
         22    1    3    3    0    0 -0.77251448796E+02 -0.59699894723E+02  0.29070085651E+03  0.30665754800E+03  0.00000000000E+00 0.  1.
</event>
<event>
 7    1  0.8278507E-006  0.1225972E+03  0.7818608E-02  0.1284410E+00
          2   -1    0    0  502    0  0.00000000000E+00  0.00000000000E+00  0.24789452051E+04  0.24789452051E+04  0.00000000000E+00 0. -1.
          1   -1    0    0  501    0 -0.00000000000E+00 -0.00000000000E+00 -0.11718561731E+04  0.11718561731E+04  0.00000000000E+00 0. -1.
         25    2    1    2    0    0 -0.17572101006E+03 -0.10893269591E+02  0.30732752999E+03  0.37559599226E+03  0.12500240803E+03 0.  0.
          2    1    1    2  501    0  0.10986594129E+03  0.53522100637E+02 -0.11337171614E+04  0.11402849391E+04  0.00000000000E+00 0. -1.
          1    1    1    2  502    0  0.65855068767E+02 -0.42628831046E+02  0.21334786634E+04  0.21349204469E+04  0.00000000000E+00 0. -1.
         22    1    3    3    0    0 -0.16420013956E+03 -0.19825393723E+01  0.31775833046E+03  0.35768138457E+03  0.00000000000E+00 0. -1.
         22    1    3    3    0    0 -0.11520870503E+02 -0.89107302187E+01 -0.10430800470E+02  0.17914607689E+02  0.00000000000E+00 0. -1.
</event>
<event>
 7    1  0.8278507E-006  0.4133847E+02  0.7818608E-02  0.1510401E+00
          2   -1    0    0  502    0  0.00000000000E+00  0.00000000000E+00  0.10716389136E+04  0.10716389136E+04  0.00000000000E+00 0. -1.
          1   -1    0    0  501    0 -0.00000000000E+00 -0.00000000000E+00 -0.13661561067E+02  0.13661561067E+02  0.00000000000E+00 0. -1.
         25    2    1    2    0    0  0.33610297549E+02  0.24661732054E+02  0.78765472476E+03  0.79860084879E+03  0.12500198848E+03 0.  0.
          2    1    1    2  501    0  0.11269108877E+02 -0.36431046400E+02  0.58331384228E+02  0.69690489614E+02  0.00000000000E+00 0. -1.
          1    1    1    2  502    0 -0.44879406427E+02  0.11769314346E+02  0.21199124354E+03  0.21700913625E+03  0.00000000000E+00 0. -1.
         22    1    3    3    0    0  0.20764887695E+02  0.16120211664E+02  0.26628028593E+02  0.37417825857E+02  0.00000000000E+00 0. -1.
         22    1    3    3    0    0  0.12845409854E+02  0.85415203898E+01  0.76102669616E+03  0.76118302293E+03  0.00000000000E+00 0. -1.
</event>
<event>
 7    1  0.8278507E-006  0.1201314E+03  0.7818608E-02  0.1319382E+00
          2   -1    0    0  502    0  0.00000000000E+00  0.00000000000E+00  0.38137173418E+03  0.38137173418E+03  0.00000000000E+00 0. -1.
          1   -1    0    0  501    0 -0.00000000000E+00 -0.00000000000E+00 -0.13775972973E+04  0.13775972973E+04  0.00000000000E+00 0. -1.
         25    2    1    2    0    0 -0.10784772210E+03  0.73098377318E+02  0.20485268544E+03  0.27306309876E+03  0.12499731695E+03 0.  0.
          2    1    1    2  501    0  0.11907877354E+03 -0.16146243418E+02 -0.13347632840E+04  0.13401617364E+04  0.00000000000E+00 0. -1.
          1    1    1    2  502    0 -0.11231051442E+02 -0.56952133900E+02  0.13368503540E+03  0.14574419632E+03  0.00000000000E+00 0. -1.
         22    1    3    3    0    0 -0.36615022524E+02 -0.35288701429E+02  0.57832763459E+02  0.77010264590E+02  0.00000000000E+00 0. -1.
         22    1    3    3    0    0 -0.71232699574E+02  0.10838707875E+03  0.14701992198E+03  0.19605283417E+03  0.00000000000E+00 0. -1.
</event>
<event>
 7    1  0.8278507E-006  0.1555406E+03  0.7818608E-02  0.1209468E+00
          2   -1    0    0  502    0  0.00000000000E+00  0.00000000000E+00  0.17088518413E+03  0.17088518413E+03  0.00000000000E+00 0. -1.
          1   -1    0    0  501    0 -0.00000000000E+00 -0.00000000000E+00 -0.84501184606E+03  0.84501184606E+03  0.00000000000E+00 0. -1.
         25    2    1    2    0    0  0.22885759141E+03 -0.36579803706E+02 -0.15880376616E+03  0.30750228517E+03  0.12500056021E+03 0.  0.
          2    1    1    2  501    0 -0.96316859163E+02  0.89238235850E+02 -0.54680026144E+03  0.56234413486E+03  0.00000000000E+00 0. -1.
          1    1    1    2  502    0 -0.13254073225E+03 -0.52658432144E+02  0.31477365670E+02  0.14605061017E+03  0.00000000000E+00 0. -1.
         22    1    3    3    0    0  0.20263824502E+03  0.13556739511E+02 -0.10176118909E+03  0.22715937827E+03  0.00000000000E+00 0. -1.
         22    1    3    3    0    0  0.26219346396E+02 -0.50136543218E+02 -0.57042577074E+02  0.80342906909E+02  0.00000000000E+00 0. -1.
</event>
<event>
 7    1  0.8278507E-006  0.8616318E+02  0.7818608E-02  0.1414623E+00
          2   -1    0    0  502    0  0.00000000000E+00  0.00000000000E+00  0.53453180818E+03  0.53453180818E+03  0.00000000000E+00 0. -1.
          1   -1    0    0  501    0 -0.00000000000E+00 -0.00000000000E+00 -0.53783334920E+03  0.53783334920E+03  0.00000000000E+00 0. -1.
         25    2    1    2    0    0  0.82186723555E+02  0.18388479891E+02  0.37268165831E+03  0.40200705977E+03  0.12500105578E+03 0.  0.
          2    1    1    2  501    0 -0.81253405382E+01  0.35710911298E+02 -0.50815974861E+03  0.50947779191E+03  0.00000000000E+00 0. -1.
          1    1    1    2  502    0 -0.74061383016E+02 -0.54099391189E+02  0.13217654928E+03  0.16088030569E+03  0.00000000000E+00 0. -1.
         22    1    3    3    0    0  0.59526378616E+02  0.70576276058E+02  0.20219413715E+03  0.22227656104E+03  0.00000000000E+00 0.  1.
         22    1    3    3    0    0  0.22660344938E+02 -0.52187796168E+02  0.17048752116E+03  0.17973049873E+03  0.00000000000E+00 0.  1.
</event>
<event>
 7    1  0.8278507E-006  0.1582298E+03  0.7818608E-02  0.1207147E+00
          2   -1    0    0  502    0  0.00000000000E+00  0.00000000000E+00  0.59088121838E+03  0.59088121838E+03  0.00000000000E+00 0. -1.
          1   -1    0    0  501    0 -0.00000000000E+00 -0.00000000000E+00 -0.12263021257E+04  0.12263021257E+04  0.00000000000E+00 0. -1.
         25    2    1    2    0    0  0.14465791910E+03 -0.92742957038E+01  0.35832450953E+03  0.40625270224E+03  0.12503150733E+03 0.  0.
          2    1    1    2  501    0  0.37560703674E+02  0.12687496322E+03 -0.11410925116E+04  0.11487385180E+04  0.00000000000E+00 0. -1.
          1    1    1    2  502    0 -0.18221862277E+03 -0.11760066751E+03  0.14734709473E+03  0.26219212385E+03  0.00000000000E+00 0. -1.
         22    1    3    3    0    0  0.14955717362E+01 -0.42527792722E+02  0.58473319925E+02  0.72318593955E+02  0.00000000000E+00 0.  1.
         22    1    3    3    0    0  0.14316234736E+03  0.33253497018E+02  0.29985118960E+03  0.33393410828E+03  0.00000000000E+00 0.  1.
</event>
<event>
 7    1  0.1050403E-005  0.5756490E+02  0.7818608E-02  0.1453932E+00
          2   -1    0    0  502    0  0.00000000000E+00  0.00000000000E+00  0.13922991608E+04  0.13922991608E+04  0.00000000000E+00 0. -1.
          1   -1    0    0  501    0 -0.00000000000E+00 -0.00000000000E+00 -0.13223526958E+04  0.13223526958E+04  0.00000000000E+00 0. -1.
         25    2    1    2    0    0  0.62538485578E+02  0.22523664742E+00 -0.26045468195E+03  0.29558849265E+03  0.12499921091E+03 0.  0.
          2    1    1    2  501    0 -0.44972025750E+02  0.36560060862E+02 -0.10432243733E+04  0.10448331035E+04  0.00000000000E+00 0. -1.
          1    1    1    2  502    0 -0.17566459828E+02 -0.36785297510E+02  0.13736255203E+04  0.13742302605E+04  0.00000000000E+00 0. -1.
         22    1    3    3    0    0  0.29413719830E+02  0.19992585127E+02 -0.34801704391E+01  0.35734884365E+02  0.00000000000E+00 0. -1.
         22    1    3    3    0    0  0.33124765748E+02 -0.19767348480E+02 -0.25697451151E+03  0.25985360829E+03  0.00000000000E+00 0. -1.
</event>
<event>
 7    1  0.8278507E-006  0.1500849E+03  0.7818608E-02  0.1264624E+00
          2   -1    0    0  502    0  0.00000000000E+00  0.00000000000E+00  0.55688130706E+03  0.55688130706E+03  0.00000000000E+00 0. -1.
          1   -1    0    0  501    0 -0.00000000000E+00 -0.00000000000E+00 -0.62819636591E+03  0.62819636591E+03  0.00000000000E+00 0. -1.
         25    2    1    2    0    0 -0.41437857398E+02  0.82801496074E+02 -0.33265164878E+02  0.15907603726E+03  0.12500172262E+03 0.  0.
          2    1    1    2  501    0  0.29527112861E+02 -0.15936543087E+03 -0.51649216641E+03  0.54132554799E+03  0.00000000000E+00 0. -1.
          1    1    1    2  502    0  0.11910744537E+02  0.76563934799E+02  0.47844227244E+03  0.48467608771E+03  0.00000000000E+00 0. -1.
         22    1    3    3    0    0 -0.20996620125E+02  0.49339091308E+02  0.45995960518E+02  0.70645823456E+02  0.00000000000E+00 0. -1.
         22    1    3    3    0    0 -0.20441237273E+02  0.33462404767E+02 -0.79261125396E+02  0.88430213802E+02  0.00000000000E+00 0. -1.
</event>
<event>
 7    1  0.8278507E-006  0.1549556E+03  0.7818608E-02  0.1367813E+00
          2   -1    0    0  502    0  0.00000000000E+00  0.00000000000E+00  0.96307145489E+03  0.96307145489E+03  0.00000000000E+00 0. -1.
          1   -1    0    0  501    0 -0.00000000000E+00 -0.00000000000E+00 -0.64504576561E+03  0.64504576561E+03  0.00000000000E+00 0. -1.
         25    2    1    2    0    0  0.17974824434E+03 -0.25193116631E+02  0.70428531228E+02  0.23136802939E+03  0.12500744995E+03 0.  0.
          2    1    1    2  501    0 -0.27903939451E+02  0.10016075196E+02 -0.55701019420E+03  0.55779862678E+03  0.00000000000E+00 0. -1.
          1    1    1    2  502    0 -0.15184430489E+03  0.15177041436E+02  0.80460735225E+03  0.81895056433E+03  0.00000000000E+00 0. -1.
         22    1    3    3    0    0  0.49496894377E+02 -0.56969986803E+01 -0.36467885569E+02  0.61743866293E+02  0.00000000000E+00 0.  1.
         22    1    3    3    0    0  0.13025134996E+03 -0.19496117951E+02  0.10689641680E+03  0.16962416309E+03  0.00000000000E+00 0.  1.
</event>
<event>
 7    1  0.8278507E-006  0.7009822E+02  0.7818608E-02  0.1460878E+00
          2   -1    0    0  502    0  0.00000000000E+00  0.00000000000E+00  0.26195806282E+03  0.26195806282E+03  0.00000000000E+00 0. -1.
          1   -1    0    0  501    0 -0.00000000000E+00 -0.00000000000E+00 -0.44565750851E+03  0.44565750851E+03  0.00000000000E+00 0. -1.
         25    2    1    2    0    0 -0.99797650785E+02 -0.86398900728E+01 -0.47579790803E+02  0.16709013284E+03  0.12498422779E+03 0.  0.
          2    1    1    2  501    0  0.31421521540E+02  0.50385626469E+01 -0.33174273283E+03  0.33326556965E+03  0.00000000000E+00 0. -1.
          1    1    1    2  502    0  0.68376129245E+02  0.36013274259E+01  0.19562307794E+03  0.20725986884E+03  0.00000000000E+00 0. -1.
         22    1    3    3    0    0 -0.72150485335E+01  0.47886313072E+02  0.51981702927E+00  0.48429599572E+02  0.00000000000E+00 0. -1.
         22    1    3    3    0    0 -0.92582602252E+02 -0.56526203145E+02 -0.48099607832E+02  0.11866053327E+03  0.00000000000E+00 0. -1.
</event>
<event>
 7    1  0.8278507E-006  0.6133429E+02  0.7818608E-02  0.1486533E+00
          2   -1    0    0  502    0  0.00000000000E+00  0.00000000000E+00  0.49468031289E+03  0.49468031289E+03  0.00000000000E+00 0. -1.
          1   -1    0    0  501    0 -0.00000000000E+00 -0.00000000000E+00 -0.64911006085E+03  0.64911006085E+03  0.00000000000E+00 0. -1.
         25    2    1    2    0    0  0.16722461962E+02  0.73127394638E+02 -0.14524339909E+03  0.20579119261E+03  0.12500845330E+03 0.  0.
          2    1    1    2  501    0 -0.27442775105E+02 -0.12828671356E+02 -0.47108497663E+03  0.47205797941E+03  0.00000000000E+00 0. -1.
          1    1    1    2  502    0  0.10720313143E+02 -0.60298723282E+02  0.46189862775E+03  0.46594120172E+03  0.00000000000E+00 0. -1.
         22    1    3    3    0    0  0.31350425057E+02  0.16184085734E+02  0.12513804906E+02  0.37434864706E+02  0.00000000000E+00 0. -1.
         22    1    3    3    0    0 -0.14627963095E+02  0.56943308905E+02 -0.15775720399E+03  0.16835632790E+03  0.00000000000E+00 0. -1.
</event>
<event>
 7    1  0.8278507E-006  0.7112397E+02  0.7818608E-02  0.1499118E+00
          2   -1    0    0  502    0  0.00000000000E+00  0.00000000000E+00  0.11383618915E+04  0.11383618915E+04  0.00000000000E+00 0. -1.
          1   -1    0    0  501    0 -0.00000000000E+00 -0.00000000000E+00 -0.12333689730E+04  0.12333689730E+04  0.00000000000E+00 0. -1.
         25    2    1    2    0    0  0.66380002626E+02  0.54891213004E+02  0.82597771982E+03  0.83981470147E+03  0.12502075491E+03 0.  0.
          2    1    1    2  501    0 -0.63958982158E+02 -0.31074976554E+02 -0.12249487819E+04  0.12270109713E+04  0.00000000000E+00 0. -1.
          1    1    1    2  502    0 -0.24210204679E+01 -0.23816236450E+02  0.30396398050E+03  0.30490519166E+03  0.00000000000E+00 0. -1.
         22    1    3    3    0    0 -0.11691129018E+02 -0.17531973923E+02  0.40599346804E+03  0.40653997183E+03  0.00000000000E+00 0.  1.
         22    1    3    3    0    0  0.78071131644E+02  0.72423186927E+02  0.41998425178E+03  0.43327472964E+03  0.00000000000E+00 0.  1.
</event>
<event>
 7    1  0.8278507E-006  0.5214063E+02  0.7818608E-02  0.1473515E+00
          2   -1    0    0  502    0  0.00000000000E+00  0.00000000000E+00  0.29285397700E+04  0.29285397700E+04  0.00000000000E+00 0. -1.
          1   -1    0    0  501    0 -0.00000000000E+00 -0.00000000000E+00 -0.89941522621E+02  0.89941522621E+02  0.00000000000E+00 0. -1.
         25    2    1    2    0    0 -0.19499777666E+02 -0.88158787743E+02  0.21334889400E+03  0.26324029158E+03  0.12500194941E+03 0.  0.
          2    1    1    2  501    0  0.35909620725E+01  0.38901123754E+02 -0.58853311241E+02  0.70639257371E+02  0.00000000000E+00 0. -1.
          1    1    1    2  502    0  0.15908815594E+02  0.49257663990E+02  0.26841026647E+04  0.26846017437E+04  0.00000000000E+00 0. -1.
         22    1    3    3    0    0 -0.52071884022E+02 -0.96676128051E+02  0.19762372345E+03  0.22608160233E+03  0.00000000000E+00 0. -1.
         22    1    3    3    0    0  0.32572106356E+02  0.85173403074E+01  0.15725170549E+02  0.37158689256E+02  0.00000000000E+00 0. -1.
</event>
<event>
 7    1  0.8278507E-006  0.6276572E+02  0.7818608E-02  0.1461062E+00
          2   -1    0    0  502    0  0.00000000000E+00  0.00000000000E+00  0.15508312900E+04  0.15508312900E+04  0.00000000000E+00 0. -1.
          1   -1    0    0  501    0 -0.00000000000E+00 -0.00000000000E+00 -0.45433106760E+02  0.45433106760E+02  0.00000000000E+00 0. -1.
         25    2    1    2    0    0 -0.32567725875E+02  0.45813565815E+02  0.94886553918E+03  0.95871266200E+03  0.12499846900E+03 0.  0.
          2    1    1    2  501    0  0.59128297724E+02 -0.22269980388E+02 -0.14982746979E+02  0.64935277972E+02  0.00000000000E+00 0. -1.
          1    1    1    2  502    0 -0.26560571849E+02 -0.23543585427E+02  0.57151539103E+03  0.57261645678E+03  0.00000000000E+00 0. -1.
         22    1    3    3    0    0 -0.50404392619E+02 -0.26059086295E+02  0.27517384493E+03  0.28096320703E+03  0.00000000000E+00 0. -1.
         22    1    3    3    0    0  0.17836666745E+02  0.71872652110E+02  0.67369169425E+03  0.67774945496E+03  0.00000000000E+00 0. -1.
</event>
<event>
 7    1  0.8278507E-006  0.6713003E+02  0.7818608E-02  0.1406468E+00
          2   -1    0    0  502    0  0.00000000000E+00  0.00000000000E+00  0.18089304317E+04  0.18089304317E+04  0.00000000000E+00 0. -1.
          1   -1    0    0  501    0 -0.00000000000E+00 -0.00000000000E+00 -0.45362135842E+02  0.45362135842E+02  0.00000000000E+00 0. -1.
         25    2    1    2    0    0  0.15546238147E+02 -0.57342023223E+02  0.24031085782E+03  0.27731470271E+03  0.12499737121E+03 0.  0.
          2    1    1    2  501    0 -0.61152262701E+02  0.36618505982E+02  0.21590920855E+02  0.74476050360E+02  0.00000000000E+00 0. -1.
          1    1    1    2  502    0  0.45606024554E+02  0.20723517242E+02  0.15016665172E+04  0.15025018145E+04  0.00000000000E+00 0. -1.
         22    1    3    3    0    0 -0.36337957623E+02 -0.74667708226E+02  0.15785635957E+03  0.17836575925E+03  0.00000000000E+00 0. -1.
         22    1    3    3    0    0  0.51884195770E+02  0.17325685003E+02  0.82454498245E+02  0.98948943462E+02  0.00000000000E+00 0. -1.
</event>
<event>
 7    1  0.8278507E-006  0.1220553E+03  0.7818608E-02  0.1247996E+00
          2   -1    0    0  502    0  0.00000000000E+00  0.00000000000E+00  0.57376565234E+03  0.57376565234E+03  0.00000000000E+00 0. -1.
          1   -1    0    0  501    0 -0.00000000000E+00 -0.00000000000E+00 -0.15331770532E+03  0.15331770532E+03  0.00000000000E+00 0. -1.
         25    2    1    2    0    0 -0.81625109643E+02  0.74533649160E+01  0.25791747344E+03  0.29810212210E+03  0.12500096368E+03 0.  0.
          2    1    1    2  501    0 -0.10773454299E+03  0.31712593989E+02 -0.65492989256E+02  0.13000673834E+03  0.00000000000E+00 0. -1.
          1    1    1    2  502    0  0.18935965264E+03 -0.39165958905E+02  0.22802346283E+03  0.29897449722E+03  0.00000000000E+00 0. -1.
         22    1    3    3    0    0  0.14094681453E+02  0.31979398208E+02  0.13980799269E+03  0.14410973865E+03  0.00000000000E+00 0.  1.
         22    1    3    3    0    0 -0.95719791096E+02 -0.24526033292E+02  0.11810948075E+03  0.15399238345E+03  0.00000000000E+00 0.  1.
</event>
<event>
 7    1  0.8278507E-006  0.7790817E+02  0.7818608E-02  0.1456727E+00
          2   -1    0    0  502    0  0.00000000000E+00  0.00000000000E+00  0.76397959600E+03  0.76397959600E+03  0.00000000000E+00 0. -1.
          1   -1    0    0  501    0 -0.00000000000E+00 -0.00000000000E+00 -0.57650587755E+03  0.57650587755E+03  0.00000000000E+00 0. -1.
         25    2    1    2    0    0  0.11682229106E+02  0.57962290072E+02  0.13755771466E+03  0.19504728961E+03  0.12500087509E+03 0.  0.
          2    1    1    2  501    0  0.26982321770E+02  0.11951935596E+02 -0.54468997969E+03  0.54548883438E+03  0.00000000000E+00 0. -1.
          1    1    1    2  502    0 -0.38664550876E+02 -0.69914225669E+02  0.59460598348E+03  0.59994934956E+03  0.00000000000E+00 0. -1.
         22    1    3    3    0    0 -0.52504360808E+02  0.15470392263E+02  0.87551142134E+02  0.10325329743E+03  0.00000000000E+00 0.  1.
         22    1    3    3    0    0  0.64186589914E+02  0.42491897810E+02  0.50006572527E+02  0.91793992179E+02  0.00000000000E+00 0.  1.
</event>
<event>
 7    1  0.8278507E-006  0.6229139E+02  0.7818608E-02  0.1438607E+00
          2   -1    0    0  502    0  0.00000000000E+00  0.00000000000E+00  0.34330552355E+03  0.34330552355E+03  0.00000000000E+00 0. -1.
          1   -1    0    0  501    0 -0.00000000000E+00 -0.00000000000E+00 -0.27690882365E+03  0.27690882365E+03  0.00000000000E+00 0. -1.
         25    2    1    2    0    0 -0.99662027588E+02  0.25454709557E+02  0.20192904494E+03  0.25880674906E+03  0.12500052874E+03 0.  0.
          2    1    1    2  501    0  0.57617697504E+02 -0.21839839203E+02 -0.24050362222E+03  0.24827156491E+03  0.00000000000E+00 0. -1.
          1    1    1    2  502    0  0.42044330084E+02 -0.36148703537E+01  0.10497127718E+03  0.11313603322E+03  0.00000000000E+00 0. -1.
         22    1    3    3    0    0 -0.65463831687E+02  0.60341747535E+02  0.18798536107E+03  0.20800273011E+03  0.00000000000E+00 0.  1.
         22    1    3    3    0    0 -0.34198195901E+02 -0.34887037978E+02  0.13943683872E+02  0.50804018952E+02  0.00000000000E+00 0.  1.
</event>
<event>
 7    1  0.8278507E-006  0.1576327E+03  0.7818608E-02  0.1271755E+00
          2   -1    0    0  502    0  0.00000000000E+00  0.00000000000E+00  0.20302325069E+04  0.20302325069E+04  0.00000000000E+00 0. -1.
          1   -1    0    0  501    0 -0.00000000000E+00 -0.00000000000E+00 -0.68353664563E+03  0.68353664563E+03  0.00000000000E+00 0. -1.
         25    2    1    2    0    0 -0.51414711237E+02 -0.80240899126E+02  0.85146656647E+02  0.17876560212E+03  0.12500045176E+03 0.  0.
          2    1    1    2  501    0  0.10309543537E+03  0.12572466895E+03 -0.62570989816E+03  0.64648916296E+03  0.00000000000E+00 0. -1.
          1    1    1    2  502    0 -0.51680724131E+02 -0.45483769826E+02  0.18872591027E+04  0.18885143874E+04  0.00000000000E+00 0. -1.
         22    1    3    3    0    0 -0.74589412739E+02 -0.10028681591E+03  0.57826409534E+02  0.13771317867E+03  0.00000000000E+00 0. -1.
         22    1    3    3    0    0  0.23174701502E+02  0.20045916786E+02  0.27320247113E+02  0.41052423458E+02  0.00000000000E+00 0. -1.
</event>
<event>
 7    1  0.8278507E-006  0.7799399E+02  0.7818608E-02  0.1375426E+00
          2   -1    0    0  502    0  0.00000000000E+00  0.00000000000E+00  0.14857883791E+04  0.14857883791E+04  0.00000000000E+00 0. -1.
          1   -1    0    0  501    0 -0.00000000000E+00 -0.00000000000E+00 -0.87804729285E+03  0.87804729285E+03  0.00000000000E+00 0. -1.
         25    2    1    2    0    0 -0.49165043406E+02  0.38181414096E+02  0.14506845126E+03  0.20135732352E+03  0.12499957723E+03 0.  0.
          2    1    1    2  501    0 -0.29774219995E+02 -0.46615616085E+02 -0.84780038116E+03  0.84960285200E+03  0.00000000000E+00 0. -1.
          1    1    1    2  502    0  0.78939263402E+02  0.84342019893E+01  0.13104730161E+04  0.13128754964E+04  0.00000000000E+00 0. -1.
         22    1    3    3    0    0 -0.82071611774E+02  0.53716425069E+02  0.12773397576E+03  0.16105021684E+03  0.00000000000E+00 0.  1.
         22    1    3    3    0    0  0.32906568367E+02 -0.15535010973E+02  0.17334475504E+02  0.40307106677E+02  0.00000000000E+00 0.  1.
</event>
<event>
 7    1  0.8278507E-006  0.9228060E+02  0.7818608E-02  0.1486960E+00
          2   -1    0    0  502    0  0.00000000000E+00  0.00000000000E+00  0.73337649872E+03  0.73337649872E+03  0.00000000000E+00 0. -1.
          1   -1    0    0  501    0 -0.00000000000E+00 -0.00000000000E+00 -0.15569969636E+03  0.15569969636E+03  0.00000000000E+00 0. -1.
         25    2    1    2    0    0  0.73829209409E+02  0.53324914681E+02  0.16689361585E+03  0.22753630055E+03  0.12499996146E+03 0.  0.
          2    1    1    2  501    0  0.11280933782E+02 -0.16604775827E+02 -0.12053574800E+03  0.12219592707E+03  0.00000000000E+00 0. -1.
          1    1    1    2  502    0 -0.85110143190E+02 -0.36720138853E+02  0.53131893451E+03  0.53934396746E+03  0.00000000000E+00 0. -1.
         22    1    3    3    0    0  0.17404469730E+02  0.42760541657E+02 -0.48802862230E+01  0.46424095931E+02  0.00000000000E+00 0.  1.
         22    1    3    3    0    0  0.56424739679E+02  0.10564373023E+02  0.17177390208E+03  0.18111220461E+03  0.00000000000E+00 0.  1.
</event>
<event>
 7    1  0.8278507E-006  0.5116890E+02  0.7818608E-02  0.1484197E+00
          2   -1    0    0  502    0  0.00000000000E+00  0.00000000000E+00  0.50737629444E+02  0.50737629444E+02  0.00000000000E+00 0. -1.
          1   -1    0    0  501    0 -0.00000000000E+00 -0.00000000000E+00 -0.14758114661E+04  0.14758114661E+04  0.00000000000E+00 0. -1.
         25    2    1    2    0    0  0.96247662740E+01 -0.33145576803E+02 -0.31827602327E+03  0.34368181612E+03  0.12500519332E+03 0.  0.
          2    1    1    2  501    0 -0.45753603491E+02  0.25588078078E+02 -0.11351278616E+04  0.11363377157E+04  0.00000000000E+00 0. -1.
          1    1    1    2  502    0  0.36128837217E+02  0.75574987251E+01  0.28330048224E+02  0.46529563699E+02  0.00000000000E+00 0. -1.
         22    1    3    3    0    0 -0.28959000368E+01 -0.80537243242E+02 -0.19217016935E+03  0.20838427910E+03  0.00000000000E+00 0. -1.
         22    1    3    3    0    0  0.12520666311E+02  0.47391666438E+02 -0.12610585392E+03  0.13529753703E+03  0.00000000000E+00 0. -1.
</event>
<event>
 7    1  0.8278507E-006  0.3637188E+02  0.7818608E-02  0.1546696E+00
          2   -1    0    0  502    0  0.00000000000E+00  0.00000000000E+00  0.76575181233E+03  0.76575181233E+03  0.00000000000E+00 0. -1.
          1   -1    0    0  501    0 -0.00000000000E+00 -0.00000000000E+00 -0.80792451505E+03  0.80792451505E+03  0.00000000000E+00 0. -1.
         25    2    1    2    0    0 -0.23421892130E+02 -0.25703806809E+02  0.32823246205E+03  0.35294516655E+03  0.12499788290E+03 0.  0.
          2    1    1    2  501    0 -0.93314611567E+01  0.35176651721E+02 -0.79446735931E+03  0.79530048284E+03  0.00000000000E+00 0. -1.
          1    1    1    2  502    0  0.32753353286E+02 -0.94728449125E+01  0.42406219454E+03  0.42543067800E+03  0.00000000000E+00 0. -1.
         22    1    3    3    0    0  0.29736916983E+01 -0.58941720334E+02  0.28959984759E+03  0.29555209518E+03  0.00000000000E+00 0.  1.
         22    1    3    3    0    0 -0.26395583828E+02  0.33237913525E+02  0.38632614458E+02  0.57393071367E+02  0.00000000000E+00 0.  1.
</event>
<event>
 7    1  0.8278507E-006  0.1208033E+03  0.7818608E-02  0.1253493E+00
          2   -1    0    0  502    0  0.00000000000E+00  0.00000000000E+00  0.21881567262E+03  0.21881567262E+03  0.00000000000E+00 0. -1.
          1   -1    0    0  501    0 -0.00000000000E+00 -0.00000000000E+00 -0.40857738010E+03  0.40857738010E+03  0.00000000000E+00 0. -1.
         25    2    1    2    0    0  0.35671985813E+02  0.40181874389E+02  0.20465620524E+02  0.13758818281E+03  0.12499837128E+03 0.  0.
          2    1    1    2  501    0 -0.18701143229E+02  0.11934703140E+03 -0.28741671538E+03  0.31177205607E+03  0.00000000000E+00 0. -1.
          1    1    1    2  502    0 -0.16970842584E+02 -0.15952890579E+03  0.77189387377E+02  0.17803281384E+03  0.00000000000E+00 0. -1.
         22    1    3    3    0    0 -0.40340485010E+02  0.42517597813E+02  0.18695321505E+02  0.61519231959E+02  0.00000000000E+00 0.  1.
         22    1    3    3    0    0  0.76012470823E+02 -0.23357234242E+01  0.17702990184E+01  0.76068950848E+02  0.00000000000E+00 0.  1.
</event>
<event>
 7    1  0.8278507E-006  0.8608086E+02  0.7818608E-02  0.1313903E+00
          2   -1    0    0  502    0  0.00000000000E+00  0.00000000000E+00  0.44443797002E+03  0.44443797002E+03  0.00000000000E+00 0. -1.
          1   -1    0    0  501    0 -0.00000000000E+00 -0.00000000000E+00 -0.43741338163E+03  0.43741338163E+03  0.00000000000E+00 0. -1.
         25    2    1    2    0    0  0.32165807742E+02 -0.39797191149E+02  0.45652572704E+01  0.13514472552E+03  0.12499919860E+03 0.  0.
          2    1    1    2  501    0  0.54388050070E+02  0.66722216058E+02 -0.36151125195E+03  0.37161848635E+03  0.00000000000E+00 0. -1.
          1    1    1    2  502    0 -0.86553857812E+02 -0.26925024909E+02  0.36397058307E+03  0.37508813979E+03  0.00000000000E+00 0. -1.
         22    1    3    3    0    0  0.23906292286E+02 -0.78113371820E+02 -0.25685342514E+02  0.85632625138E+02  0.00000000000E+00 0.  1.
         22    1    3    3    0    0  0.82595154551E+01  0.38316180671E+02  0.30250599785E+02  0.49512100380E+02  0.00000000000E+00 0.  1.
</event>
<event>
 7    1  0.8278507E-006  0.6375531E+02  0.7818608E-02  0.1460748E+00
          2   -1    0    0  502    0  0.00000000000E+00  0.00000000000E+00  0.20110152702E+04  0.20110152702E+04  0.00000000000E+00 0. -1.
          1   -1    0    0  501    0 -0.00000000000E+00 -0.00000000000E+00 -0.23502604003E+02  0.23502604003E+02  0.00000000000E+00 0. -1.
         25    2    1    2    0    0 -0.54275778070E+02 -0.41254683014E+02  0.35838961559E+03  0.38563897137E+03  0.12500596274E+03 0.  0.
          2    1    1    2  501    0  0.30067009458E+02 -0.17958500887E+02  0.23941617088E+02  0.42423270037E+02  0.00000000000E+00 0. -1.
          1    1    1    2  502    0  0.24208768612E+02  0.59213183901E+02  0.16051814335E+04  0.16064556328E+04  0.00000000000E+00 0. -1.
         22    1    3    3    0    0 -0.12503547435E+02 -0.25104810471E+02  0.38819484029E+01  0.28313596215E+02  0.00000000000E+00 0.  1.
         22    1    3    3    0    0 -0.41772230635E+02 -0.16149872543E+02  0.35450766718E+03  0.35732537515E+03  0.00000000000E+00 0.  1.
</event>
<event>
 7    1  0.8278507E-006  0.5442258E+02  0.7818608E-02  0.1428754E+00
          2   -1    0    0  502    0  0.00000000000E+00  0.00000000000E+00  0.14876712167E+03  0.14876712167E+03  0.00000000000E+00 0. -1.
          1   -1    0    0  501    0 -0.00000000000E+00 -0.00000000000E+00 -0.73152668794E+03  0.73152668794E+03  0.00000000000E+00 0. -1.
         25    2    1    2    0    0 -0.57495235482E+02  0.49819241817E+02 -0.20105830416E+03  0.24864083975E+03  0.12494065215E+03 0.  0.
          2    1    1    2  501    0  0.31599010402E+01 -0.51930319551E+02 -0.49934625667E+03  0.50204922778E+03  0.00000000000E+00 0. -1.
          1    1    1    2  502    0  0.54335334441E+02  0.21110777339E+01  0.11764499456E+03  0.12960374209E+03  0.00000000000E+00 0. -1.
         22    1    3    3    0    0  0.31254917479E+02  0.42624685574E+02 -0.47140725201E+02  0.70823595358E+02  0.00000000000E+00 0. -1.
         22    1    3    3    0    0 -0.88750152961E+02  0.71945562432E+01 -0.15391757896E+03  0.17781724439E+03  0.00000000000E+00 0. -1.
</event>
<event>
 7    1  0.8278507E-006  0.1387523E+03  0.7818608E-02  0.1347052E+00
          2   -1    0    0  502    0  0.00000000000E+00  0.00000000000E+00  0.56420734747E+02  0.56420734747E+02  0.00000000000E+00 0. -1.
          1   -1    0    0  501    0 -0.00000000000E+00 -0.00000000000E+00 -0.11352789617E+04  0.11352789617E+04  0.00000000000E+00 0. -1.
         25    2    1    2    0    0 -0.10003030814E+03  0.42963731096E+02 -0.25244698097E+03  0.30200378664E+03  0.12499945685E+03 0.  0.
          2    1    1    2  501    0  0.13941851328E+03 -0.45117332393E+02 -0.83628956201E+03  0.84903081632E+03  0.00000000000E+00 0. -1.
          1    1    1    2  502    0 -0.39388205142E+02  0.21536012964E+01  0.98783160035E+01  0.40665093507E+02  0.00000000000E+00 0. -1.
         22    1    3    3    0    0 -0.10567421734E+03 -0.15691631276E+02 -0.16196891796E+03  0.19402885839E+03  0.00000000000E+00 0.  1.
         22    1    3    3    0    0  0.56439092030E+01  0.58655362373E+02 -0.90478063007E+02  0.10797492825E+03  0.00000000000E+00 0.  1.
</event>
<event>
 7    1  0.8278507E-006  0.9422340E+02  0.7818608E-02  0.1446871E+00
          2   -1    0    0  502    0  0.00000000000E+00  0.00000000000E+00  0.94387122323E+03  0.94387122323E+03  0.00000000000E+00 0. -1.
          1   -1    0    0  501    0 -0.00000000000E+00 -0.00000000000E+00 -0.32396012831E+03  0.32396012831E+03  0.00000000000E+00 0. -1.
         25    2    1    2    0    0  0.86987875629E+02 -0.23987779189E+02  0.87159060995E+03  0.88511930447E+03  0.12499475082E+03 0.  0.
          2    1    1    2  501    0 -0.80329442927E+02  0.49362438950E+02 -0.30717999016E+03  0.32132384931E+03  0.00000000000E+00 0. -1.
          1    1    1    2  502    0 -0.66584327016E+01 -0.25374659761E+02  0.55500475137E+02  0.61388197762E+02  0.00000000000E+00 0. -1.
         22    1    3    3    0    0  0.87996601597E+02  0.34842243090E+02  0.57695300728E+03  0.58466413984E+03  0.00000000000E+00 0. -1.
         22    1    3    3    0    0 -0.10087259683E+01 -0.58830022279E+02  0.29463760266E+03  0.30045516463E+03  0.00000000000E+00 0. -1.
</event>
<event>
 7    1  0.8278507E-006  0.5483395E+02  0.7818608E-02  0.1443223E+00
          2   -1    0    0  502    0  0.00000000000E+00  0.00000000000E+00  0.27724560233E+03  0.27724560233E+03  0.00000000000E+00 0. -1.
          1   -1    0    0  501    0 -0.00000000000E+00 -0.00000000000E+00 -0.39152971766E+03  0.39152971766E+03  0.00000000000E+00 0. -1.
         25    2    1    2    0    0 -0.38972803823E+02  0.83901986715E+02  0.11140791756E+03  0.19129803885E+03  0.12499917104E+03 0.  0.
          2    1    1    2  501    0  0.39313563134E+02 -0.37587892034E+02 -0.34512167261E+03  0.34938141733E+03  0.00000000000E+00 0. -1.
          1    1    1    2  502    0 -0.34075931144E+00 -0.46314094681E+02  0.11942963971E+03  0.12809586381E+03  0.00000000000E+00 0. -1.
         22    1    3    3    0    0 -0.97529375964E+01 -0.30929146974E+02  0.44996774345E+02  0.55465679711E+02  0.00000000000E+00 0. -1.
         22    1    3    3    0    0 -0.29219866227E+02  0.11483113369E+03  0.66411143220E+02  0.13583235914E+03  0.00000000000E+00 0. -1.
</event>
<event>
 7    1  0.8278507E-006  0.6871636E+02  0.7818608E-02  0.1374201E+00
          2   -1    0    0  502    0  0.00000000000E+00  0.00000000000E+00  0.70275838360E+03  0.70275838360E+03  0.00000000000E+00 0. -1.
          1   -1    0    0  501    0 -0.00000000000E+00 -0.00000000000E+00 -0.81920450470E+03  0.81920450470E+03  0.00000000000E+00 0. -1.
         25    2    1    2    0    0  0.90955710494E+02  0.95318174832E+02 -0.25869915613E+03  0.31608727737E+03  0.12500967085E+03 0.  0.
          2    1    1    2  501    0 -0.43768336038E+02 -0.45890638163E+02 -0.52817774742E+03  0.53197119356E+03  0.00000000000E+00 0. -1.
          1    1    1    2  502    0 -0.47187374456E+02 -0.49427536669E+02  0.67043078245E+03  0.67390441737E+03  0.00000000000E+00 0. -1.
         22    1    3    3    0    0  0.11278106677E+03  0.10583166149E+03 -0.20183622499E+03  0.25427892424E+03  0.00000000000E+00 0.  1.
         22    1    3    3    0    0 -0.21825356272E+02 -0.10513486662E+02 -0.56862931145E+02  0.61808353130E+02  0.00000000000E+00 0.  1.
</event>
<event>
 7    1  0.8278507E-006  0.3148079E+02  0.7818608E-02  0.1627996E+00
          2   -1    0    0  502    0  0.00000000000E+00  0.00000000000E+00  0.17567228464E+03  0.17567228464E+03  0.00000000000E+00 0. -1.
          1   -1    0    0  501    0 -0.00000000000E+00 -0.00000000000E+00 -0.11764537404E+04  0.11764537404E+04  0.00000000000E+00 0. -1.
         25    2    1    2    0    0  0.32913321644E+02  0.73697472650E+01 -0.90728539847E+03  0.91647654824E+03  0.12499947715E+03 0.  0.
          2    1    1    2  501    0 -0.28313322955E+02  0.16136393733E+02 -0.26272270010E+03  0.26473617926E+03  0.00000000000E+00 0. -1.
          1    1    1    2  502    0 -0.45999986889E+01 -0.23506140998E+02  0.16922664279E+03  0.17091329756E+03  0.00000000000E+00 0. -1.
         22    1    3    3    0    0  0.80825410787E+02  0.49532293968E+01 -0.60848956539E+03  0.61385408095E+03  0.00000000000E+00 0.  1.
         22    1    3    3    0    0 -0.47912089143E+02  0.24165178681E+01 -0.29879583308E+03  0.30262246729E+03  0.00000000000E+00 0.  1.
</event>
<event>
 7    1  0.8278507E-006  0.7051047E+02  0.7818608E-02  0.1468244E+00
          2   -1    0    0  502    0  0.00000000000E+00  0.00000000000E+00  0.63265082993E+03  0.63265082993E+03  0.00000000000E+00 0. -1.
          1   -1    0    0  501    0 -0.00000000000E+00 -0.00000000000E+00 -0.43857039850E+03  0.43857039850E+03  0.00000000000E+00 0. -1.
         25    2    1    2    0    0  0.20771916435E+02 -0.38524105467E+02 -0.81949072856E+02  0.15572756449E+03  0.12497937665E+03 0.  0.
          2    1    1    2  501    0 -0.38556377638E+02  0.62682831078E+02 -0.31511210517E+03  0.32359136329E+03  0.00000000000E+00 0. -1.
          1    1    1    2  502    0  0.17784461203E+02 -0.24158725611E+02  0.59114160946E+03  0.59190230065E+03  0.00000000000E+00 0. -1.
         22    1    3    3    0    0  0.10689891770E+02  0.22993249868E+02 -0.89417921358E+02  0.92943681795E+02  0.00000000000E+00 0.  1.
         22    1    3    3    0    0  0.10082024665E+02 -0.61517355335E+02  0.74688485023E+01  0.62783882699E+02  0.00000000000E+00 0.  1.
</event>
<event>
 7    1  0.8278507E-006  0.6618671E+02  0.7818608E-02  0.1397355E+00
          2   -1    0    0  502    0  0.00000000000E+00  0.00000000000E+00  0.21874302993E+04  0.21874302993E+04  0.00000000000E+00 0. -1.
          1   -1    0    0  501    0 -0.00000000000E+00 -0.00000000000E+00 -0.11968055501E+04  0.11968055501E+04  0.00000000000E+00 0. -1.
         25    2    1    2    0    0 -0.13477116405E+02  0.27497352176E+02  0.56108938661E+01  0.12884531860E+03  0.12502758477E+03 0.  0.
          2    1    1    2  501    0  0.44727992869E+02  0.31310693420E+02 -0.11340084386E+04  0.11353220211E+04  0.00000000000E+00 0. -1.
          1    1    1    2  502    0 -0.31250876464E+02 -0.58808045596E+02  0.21190222940E+04  0.21200685097E+04  0.00000000000E+00 0. -1.
         22    1    3    3    0    0  0.47349245776E+02  0.26116907204E+02 -0.26312941851E+02  0.60136634644E+02  0.00000000000E+00 0. -1.
         22    1    3    3    0    0 -0.60826362181E+02  0.13804449726E+01  0.31923835717E+02  0.68708683959E+02  0.00000000000E+00 0. -1.
</event>
<event>
 7    1  0.8278507E-006  0.1353518E+03  0.7818608E-02  0.1285781E+00
          2   -1    0    0  502    0  0.00000000000E+00  0.00000000000E+00  0.23443470952E+04  0.23443470952E+04  0.00000000000E+00 0. -1.
          1   -1    0    0  501    0 -0.00000000000E+00 -0.00000000000E+00 -0.54119619857E+02  0.54119619857E+02  0.00000000000E+00 0. -1.
         25    2    1    2    0    0 -0.12326665479E+03  0.13391497338E+03  0.10032728306E+04  0.10272824749E+04  0.12500008931E+03 0.  0.
          2    1    1    2  501    0  0.17180878583E+02 -0.68005199666E+02 -0.76602708749E+01  0.70558979020E+02  0.00000000000E+00 0. -1.
          1    1    1    2  502    0  0.10608577621E+03 -0.65909773713E+02  0.12946149156E+04  0.13006252612E+04  0.00000000000E+00 0. -1.
         22    1    3    3    0    0 -0.71876051003E+02  0.14989106173E+02  0.18887094795E+03  0.20264026005E+03  0.00000000000E+00 0. -1.
         22    1    3    3    0    0 -0.51390603790E+02  0.11892586721E+03  0.81440188267E+03  0.82464221486E+03  0.00000000000E+00 0. -1.
</event>
<event>
 7    1  0.8278507E-006  0.7664918E+02  0.7818608E-02  0.1513137E+00
          2   -1    0    0  502    0  0.00000000000E+00  0.00000000000E+00  0.90042628946E+03  0.90042628946E+03  0.00000000000E+00 0. -1.
          1   -1    0    0  501    0 -0.00000000000E+00 -0.00000000000E+00 -0.44185053162E+03  0.44185053162E+03  0.00000000000E+00 0. -1.
         25    2    1    2    0    0 -0.23165829696E+02 -0.79886952835E+02  0.18110148163E+03  0.23524753527E+03  0.12500030122E+03 0.  0.
          2    1    1    2  501    0  0.19857410313E+02  0.36474965622E+01 -0.41242675088E+03  0.41292062896E+03  0.00000000000E+00 0. -1.
          1    1    1    2  502    0  0.33084193831E+01  0.76239456272E+02  0.68990102709E+03  0.69410865685E+03  0.00000000000E+00 0. -1.
         22    1    3    3    0    0  0.39291984908E+02 -0.61466831887E+02  0.14104950308E+03  0.15879859514E+03  0.00000000000E+00 0.  1.
         22    1    3    3    0    0 -0.62457814605E+02 -0.18420120948E+02  0.40051978546E+02  0.76448940126E+02  0.00000000000E+00 0.  1.
</event>
<event>
 7    1  0.8278507E-006  0.8268227E+02  0.7818608E-02  0.1327549E+00
          2   -1    0    0  502    0  0.00000000000E+00  0.00000000000E+00  0.11781006799E+03  0.11781006799E+03  0.00000000000E+00 0. -1.
          1   -1    0    0  501    0 -0.00000000000E+00 -0.00000000000E+00 -0.10354775939E+04  0.10354775939E+04  0.00000000000E+00 0. -1.
         25    2    1    2    0    0 -0.29603597658E+02  0.21375097522E+02 -0.19590008773E+03  0.23523698826E+03  0.12500531384E+03 0.  0.
          2    1    1    2  501    0  0.59448077425E+02  0.57465496499E+02 -0.79927157791E+03  0.80353681462E+03  0.00000000000E+00 0. -1.
          1    1    1    2  502    0 -0.29844479766E+02 -0.78840594021E+02  0.77504139710E+02  0.11451385903E+03  0.00000000000E+00 0. -1.
         22    1    3    3    0    0 -0.36973306720E+02  0.61636769914E+02 -0.17519846721E+03  0.18936900414E+03  0.00000000000E+00 0.  1.
         22    1    3    3    0    0  0.73697090618E+01 -0.40261672392E+02 -0.20701620511E+02  0.45867984120E+02  0.00000000000E+00 0.  1.
</event>
<event>
 7    1  0.8278507E-006  0.7867763E+02  0.7818608E-02  0.1393166E+00
          2   -1    0    0  502    0  0.00000000000E+00  0.00000000000E+00  0.98919478789E+02  0.98919478789E+02  0.00000000000E+00 0. -1.
          1   -1    0    0  501    0 -0.00000000000E+00 -0.00000000000E+00 -0.27161456157E+04  0.27161456157E+04  0.00000000000E+00 0. -1.
         25    2    1    2    0    0 -0.45362593046E+02  0.74083387256E+02 -0.83701112842E+03  0.85073958970E+03  0.12499642906E+03 0.  0.
          2    1    1    2  501    0  0.47258766421E+02  0.46802557597E+01 -0.18550529744E+04  0.18556607539E+04  0.00000000000E+00 0. -1.
          1    1    1    2  502    0 -0.18961733743E+01 -0.78763643015E+02  0.74837965923E+02  0.10866475085E+03  0.00000000000E+00 0. -1.
         22    1    3    3    0    0  0.14215712441E+02  0.25118168628E+02 -0.61571804484E+03  0.61639412685E+03  0.00000000000E+00 0.  1.
         22    1    3    3    0    0 -0.59578305488E+02  0.48965218627E+02 -0.22129308358E+03  0.23434546285E+03  0.00000000000E+00 0.  1.
</event>
<event>
 7    1  0.8278507E-006  0.5578551E+02  0.7818608E-02  0.1455497E+00
          2   -1    0    0  502    0  0.00000000000E+00  0.00000000000E+00  0.37601627914E+03  0.37601627914E+03  0.00000000000E+00 0. -1.
          1   -1    0    0  501    0 -0.00000000000E+00 -0.00000000000E+00 -0.61144516625E+02  0.61144516625E+02  0.00000000000E+00 0. -1.
         25    2    1    2    0    0 -0.70930709987E+02  0.44210533390E+02  0.11239310148E+03  0.18772587076E+03  0.12499222541E+03 0.  0.
          2    1    1    2  501    0  0.29414484552E+02 -0.41805079021E+02  0.94563079430E+01  0.51983634860E+02  0.00000000000E+00 0. -1.
          1    1    1    2  502    0  0.41516225434E+02 -0.24054543698E+01  0.19302235309E+03  0.19745129014E+03  0.00000000000E+00 0. -1.
         22    1    3    3    0    0 -0.12255383763E+02 -0.35870432739E+02  0.18779895879E+00  0.37906696565E+02  0.00000000000E+00 0. -1.
         22    1    3    3    0    0 -0.58675326224E+02  0.80080966129E+02  0.11220530252E+03  0.14981917420E+03  0.00000000000E+00 0. -1.
</event>
<event>
 7    1  0.8278507E-006  0.1310121E+03  0.7818608E-02  0.1378018E+00
          2   -1    0    0  502    0  0.00000000000E+00  0.00000000000E+00  0.78512194940E+03  0.78512194940E+03  0.00000000000E+00 0. -1.
          1   -1    0    0  501    0 -0.00000000000E+00 -0.00000000000E+00 -0.74804538840E+03  0.74804538840E+03  0.00000000000E+00 0. -1.
         25    2    1    2    0    0  0.60280454324E+02 -0.11251666836E+03  0.17175399475E+03  0.24782547869E+03  0.12499719735E+03 0.  0.
          2    1    1    2  501    0  0.28739578379E+02  0.14602419030E+02 -0.70202546116E+03  0.70276521123E+03  0.00000000000E+00 0. -1.
          1    1    1    2  502    0 -0.89020032703E+02  0.97914249328E+02  0.56734802741E+03  0.58257664788E+03  0.00000000000E+00 0. -1.
         22    1    3    3    0    0 -0.63891150629E+01 -0.20920774247E+02  0.12225029521E+03  0.12419192512E+03  0.00000000000E+00 0.  1.
         22    1    3    3    0    0  0.66669569387E+02 -0.91595894111E+02  0.49503699532E+02  0.12363355357E+03  0.00000000000E+00 0.  1.
</event>
<event>
 7    1  0.8278507E-006  0.8389707E+02  0.7818608E-02  0.1328695E+00
          2   -1    0    0  502    0  0.00000000000E+00  0.00000000000E+00  0.21843983161E+04  0.21843983161E+04  0.00000000000E+00 0. -1.
          1   -1    0    0  501    0 -0.00000000000E+00 -0.00000000000E+00 -0.35664903103E+03  0.35664903103E+03  0.00000000000E+00 0. -1.
         25    2    1    2    0    0  0.78476301406E+02 -0.16167252756E+02  0.28313321162E+03  0.31970154522E+03  0.12499901019E+03 0.  0.
          2    1    1    2  501    0 -0.15832395192E+02  0.74867940923E+02 -0.33304492444E+03  0.34172327257E+03  0.00000000000E+00 0. -1.
          1    1    1    2  502    0 -0.62643906213E+02 -0.58700688167E+02  0.18776609979E+04  0.18796225294E+04  0.00000000000E+00 0. -1.
         22    1    3    3    0    0 -0.17976800748E+02  0.25140188752E+02  0.21047371161E+02  0.37392329272E+02  0.00000000000E+00 0. -1.
         22    1    3    3    0    0  0.96453102153E+02 -0.41307441508E+02  0.26208584046E+03  0.28230921595E+03  0.00000000000E+00 0. -1.
</event>
<event>
 7    1  0.8278507E-006  0.1251264E+03  0.7818608E-02  0.1312483E+00
          2   -1    0    0  502    0  0.00000000000E+00  0.00000000000E+00  0.30319053403E+04  0.30319053403E+04  0.00000000000E+00 0. -1.
          1   -1    0    0  501    0 -0.00000000000E+00 -0.00000000000E+00 -0.70279517941E+03  0.70279517941E+03  0.00000000000E+00 0. -1.
         25    2    1    2    0    0 -0.15236447451E+03  0.96208574309E+02 -0.14503932869E+02  0.21978761973E+03  0.12500084342E+03 0.  0.
          2    1    1    2  501    0  0.10710920695E+03 -0.57891119103E+02 -0.57901748640E+03  0.59167982342E+03  0.00000000000E+00 0. -1.
          1    1    1    2  502    0  0.45255267558E+02 -0.38317455205E+02  0.29226315801E+04  0.29232330765E+04  0.00000000000E+00 0. -1.
         22    1    3    3    0    0 -0.16314128998E+03  0.58816637976E+02 -0.33274137023E+02  0.17658325400E+03  0.00000000000E+00 0. -1.
         22    1    3    3    0    0  0.10776815467E+02  0.37391936333E+02  0.18770204153E+02  0.43204365732E+02  0.00000000000E+00 0. -1.
</event>
<event>
 7    1  0.8278507E-006  0.8706810E+02  0.7818608E-02  0.1330211E+00
          2   -1    0    0  502    0  0.00000000000E+00  0.00000000000E+00  0.62864099223E+03  0.62864099223E+03  0.00000000000E+00 0. -1.
          1   -1    0    0  501    0 -0.00000000000E+00 -0.00000000000E+00 -0.50027306315E+03  0.50027306315E+03  0.00000000000E+00 0. -1.
         25    2    1    2    0    0  0.90903214851E+01 -0.21788985751E+02 -0.60537035235E+02  0.14088433245E+03  0.12500507449E+03 0.  0.
          2    1    1    2  501    0 -0.30794559799E+02  0.91235873249E+02 -0.39145611846E+03  0.40312551663E+03  0.00000000000E+00 0. -1.
          1    1    1    2  502    0  0.21704238314E+02 -0.69446887498E+02  0.58036108277E+03  0.58490420629E+03  0.00000000000E+00 0. -1.
         22    1    3    3    0    0  0.52299002615E+02 -0.12949684497E+01  0.12308828932E+02  0.53743556707E+02  0.00000000000E+00 0. -1.
         22    1    3    3    0    0 -0.43208681130E+02 -0.20494017301E+02 -0.72845864167E+02  0.87140775739E+02  0.00000000000E+00 0. -1.
</event>
<event>
 7    1  0.8278507E-006  0.5480673E+02  0.7818608E-02  0.1469084E+00
          2   -1    0    0  502    0  0.00000000000E+00  0.00000000000E+00  0.16337452707E+04  0.16337452707E+04  0.00000000000E+00 0. -1.
          1   -1    0    0  501    0 -0.00000000000E+00 -0.00000000000E+00 -0.11053006849E+03  0.11053006849E+03  0.00000000000E+00 0. -1.
         25    2    1    2    0    0  0.55653896983E+01  0.27451274063E+02  0.90538894676E+03  0.91440601255E+03  0.12499865946E+03 0.  0.
          2    1    1    2  501    0  0.26737013196E+02 -0.48145297249E+02 -0.98321888979E+02  0.11269441590E+03  0.00000000000E+00 0. -1.
          1    1    1    2  502    0 -0.32302402894E+02  0.20694023186E+02  0.71614814440E+03  0.71717491072E+03  0.00000000000E+00 0. -1.
         22    1    3    3    0    0  0.88506829065E+01  0.74518159328E+02  0.68023471135E+03  0.68436141999E+03  0.00000000000E+00 0.  1.
         22    1    3    3    0    0 -0.32852932082E+01 -0.47066885265E+02  0.22515423542E+03  0.23004459256E+03  0.00000000000E+00 0.  1.
</event>
<event>
 7    1  0.8278507E-006  0.2565716E+02  0.7818608E-02  0.1671889E+00
          2   -1    0    0  502    0  0.00000000000E+00  0.00000000000E+00  0.39942972140E+03  0.39942972140E+03  0.00000000000E+00 0. -1.
          1   -1    0    0  501    0 -0.00000000000E+00 -0.00000000000E+00 -0.11547321881E+04  0.11547321881E+04  0.00000000000E+00 0. -1.
         25    2    1    2    0    0 -0.33901519552E+02 -0.26792746013E+02 -0.27769994098E+03  0.30758647769E+03  0.12500007908E+03 0.  0.
          2    1    1    2  501    0  0.24835943874E+02  0.57246845887E+01 -0.86155831190E+03  0.86193521852E+03  0.00000000000E+00 0. -1.
          1    1    1    2  502    0  0.90655756778E+01  0.21068061425E+02  0.38395578623E+03  0.38464021325E+03  0.00000000000E+00 0. -1.
         22    1    3    3    0    0 -0.59464040029E+02 -0.50471991068E+02 -0.25333087134E+03  0.26506588674E+03  0.00000000000E+00 0.  1.
         22    1    3    3    0    0  0.25562520477E+02  0.23679245055E+02 -0.24369069641E+02  0.42520590949E+02  0.00000000000E+00 0.  1.
</event>
<event>
 7    1  0.8278507E-006  0.2966799E+03  0.7818608E-02  0.1242410E+00
          2   -1    0    0  502    0  0.00000000000E+00  0.00000000000E+00  0.41858163899E+03  0.41858163899E+03  0.00000000000E+00 0. -1.
          1   -1    0    0  501    0 -0.00000000000E+00 -0.00000000000E+00 -0.20134721100E+04  0.20134721100E+04  0.00000000000E+00 0. -1.
         25    2    1    2    0    0  0.17373421023E+03 -0.28909632010E+03 -0.22501929900E+03  0.42428601835E+03  0.12499872936E+03 0.  0.
          2    1    1    2  501    0 -0.27667284901E+02  0.40290506107E+02 -0.16231306735E+04  0.16238663697E+04  0.00000000000E+00 0. -1.
          1    1    1    2  502    0 -0.14606692533E+03  0.24880581400E+03  0.25325950153E+03  0.38390136086E+03  0.00000000000E+00 0. -1.
         22    1    3    3    0    0  0.95469586164E+02 -0.25359624716E+03 -0.14732058981E+03  0.30842965914E+03  0.00000000000E+00 0. -1.
         22    1    3    3    0    0  0.78264624068E+02 -0.35500072945E+02 -0.77698709190E+02  0.11585635921E+03  0.00000000000E+00 0. -1.
</event>
<event>
 7    1  0.8278507E-006  0.1394849E+03  0.7818608E-02  0.1345295E+00
          2   -1    0    0  502    0  0.00000000000E+00  0.00000000000E+00  0.25072271358E+04  0.25072271358E+04  0.00000000000E+00 0. -1.
          1   -1    0    0  501    0 -0.00000000000E+00 -0.00000000000E+00 -0.62904452068E+03  0.62904452068E+03  0.00000000000E+00 0. -1.
         25    2    1    2    0    0  0.44496916409E+01  0.11601395290E+03  0.43064105477E+02  0.17595056111E+03  0.12500018300E+03 0.  0.
          2    1    1    2  501    0  0.28225713623E+02 -0.13880053335E+03 -0.55351761932E+03  0.57135281033E+03  0.00000000000E+00 0. -1.
          1    1    1    2  502    0 -0.32675405264E+02  0.22786580456E+02  0.23886361290E+04  0.23889682851E+04  0.00000000000E+00 0. -1.
         22    1    3    3    0    0  0.41138591664E+02  0.73410930757E+02 -0.24887216776E+02  0.87754897514E+02  0.00000000000E+00 0. -1.
         22    1    3    3    0    0 -0.36688900024E+02  0.42603022140E+02  0.67951322254E+02  0.88195663592E+02  0.00000000000E+00 0. -1.
</event>
<event>
 7    1  0.8278507E-006  0.1064307E+03  0.7818608E-02  0.1336734E+00
          2   -1    0    0  502    0  0.00000000000E+00  0.00000000000E+00  0.45451913518E+03  0.45451913518E+03  0.00000000000E+00 0. -1.
          1   -1    0    0  501    0 -0.00000000000E+00 -0.00000000000E+00 -0.37248596535E+03  0.37248596535E+03  0.00000000000E+00 0. -1.
         25    2    1    2    0    0  0.70021797015E+02 -0.11253846889E+03  0.16351159316E+02  0.18292054377E+03  0.12499842353E+03 0.  0.
          2    1    1    2  501    0 -0.55559002649E+02  0.85977556961E+01 -0.27857309691E+03  0.28418953974E+03  0.00000000000E+00 0. -1.
          1    1    1    2  502    0 -0.14462794367E+02  0.10394071320E+03  0.34425510743E+03  0.35989501701E+03  0.00000000000E+00 0. -1.
         22    1    3    3    0    0  0.10364458385E+03 -0.78906959248E+02 -0.59418207350E+01  0.13039867029E+03  0.00000000000E+00 0. -1.
         22    1    3    3    0    0 -0.33622786831E+02 -0.33631509644E+02  0.22292980051E+02  0.52521873489E+02  0.00000000000E+00 0. -1.
</event>
<event>
 7    1  0.8278507E-006  0.2070364E+03  0.7818608E-02  0.1324832E+00
          2   -1    0    0  502    0  0.00000000000E+00  0.00000000000E+00  0.46163288042E+04  0.46163288042E+04  0.00000000000E+00 0. -1.
          1   -1    0    0  501    0 -0.00000000000E+00 -0.00000000000E+00 -0.27886206408E+02  0.27886206408E+02  0.00000000000E+00 0. -1.
         25    2    1    2    0    0  0.76938267073E+02  0.17055255086E+03  0.19775669527E+04  0.19903276022E+04  0.12500096814E+03 0.  0.
          2    1    1    2  501    0 -0.67992782012E+02 -0.20136745210E+03  0.50673087179E+03  0.54949799417E+03  0.00000000000E+00 0. -1.
          1    1    1    2  502    0 -0.89454850607E+01  0.30814901239E+02  0.21041447733E+04  0.21043894143E+04  0.00000000000E+00 0. -1.
         22    1    3    3    0    0  0.72549460004E+02  0.60291776567E+02  0.51237802803E+03  0.52098921877E+03  0.00000000000E+00 0.  1.
         22    1    3    3    0    0  0.43888070687E+01  0.11026077429E+03  0.14651889247E+04  0.14693383834E+04  0.00000000000E+00 0.  1.
</event>
<event>
 7    1  0.8278507E-006  0.2685481E+03  0.7818608E-02  0.1146430E+00
          2   -1    0    0  502    0  0.00000000000E+00  0.00000000000E+00  0.23644045659E+04  0.23644045659E+04  0.00000000000E+00 0. -1.
          1   -1    0    0  501    0 -0.00000000000E+00 -0.00000000000E+00 -0.38569183584E+03  0.38569183584E+03  0.00000000000E+00 0. -1.
         25    2    1    2    0    0  0.96860258398E+02  0.10081873596E+03  0.66569580227E+03  0.69160854597E+03  0.12500061007E+03 0.  0.
          2    1    1    2  501    0 -0.11414681446E+03 -0.25477621599E+03 -0.31626443193E+03  0.42185732942E+03  0.00000000000E+00 0. -1.
          1    1    1    2  502    0  0.17286556062E+02  0.15395748003E+03  0.16292813597E+04  0.16366305263E+04  0.00000000000E+00 0. -1.
         22    1    3    3    0    0  0.11979865341E+03  0.11017923112E+03  0.57940409528E+03  0.60183077851E+03  0.00000000000E+00 0.  1.
         22    1    3    3    0    0 -0.22938395011E+02 -0.93604951593E+01  0.86291706992E+02  0.89777767464E+02  0.00000000000E+00 0.  1.
</event>
<event>
 7    1  0.8278507E-006  0.8600199E+02  0.7818608E-02  0.1412591E+00
          2   -1    0    0  502    0  0.00000000000E+00  0.00000000000E+00  0.20892399462E+03  0.20892399462E+03  0.00000000000E+00 0. -1.
          1   -1    0    0  501    0 -0.00000000000E+00 -0.00000000000E+00 -0.35725891828E+03  0.35725891828E+03  0.00000000000E+00 0. -1.
         25    2    1    2    0    0  0.97769150489E+02 -0.40194194894E+02 -0.22558015953E+03  0.27872288809E+03  0.12500263950E+03 0.  0.
          2    1    1    2  501    0 -0.12494975643E+02  0.35119174537E+02 -0.91237417167E+02  0.98558343776E+02  0.00000000000E+00 0. -1.
          1    1    1    2  502    0 -0.85274174846E+02  0.50750203573E+01  0.16848265303E+03  0.18890168104E+03  0.00000000000E+00 0. -1.
         22    1    3    3    0    0  0.57890756520E+00  0.21491554968E+02 -0.12196356612E+03  0.12384398867E+03  0.00000000000E+00 0.  1.
         22    1    3    3    0    0  0.97190242924E+02 -0.61685749862E+02 -0.10361659341E+03  0.15487889942E+03  0.00000000000E+00 0.  1.
</event>
<event>
 7    1  0.8278507E-006  0.5129641E+02  0.7818608E-02  0.1445313E+00
          2   -1    0    0  502    0  0.00000000000E+00  0.00000000000E+00  0.17476506312E+03  0.17476506312E+03  0.00000000000E+00 0. -1.
          1   -1    0    0  501    0 -0.00000000000E+00 -0.00000000000E+00 -0.17833255526E+03  0.17833255526E+03  0.00000000000E+00 0. -1.
         25    2    1    2    0    0 -0.22194739318E+02 -0.93595950897E+01  0.24248196742E+02  0.12959145103E+03  0.12500304261E+03 0.  0.
          2    1    1    2  501    0  0.31690349490E+02 -0.41050280372E+02 -0.11285128139E+03  0.12419668064E+03  0.00000000000E+00 0. -1.
          1    1    1    2  502    0 -0.94956101716E+01  0.50409875462E+02  0.85035592516E+02  0.99309486713E+02  0.00000000000E+00 0. -1.
         22    1    3    3    0    0 -0.46476928919E+02 -0.13113934784E+02  0.65619454112E+02  0.81473879037E+02  0.00000000000E+00 0. -1.
         22    1    3    3    0    0  0.24282189601E+02  0.37543396947E+01 -0.41371257371E+02  0.48117571996E+02  0.00000000000E+00 0. -1.
</event>
<event>
 7    1  0.8278507E-006  0.6232476E+02  0.7818608E-02  0.1401237E+00
          2   -1    0    0  502    0  0.00000000000E+00  0.00000000000E+00  0.43377776671E+04  0.43377776671E+04  0.00000000000E+00 0. -1.
          1   -1    0    0  501    0 -0.00000000000E+00 -0.00000000000E+00 -0.25724930223E+03  0.25724930223E+03  0.00000000000E+00 0. -1.
         25    2    1    2    0    0 -0.10097059135E+02 -0.11508323043E+03  0.45772972193E+03  0.48835567090E+03  0.12501464884E+03 0.  0.
          2    1    1    2  501    0 -0.69526370256E+01  0.61506418613E+02 -0.23776919989E+03  0.24569405998E+03  0.00000000000E+00 0. -1.
          1    1    1    2  502    0  0.17049696160E+02  0.53576811819E+02  0.38605678428E+04  0.38609772384E+04  0.00000000000E+00 0. -1.
         22    1    3    3    0    0 -0.27375986482E+02 -0.17052554364E+02  0.16870736474E+02  0.36398571337E+02  0.00000000000E+00 0.  1.
         22    1    3    3    0    0  0.17278927348E+02 -0.98030676068E+02  0.44085898546E+03  0.45195709956E+03  0.00000000000E+00 0.  1.
</event>
<event>
 7    1  0.8278507E-006  0.3011365E+02  0.7818608E-02  0.1612738E+00
          2   -1    0    0  502    0  0.00000000000E+00  0.00000000000E+00  0.22253599433E+04  0.22253599433E+04  0.00000000000E+00 0. -1.
          1   -1    0    0  501    0 -0.00000000000E+00 -0.00000000000E+00 -0.16963311739E+02  0.16963311739E+02  0.00000000000E+00 0. -1.
         25    2    1    2    0    0  0.16749768582E+02 -0.15320551056E+02  0.37075502788E+03  0.39191745412E+03  0.12499890445E+03 0.  0.
          2    1    1    2  501    0  0.53409458988E+01  0.31500306827E+02  0.34370518499E+02  0.46926832145E+02  0.00000000000E+00 0. -1.
          1    1    1    2  502    0 -0.22090714481E+02 -0.16179755771E+02  0.18032710851E+04  0.18034789687E+04  0.00000000000E+00 0. -1.
         22    1    3    3    0    0  0.16224553608E+02 -0.52418439121E+02  0.33800233063E+03  0.34242737101E+03  0.00000000000E+00 0.  1.
         22    1    3    3    0    0  0.52521497349E+00  0.37097888065E+02  0.32752697243E+02  0.49490083111E+02  0.00000000000E+00 0.  1.
</event>
<event>
 7    1  0.8278507E-006  0.7147998E+02  0.7818608E-02  0.1507104E+00
          2   -1    0    0  502    0  0.00000000000E+00  0.00000000000E+00  0.63499356832E+03  0.63499356832E+03  0.00000000000E+00 0. -1.
          1   -1    0    0  501    0 -0.00000000000E+00 -0.00000000000E+00 -0.14796081990E+04  0.14796081990E+04  0.00000000000E+00 0. -1.
         25    2    1    2    0    0 -0.45843171295E+02  0.18367218974E+02 -0.10597859286E+03  0.17115959836E+03  0.12500077951E+03 0.  0.
          2    1    1    2  501    0 -0.21805762354E+02  0.57576718986E+01 -0.13388030372E+04  0.13389929852E+04  0.00000000000E+00 0. -1.
          1    1    1    2  502    0  0.67648933649E+02 -0.24124890872E+02  0.60016699938E+03  0.60444918374E+03  0.00000000000E+00 0. -1.
         22    1    3    3    0    0  0.36744239428E+01  0.65163414073E+02 -0.41426423436E+02  0.77304078053E+02  0.00000000000E+00 0. -1.
         22    1    3    3    0    0 -0.49517595238E+02 -0.46796195099E+02 -0.64552169424E+02  0.93855520302E+02  0.00000000000E+00 0. -1.
</event>
<event>
 7    1  0.8278507E-006  0.8878315E+02  0.7818608E-02  0.1358742E+00
          2   -1    0    0  502    0  0.00000000000E+00  0.00000000000E+00  0.16649081684E+04  0.16649081684E+04  0.00000000000E+00 0. -1.
          1   -1    0    0  501    0 -0.00000000000E+00 -0.00000000000E+00 -0.15965123652E+03  0.15965123652E+03  0.00000000000E+00 0. -1.
         25    2    1    2    0    0  0.40438879290E+02  0.37498791328E+02 -0.11220817496E+02  0.13708434862E+03  0.12499899832E+03 0.  0.
          2    1    1    2  501    0 -0.58931607469E+02 -0.90168117448E+02 -0.50875377849E+02  0.11912819916E+03  0.00000000000E+00 0. -1.
          1    1    1    2  502    0  0.18492728179E+02  0.52669326120E+02  0.15673531272E+04  0.15683468572E+04  0.00000000000E+00 0. -1.
         22    1    3    3    0    0  0.59566551634E+02 -0.27139852924E+02 -0.21494195412E+02  0.68896633638E+02  0.00000000000E+00 0.  1.
         22    1    3    3    0    0 -0.19127672343E+02  0.64638644252E+02  0.10273377916E+02  0.68187714977E+02  0.00000000000E+00 0.  1.
</event>
<event>
 7    1  0.8278507E-006  0.4124712E+03  0.7818608E-02  0.1293213E+00
          2   -1    0    0  502    0  0.00000000000E+00  0.00000000000E+00  0.87457334810E+03  0.87457334810E+03  0.00000000000E+00 0. -1.
          1   -1    0    0  501    0 -0.00000000000E+00 -0.00000000000E+00 -0.61083626730E+03  0.61083626730E+03  0.00000000000E+00 0. -1.
         25    2    1    2    0    0  0.41388371291E+03  0.10681707306E+02  0.35439723602E+03  0.55913997984E+03  0.12500515777E+03 0.  0.
          2    1    1    2  501    0 -0.28094640106E+01 -0.21283643248E+02 -0.40693307501E+03  0.40749897434E+03  0.00000000000E+00 0. -1.
          1    1    1    2  502    0 -0.41107424890E+03  0.10601935942E+02  0.31627291979E+03  0.51877066122E+03  0.00000000000E+00 0. -1.
         22    1    3    3    0    0  0.28812124362E+03 -0.50590016089E+02  0.23544295505E+03  0.37550843643E+03  0.00000000000E+00 0. -1.
         22    1    3    3    0    0  0.12576246930E+03  0.61271723395E+02  0.11895428097E+03  0.18363154341E+03  0.00000000000E+00 0. -1.
</event>
<event>
 7    1  0.8278507E-006  0.6705696E+02  0.7818608E-02  0.1441483E+00
          2   -1    0    0  502    0  0.00000000000E+00  0.00000000000E+00  0.45705571208E+03  0.45705571208E+03  0.00000000000E+00 0. -1.
          1   -1    0    0  501    0 -0.00000000000E+00 -0.00000000000E+00 -0.99221656660E+03  0.99221656660E+03  0.00000000000E+00 0. -1.
         25    2    1    2    0    0 -0.10423717385E+03 -0.83362918080E+01  0.19346407607E+02  0.16411573041E+03  0.12499922923E+03 0.  0.
          2    1    1    2  501    0  0.66557382248E+02  0.11077287038E+01 -0.91761558231E+03  0.92002688499E+03  0.00000000000E+00 0. -1.
          1    1    1    2  502    0  0.37679791599E+02  0.72285631043E+01  0.36310832018E+03  0.36512966328E+03  0.00000000000E+00 0. -1.
         22    1    3    3    0    0 -0.12142944441E+03 -0.10737177265E+02  0.47672770475E+02  0.13089342990E+03  0.00000000000E+00 0. -1.
         22    1    3    3    0    0  0.17192270562E+02  0.24008854573E+01 -0.28326362868E+02  0.33222300513E+02  0.00000000000E+00 0. -1.
</event>
<event>
 7    1  0.8278507E-006  0.8085733E+02  0.7818608E-02  0.1418669E+00
          2   -1    0    0  502    0  0.00000000000E+00  0.00000000000E+00  0.27952644315E+03  0.27952644315E+03  0.00000000000E+00 0. -1.
          1   -1    0    0  501    0 -0.00000000000E+00 -0.00000000000E+00 -0.32013626012E+03  0.32013626012E+03  0.00000000000E+00 0. -1.
         25    2    1    2    0    0  0.75385999227E+02 -0.64756819934E+02 -0.28807113752E+02  0.16226822093E+03  0.12499852445E+03 0.  0.
          2    1    1    2  501    0 -0.37422035502E+02 -0.55108180903E+01 -0.21539805010E+03  0.21869407364E+03  0.00000000000E+00 0. -1.
          1    1    1    2  502    0 -0.37963963724E+02  0.70267638024E+02  0.20359534688E+03  0.21870040870E+03  0.00000000000E+00 0. -1.
         22    1    3    3    0    0 -0.24740604634E+02 -0.51210348024E+02 -0.22068122884E+02  0.61004912179E+02  0.00000000000E+00 0. -1.
         22    1    3    3    0    0  0.10012660386E+03 -0.13546471910E+02 -0.67389908676E+01  0.10126330875E+03  0.00000000000E+00 0. -1.
</event>
<event>
 7    1  0.8278507E-006  0.9919024E+02  0.7818608E-02  0.1363495E+00
          2   -1    0    0  502    0  0.00000000000E+00  0.00000000000E+00  0.13042459049E+04  0.13042459049E+04  0.00000000000E+00 0. -1.
          1   -1    0    0  501    0 -0.00000000000E+00 -0.00000000000E+00 -0.24507976139E+03  0.24507976139E+03  0.00000000000E+00 0. -1.
         25    2    1    2    0    0 -0.10607011990E+03  0.82963809416E+02 -0.40056018367E+02  0.18802535760E+03  0.12496073978E+03 0.  0.
          2    1    1    2  501    0  0.14718378056E+02 -0.45699852075E+02 -0.12458848826E+03  0.13351928153E+03  0.00000000000E+00 0. -1.
          1    1    1    2  502    0  0.91351741843E+02 -0.37263957341E+02  0.12238106501E+04  0.12277810271E+04  0.00000000000E+00 0. -1.
         22    1    3    3    0    0 -0.90596366516E+02 -0.60311716289E+01 -0.43714341166E+01  0.90902068696E+02  0.00000000000E+00 0.  1.
         22    1    3    3    0    0 -0.15473753383E+02  0.88994981045E+02 -0.35684584251E+02  0.97123288907E+02  0.00000000000E+00 0.  1.
</event>
<event>
 7    1  0.8278507E-006  0.8982019E+02  0.7818608E-02  0.1339507E+00
          2   -1    0    0  502    0  0.00000000000E+00  0.00000000000E+00  0.22338636489E+03  0.22338636489E+03  0.00000000000E+00 0. -1.
          1   -1    0    0  501    0 -0.00000000000E+00 -0.00000000000E+00 -0.37232456915E+03  0.37232456915E+03  0.00000000000E+00 0. -1.
         25    2    1    2    0    0  0.36968443259E+02 -0.12259135805E+02 -0.13420440600E+03  0.18749117739E+03  0.12500066721E+03 0.  0.
          2    1    1    2  501    0  0.21174831214E+02 -0.61487624368E+02 -0.19467334249E+03  0.20524817101E+03  0.00000000000E+00 0. -1.
          1    1    1    2  502    0 -0.58143274473E+02  0.73746760174E+02  0.17993954423E+03  0.20297158564E+03  0.00000000000E+00 0. -1.
         22    1    3    3    0    0  0.57119431938E+02 -0.17787008690E+02 -0.89318434849E+01  0.60487891442E+02  0.00000000000E+00 0. -1.
         22    1    3    3    0    0 -0.20150988679E+02  0.55278728844E+01 -0.12527256251E+03  0.12700328595E+03  0.00000000000E+00 0. -1.
</event>
<event>
 7    1  0.8278507E-006  0.7994869E+02  0.7818608E-02  0.1480707E+00
          2   -1    0    0  502    0  0.00000000000E+00  0.00000000000E+00  0.13625898894E+04  0.13625898894E+04  0.00000000000E+00 0. -1.
          1   -1    0    0  501    0 -0.00000000000E+00 -0.00000000000E+00 -0.11838959767E+04  0.11838959767E+04  0.00000000000E+00 0. -1.
         25    2    1    2    0    0 -0.51492300927E+02  0.87569777082E+02  0.10745838138E+04  0.10865888972E+04  0.12500054354E+03 0.  0.
          2    1    1    2  501    0  0.31969919386E+02 -0.73249719293E+02 -0.11760149343E+04  0.11787275864E+04  0.00000000000E+00 0. -1.
          1    1    1    2  502    0  0.19522381540E+02 -0.14320057788E+02  0.28012503326E+03  0.28116938257E+03  0.00000000000E+00 0. -1.
         22    1    3    3    0    0 -0.83539230786E+02  0.87987693743E+02  0.95897861945E+03  0.96662331334E+03  0.00000000000E+00 0. -1.
         22    1    3    3    0    0  0.32046929860E+02 -0.41791666161E+00  0.11560519432E+03  0.11996558390E+03  0.00000000000E+00 0. -1.
</event>
<event>
 7    1  0.8278507E-006  0.1238304E+03  0.7818608E-02  0.1244248E+00
          2   -1    0    0  502    0  0.00000000000E+00  0.00000000000E+00  0.13651083284E+04  0.13651083284E+04  0.00000000000E+00 0. -1.
          1   -1    0    0  501    0 -0.00000000000E+00 -0.00000000000E+00 -0.72546986268E+03  0.72546986268E+03  0.00000000000E+00 0. -1.
         25    2    1    2    0    0 -0.10983524011E+03  0.50057759783E+02 -0.23883697680E+03  0.29535996793E+03  0.12499939953E+03 0.  0.
          2    1    1    2  501    0  0.12284499010E+03  0.64148197474E+02 -0.44534869292E+03  0.46641327288E+03  0.00000000000E+00 0. -1.
          1    1    1    2  502    0 -0.13009749996E+02 -0.11420595726E+03  0.13238241354E+04  0.13288049503E+04  0.00000000000E+00 0. -1.
         22    1    3    3    0    0 -0.12609062605E+03  0.39043102084E+02 -0.13178509623E+03  0.18652217399E+03  0.00000000000E+00 0.  1.
         22    1    3    3    0    0  0.16255385948E+02  0.11014657699E+02 -0.10705188057E+03  0.10883779394E+03  0.00000000000E+00 0.  1.
</event>
<event>
 7    1  0.8278507E-006  0.3345998E+02  0.7818608E-02  0.1572931E+00
          2   -1    0    0  502    0  0.00000000000E+00  0.00000000000E+00  0.27512625824E+02  0.27512625824E+02  0.00000000000E+00 0. -1.
          1   -1    0    0  501    0 -0.00000000000E+00 -0.00000000000E+00 -0.72244626231E+03  0.72244626231E+03  0.00000000000E+00 0. -1.
         25    2    1    2    0    0  0.87427091308E+01 -0.63315877179E+02 -0.22868134069E+03  0.26833745033E+03  0.12499798562E+03 0.  0.
          2    1    1    2  501    0 -0.42672316385E+01  0.32253409290E+02 -0.43856643639E+03  0.43977154388E+03  0.00000000000E+00 0. -1.
          1    1    1    2  502    0 -0.44754774923E+01  0.31062467889E+02 -0.27685859415E+02  0.41849893927E+02  0.00000000000E+00 0. -1.
         22    1    3    3    0    0  0.65880108633E+02 -0.39775601488E+02 -0.14686313924E+03  0.16580430891E+03  0.00000000000E+00 0.  1.
         22    1    3    3    0    0 -0.57137399502E+02 -0.23540275691E+02 -0.81818201447E+02  0.10253314142E+03  0.00000000000E+00 0.  1.
</event>
<event>
 7    1  0.8278507E-006  0.1389038E+03  0.7818608E-02  0.1339888E+00
          2   -1    0    0  502    0  0.00000000000E+00  0.00000000000E+00  0.15113163683E+04  0.15113163683E+04  0.00000000000E+00 0. -1.
          1   -1    0    0  501    0 -0.00000000000E+00 -0.00000000000E+00 -0.61902822497E+03  0.61902822497E+03  0.00000000000E+00 0. -1.
         25    2    1    2    0    0 -0.11917628160E+03 -0.95037857463E+01 -0.76681929030E+02  0.18920534118E+03  0.12500093940E+03 0.  0.
          2    1    1    2  501    0 -0.11097073650E+02 -0.40417261481E+02 -0.48182866318E+03  0.48364817867E+03  0.00000000000E+00 0. -1.
          1    1    1    2  502    0  0.13027335525E+03  0.49921047227E+02  0.14507987356E+04  0.14574910735E+04  0.00000000000E+00 0. -1.
         22    1    3    3    0    0  0.13225257558E+02  0.31662957597E+02 -0.15576468766E+02  0.37683905059E+02  0.00000000000E+00 0.  1.
         22    1    3    3    0    0 -0.13240153916E+03 -0.41166743344E+02 -0.61105460263E+02  0.15152143612E+03  0.00000000000E+00 0.  1.
</event>
<event>
 7    1  0.8278507E-006  0.4746233E+02  0.7818608E-02  0.1477626E+00
          2   -1    0    0  502    0  0.00000000000E+00  0.00000000000E+00  0.12107121023E+04  0.12107121023E+04  0.00000000000E+00 0. -1.
          1   -1    0    0  501    0 -0.00000000000E+00 -0.00000000000E+00 -0.14079449414E+03  0.14079449414E+03  0.00000000000E+00 0. -1.
         25    2    1    2    0    0  0.57789989306E+02  0.46298185751E+02  0.12254350983E+03  0.19007043122E+03  0.12500660844E+03 0.  0.
          2    1    1    2  501    0 -0.16169407877E+02 -0.44046271966E+02 -0.10145486048E+03  0.11177930283E+03  0.00000000000E+00 0. -1.
          1    1    1    2  502    0 -0.41620581429E+02 -0.22519137847E+01  0.10488289588E+04  0.10496568624E+04  0.00000000000E+00 0. -1.
         22    1    3    3    0    0 -0.22882548982E+02 -0.27613413602E+02  0.31546257909E+02  0.47762726542E+02  0.00000000000E+00 0. -1.
         22    1    3    3    0    0  0.80672538287E+02  0.73911599353E+02  0.90997251925E+02  0.14230770468E+03  0.00000000000E+00 0. -1.
</event>
<event>
 7    1  0.8278507E-006  0.1436778E+03  0.7818608E-02  0.1362529E+00
          2   -1    0    0  502    0  0.00000000000E+00  0.00000000000E+00  0.21099524777E+03  0.21099524777E+03  0.00000000000E+00 0. -1.
          1   -1    0    0  501    0 -0.00000000000E+00 -0.00000000000E+00 -0.44340708423E+03  0.44340708423E+03  0.00000000000E+00 0. -1.
         25    2    1    2    0    0  0.67759748150E+02  0.14858285272E+03 -0.24094993787E+03  0.31678150995E+03  0.12500161955E+03 0.  0.
          2    1    1    2  501    0 -0.50212366524E+02 -0.12014673269E+03 -0.13657864699E+03  0.18870677237E+03  0.00000000000E+00 0. -1.
          1    1    1    2  502    0 -0.17547381626E+02 -0.28436120034E+02  0.14511674841E+03  0.14891404968E+03  0.00000000000E+00 0. -1.
         22    1    3    3    0    0  0.61888458494E+02  0.13202347390E+03 -0.25536146627E+03  0.29405757499E+03  0.00000000000E+00 0. -1.
         22    1    3    3    0    0  0.58712896558E+01  0.16559378821E+02  0.14411528395E+02  0.22723934955E+02  0.00000000000E+00 0. -1.
</event>
<event>
 7    1  0.8278507E-006  0.4681950E+02  0.7818608E-02  0.1538408E+00
          2   -1    0    0  502    0  0.00000000000E+00  0.00000000000E+00  0.12648465324E+04  0.12648465324E+04  0.00000000000E+00 0. -1.
          1   -1    0    0  501    0 -0.00000000000E+00 -0.00000000000E+00 -0.17873856705E+03  0.17873856705E+03  0.00000000000E+00 0. -1.
         25    2    1    2    0    0 -0.57866915675E+02 -0.24893061120E+02  0.18306022337E+03  0.23044363338E+03  0.12499991345E+03 0.  0.
          2    1    1    2  501    0  0.46631081656E+02 -0.69958265446E+00 -0.15135055098E+03  0.15837277693E+03  0.00000000000E+00 0. -1.
          1    1    1    2  502    0  0.11235834019E+02  0.25592643774E+02  0.10543982930E+04  0.10547686891E+04  0.00000000000E+00 0. -1.
         22    1    3    3    0    0  0.12290670646E+01  0.12678827114E+02  0.15416114875E+03  0.15468653156E+03  0.00000000000E+00 0. -1.
         22    1    3    3    0    0 -0.59095982739E+02 -0.37571888233E+02  0.28899074622E+02  0.75757101815E+02  0.00000000000E+00 0. -1.
</event>
<event>
 7    1  0.8278507E-006  0.9192851E+02  0.7818608E-02  0.1417277E+00
          2   -1    0    0  502    0  0.00000000000E+00  0.00000000000E+00  0.11579462403E+04  0.11579462403E+04  0.00000000000E+00 0. -1.
          1   -1    0    0  501    0 -0.00000000000E+00 -0.00000000000E+00 -0.39674393335E+03  0.39674393335E+03  0.00000000000E+00 0. -1.
         25    2    1    2    0    0 -0.10988796999E+03 -0.54749166112E+02 -0.94878272606E+02  0.19925268511E+03  0.12500763487E+03 0.  0.
          2    1    1    2  501    0  0.23724701329E+02  0.23834058592E+02 -0.24664085693E+03  0.24892295216E+03  0.00000000000E+00 0. -1.
          1    1    1    2  502    0  0.86163268658E+02  0.30915107521E+02  0.11027214365E+04  0.11065145364E+04  0.00000000000E+00 0. -1.
         22    1    3    3    0    0 -0.50916446972E+02  0.34758641119E+02 -0.61274150515E+02  0.86920476449E+02  0.00000000000E+00 0.  1.
         22    1    3    3    0    0 -0.58971523014E+02 -0.89507807232E+02 -0.33604122091E+02  0.11233220866E+03  0.00000000000E+00 0.  1.
</event>
<event>
 7    1  0.8278507E-006  0.7955622E+02  0.7818608E-02  0.1476463E+00
          2   -1    0    0  502    0  0.00000000000E+00  0.00000000000E+00  0.70522177036E+03  0.70522177036E+03  0.00000000000E+00 0. -1.
          1   -1    0    0  501    0 -0.00000000000E+00 -0.00000000000E+00 -0.32080870881E+04  0.32080870881E+04  0.00000000000E+00 0. -1.
         25    2    1    2    0    0 -0.47458413263E+02 -0.92529982109E+02 -0.39191823626E+02  0.16725283684E+03  0.12499365510E+03 0.  0.
          2    1    1    2  501    0  0.32513664398E+02  0.72397982839E+02 -0.31041122601E+04  0.31051266527E+04  0.00000000000E+00 0. -1.
          1    1    1    2  502    0  0.14944748865E+02  0.20131999270E+02  0.64043876598E+03  0.64092936888E+03  0.00000000000E+00 0. -1.
         22    1    3    3    0    0 -0.66533332441E+02 -0.73010679142E+02 -0.73709545403E+02  0.12324910011E+03  0.00000000000E+00 0. -1.
         22    1    3    3    0    0  0.19074919178E+02 -0.19519302967E+02  0.34517721777E+02  0.44003736735E+02  0.00000000000E+00 0. -1.
</event>
<event>
 7    1  0.8278507E-006  0.8323496E+02  0.7818608E-02  0.1321005E+00
          2   -1    0    0  502    0  0.00000000000E+00  0.00000000000E+00  0.40370067762E+03  0.40370067762E+03  0.00000000000E+00 0. -1.
          1   -1    0    0  501    0 -0.00000000000E+00 -0.00000000000E+00 -0.19369297416E+03  0.19369297416E+03  0.00000000000E+00 0. -1.
         25    2    1    2    0    0  0.16897079056E+02  0.75860562940E+01 -0.70548348378E+00  0.12638932509E+03  0.12502281496E+03 0.  0.
          2    1    1    2  501    0  0.57129745963E+02 -0.59622905142E+02 -0.11012783265E+03  0.13764751438E+03  0.00000000000E+00 0. -1.
          1    1    1    2  502    0 -0.74026825019E+02  0.52036848848E+02  0.32084101959E+03  0.33335681230E+03  0.00000000000E+00 0. -1.
         22    1    3    3    0    0  0.47175114580E+02  0.52997654457E+02 -0.76744842287E+01  0.71366242172E+02  0.00000000000E+00 0.  1.
         22    1    3    3    0    0 -0.30278035524E+02 -0.45411598163E+02  0.69690007449E+01  0.55023082922E+02  0.00000000000E+00 0.  1.
</event>
<event>
 7    1  0.8278507E-006  0.7055062E+02  0.7818608E-02  0.1475256E+00
          2   -1    0    0  502    0  0.00000000000E+00  0.00000000000E+00  0.11633641147E+04  0.11633641147E+04  0.00000000000E+00 0. -1.
          1   -1    0    0  501    0 -0.00000000000E+00 -0.00000000000E+00 -0.11574675564E+04  0.11574675564E+04  0.00000000000E+00 0. -1.
         25    2    1    2    0    0 -0.23476344298E+02  0.40927181742E+02 -0.63583872173E+02  0.14796583398E+03  0.12499922511E+03 0.  0.
          2    1    1    2  501    0  0.63781185172E+01  0.27794282974E+02 -0.10503807505E+04  0.10507677782E+04  0.00000000000E+00 0. -1.
          1    1    1    2  502    0  0.17098225781E+02 -0.68721464716E+02  0.11198611810E+04  0.11220980589E+04  0.00000000000E+00 0. -1.
         22    1    3    3    0    0 -0.15843862127E+02  0.80389781093E+02 -0.69369449888E+02  0.10735765203E+03  0.00000000000E+00 0. -1.
         22    1    3    3    0    0 -0.76324821709E+01 -0.39462599351E+02  0.57855777144E+01  0.40608181948E+02  0.00000000000E+00 0. -1.
</event>
<event>
 7    1  0.8278507E-006  0.9241875E+02  0.7818608E-02  0.1465859E+00
          2   -1    0    0  502    0  0.00000000000E+00  0.00000000000E+00  0.12648005191E+04  0.12648005191E+04  0.00000000000E+00 0. -1.
          1   -1    0    0  501    0 -0.00000000000E+00 -0.00000000000E+00 -0.63736750211E+03  0.63736750211E+03  0.00000000000E+00 0. -1.
         25    2    1    2    0    0  0.77030717859E+02  0.10515554022E+02  0.15494119692E+03  0.21371925365E+03  0.12499934603E+03 0.  0.
          2    1    1    2  501    0  0.11248816533E+02  0.20385877517E+02 -0.60573023182E+03  0.60617755948E+03  0.00000000000E+00 0. -1.
          1    1    1    2  502    0 -0.88279534391E+02 -0.30901431539E+02  0.10782220519E+04  0.10822712080E+04  0.00000000000E+00 0. -1.
         22    1    3    3    0    0  0.76705860241E+02  0.59550507252E+02  0.11468663996E+03  0.15027666916E+03  0.00000000000E+00 0. -1.
         22    1    3    3    0    0  0.32485761766E+00 -0.49034953230E+02  0.40254556960E+02  0.63442584490E+02  0.00000000000E+00 0. -1.
</event>
<event>
 7    1  0.8278507E-006  0.5404335E+02  0.7818608E-02  0.1560687E+00
          2   -1    0    0  502    0  0.00000000000E+00  0.00000000000E+00  0.12279297759E+04  0.12279297759E+04  0.00000000000E+00 0. -1.
          1   -1    0    0  501    0 -0.00000000000E+00 -0.00000000000E+00 -0.20700189879E+02  0.20700189879E+02  0.00000000000E+00 0. -1.
         25    2    1    2    0    0  0.44555081349E+02 -0.42571957020E+02  0.33866061701E+03  0.36621310302E+03  0.12499398589E+03 0.  0.
          2    1    1    2  501    0 -0.20273107472E+02 -0.54154486398E+01  0.12023237682E+02  0.24184379564E+02  0.00000000000E+00 0. -1.
          1    1    1    2  502    0 -0.24281973877E+02  0.47987405660E+02  0.85654573129E+03  0.85823248316E+03  0.00000000000E+00 0. -1.
         22    1    3    3    0    0  0.31843920537E+02  0.37886282318E+02  0.71853323977E+02  0.87248529097E+02  0.00000000000E+00 0.  1.
         22    1    3    3    0    0  0.12711160812E+02 -0.80458239338E+02  0.26680729304E+03  0.27896457392E+03  0.00000000000E+00 0.  1.
</event>
<event>
 7    1  0.8278507E-006  0.5183503E+02  0.7818608E-02  0.1517088E+00
          2   -1    0    0  502    0  0.00000000000E+00  0.00000000000E+00  0.11686879329E+04  0.11686879329E+04  0.00000000000E+00 0. -1.
          1   -1    0    0  501    0 -0.00000000000E+00 -0.00000000000E+00 -0.73194839493E+03  0.73194839493E+03  0.00000000000E+00 0. -1.
         25    2    1    2    0    0 -0.12001405883E+02  0.70452727914E+02 -0.28523777889E+03  0.31952064642E+03  0.12500092946E+03 0.  0.
          2    1    1    2  501    0 -0.83997771224E+01 -0.49742402088E+02 -0.42790378067E+03  0.43086715857E+03  0.00000000000E+00 0. -1.
          1    1    1    2  502    0  0.20401183005E+02 -0.20710325826E+02  0.11498810975E+04  0.11502485228E+04  0.00000000000E+00 0. -1.
         22    1    3    3    0    0 -0.43544039747E+02  0.76852011838E+02 -0.26967038512E+03  0.28376827119E+03  0.00000000000E+00 0.  1.
         22    1    3    3    0    0  0.31542633864E+02 -0.63992839236E+01 -0.15567393773E+02  0.35752375231E+02  0.00000000000E+00 0.  1.
</event>
<event>
 7    1  0.8278507E-006  0.1865722E+03  0.7818608E-02  0.1230470E+00
          2   -1    0    0  502    0  0.00000000000E+00  0.00000000000E+00  0.30651034037E+04  0.30651034037E+04  0.00000000000E+00 0. -1.
          1   -1    0    0  501    0 -0.00000000000E+00 -0.00000000000E+00 -0.26308251069E+02  0.26308251069E+02  0.00000000000E+00 0. -1.
         25    2    1    2    0    0  0.20111558044E+03 -0.11120938941E+03  0.17117879213E+04  0.17316633483E+04  0.12500023762E+03 0.  0.
          2    1    1    2  501    0 -0.39870763001E+02  0.78226024908E+02  0.17240526246E+03  0.19347496799E+03  0.00000000000E+00 0. -1.
          1    1    1    2  502    0 -0.16124481744E+03  0.32983364498E+02  0.11546019689E+04  0.11662733385E+04  0.00000000000E+00 0. -1.
         22    1    3    3    0    0  0.31812543028E+02 -0.10271576093E+02  0.64727095038E+02  0.72850120119E+02  0.00000000000E+00 0. -1.
         22    1    3    3    0    0  0.16930303742E+03 -0.10093781331E+03  0.16470608263E+04  0.16588132282E+04  0.00000000000E+00 0. -1.
</event>
<event>
 7    1  0.8278507E-006  0.8599083E+02  0.7818608E-02  0.1346252E+00
          2   -1    0    0  502    0  0.00000000000E+00  0.00000000000E+00  0.55525078487E+03  0.55525078487E+03  0.00000000000E+00 0. -1.
          1   -1    0    0  501    0 -0.00000000000E+00 -0.00000000000E+00 -0.13420506216E+04  0.13420506216E+04  0.00000000000E+00 0. -1.
         25    2    1    2    0    0 -0.66496746525E+02 -0.30749277191E+02  0.19589521846E+03  0.24365143417E+03  0.12499499755E+03 0.  0.
          2    1    1    2  501    0  0.30736323927E+02 -0.56237666107E+02 -0.13107824240E+04  0.13123482616E+04  0.00000000000E+00 0. -1.
          1    1    1    2  502    0  0.35760422598E+02  0.86986943298E+02  0.32808736882E+03  0.34130171068E+03  0.00000000000E+00 0. -1.
         22    1    3    3    0    0  0.18656185983E+02 -0.28888213338E+02  0.13405631386E+03  0.13839681150E+03  0.00000000000E+00 0.  1.
         22    1    3    3    0    0 -0.85152932508E+02 -0.18610638532E+01  0.61838904597E+02  0.10525462268E+03  0.00000000000E+00 0.  1.
</event>
<event>
 7    1  0.8278507E-006  0.7477524E+02  0.7818608E-02  0.1397364E+00
          2   -1    0    0  502    0  0.00000000000E+00  0.00000000000E+00  0.18740399348E+04  0.18740399348E+04  0.00000000000E+00 0. -1.
          1   -1    0    0  501    0 -0.00000000000E+00 -0.00000000000E+00 -0.10123522030E+04  0.10123522030E+04  0.00000000000E+00 0. -1.
         25    2    1    2    0    0 -0.67684919312E+02  0.10061701597E+03  0.30386086423E+03  0.35023064176E+03  0.12500018166E+03 0.  0.
          2    1    1    2  501    0  0.24865714712E+02 -0.41434892080E+02 -0.98771396918E+03  0.98889536300E+03  0.00000000000E+00 0. -1.
          1    1    1    2  502    0  0.42819204600E+02 -0.59182123893E+02  0.15455408368E+04  0.15472661330E+04  0.00000000000E+00 0. -1.
         22    1    3    3    0    0 -0.93464459491E+02  0.54719619943E+02  0.13341753228E+03  0.17184318408E+03  0.00000000000E+00 0. -1.
         22    1    3    3    0    0  0.25779540179E+02  0.45897396030E+02  0.17044333195E+03  0.17838745769E+03  0.00000000000E+00 0. -1.
</event>
<event>
 7    1  0.8278507E-006  0.4058318E+02  0.7818608E-02  0.1515716E+00
          2   -1    0    0  502    0  0.00000000000E+00  0.00000000000E+00  0.22100694535E+04  0.22100694535E+04  0.00000000000E+00 0. -1.
          1   -1    0    0  501    0 -0.00000000000E+00 -0.00000000000E+00 -0.62918312705E+02  0.62918312705E+02  0.00000000000E+00 0. -1.
         25    2    1    2    0    0  0.10363714690E+02  0.54279137427E+02  0.14654548176E+04  0.14718137111E+04  0.12499658506E+03 0.  0.
          2    1    1    2  501    0 -0.32626822798E+02 -0.24133861807E+02 -0.52312955315E+02  0.66208746744E+02  0.00000000000E+00 0. -1.
          1    1    1    2  502    0  0.22263108107E+02 -0.30145275620E+02  0.73400927849E+03  0.73496530839E+03  0.00000000000E+00 0. -1.
         22    1    3    3    0    0 -0.46183627224E+02 -0.12150950587E+02  0.41373933585E+03  0.41648626754E+03  0.00000000000E+00 0. -1.
         22    1    3    3    0    0  0.56547341914E+02  0.66430088014E+02  0.10517154818E+04  0.10553274435E+04  0.00000000000E+00 0. -1.
</event>
<event>
 7    1  0.8278507E-006  0.9085269E+02  0.7818608E-02  0.1340350E+00
          2   -1    0    0  502    0  0.00000000000E+00  0.00000000000E+00  0.32801578472E+04  0.32801578472E+04  0.00000000000E+00 0. -1.
          1   -1    0    0  501    0 -0.00000000000E+00 -0.00000000000E+00 -0.16902925554E+02  0.16902925554E+02  0.00000000000E+00 0. -1.
         25    2    1    2    0    0  0.38682310453E+02  0.13254616505E+02  0.11297939493E+04  0.11374232397E+04  0.12500100958E+03 0.  0.
          2    1    1    2  501    0 -0.10000799885E+03  0.44302069359E+01  0.18681825129E+03  0.21194878056E+03  0.00000000000E+00 0. -1.
          1    1    1    2  502    0  0.61325688394E+02 -0.17684823441E+02  0.19466427211E+04  0.19476887525E+04  0.00000000000E+00 0. -1.
         22    1    3    3    0    0 -0.23155868271E+02  0.51829277304E+02  0.59147490985E+03  0.59419276098E+03  0.00000000000E+00 0.  1.
         22    1    3    3    0    0  0.61838178724E+02 -0.38574660799E+02  0.53831903944E+03  0.54323047874E+03  0.00000000000E+00 0.  1.
</event>
<event>
 7    1  0.1190986E-005  0.5209514E+02  0.7818608E-02  0.1513163E+00
          2   -1    0    0  502    0  0.00000000000E+00  0.00000000000E+00  0.13930134933E+04  0.13930134933E+04  0.00000000000E+00 0. -1.
          1   -1    0    0  501    0 -0.00000000000E+00 -0.00000000000E+00 -0.19804037679E+04  0.19804037679E+04  0.00000000000E+00 0. -1.
         25    2    1    2    0    0  0.47784960413E+02 -0.53604103670E+02 -0.46558970563E+03  0.48739432162E+03  0.12499059317E+03 0.  0.
          2    1    1    2  501    0 -0.18620695722E+02  0.47986776018E+02 -0.15033116702E+04  0.15041926202E+04  0.00000000000E+00 0. -1.
          1    1    1    2  502    0 -0.29164264690E+02  0.56173276515E+01  0.13815111013E+04  0.13818303194E+04  0.00000000000E+00 0. -1.
         22    1    3    3    0    0  0.34938531055E+02  0.11648642794E+02 -0.36471255778E+03  0.36656737666E+03  0.00000000000E+00 0. -1.
         22    1    3    3    0    0  0.12846429358E+02 -0.65252746463E+02 -0.10087714786E+03  0.12082694496E+03  0.00000000000E+00 0. -1.
</event>
<event>
 7    1  0.8278507E-006  0.2171386E+03  0.7818608E-02  0.1222550E+00
          2   -1    0    0  502    0  0.00000000000E+00  0.00000000000E+00  0.43573688806E+03  0.43573688806E+03  0.00000000000E+00 0. -1.
          1   -1    0    0  501    0 -0.00000000000E+00 -0.00000000000E+00 -0.99481470327E+03  0.99481470327E+03  0.00000000000E+00 0. -1.
         25    2    1    2    0    0  0.94278443142E+02 -0.26136788714E+03 -0.19145808648E+03  0.35983705675E+03  0.12499964506E+03 0.  0.
          2    1    1    2  501    0 -0.62327396486E+02  0.53144294042E+02 -0.68494751384E+03  0.68982759952E+03  0.00000000000E+00 0. -1.
          1    1    1    2  502    0 -0.31951046656E+02  0.20822359309E+03  0.31732778511E+03  0.38088693506E+03  0.00000000000E+00 0. -1.
         22    1    3    3    0    0  0.26811242436E+02 -0.64950896100E+01 -0.58234406006E+02  0.64438148273E+02  0.00000000000E+00 0. -1.
         22    1    3    3    0    0  0.67467200706E+02 -0.25487279753E+03 -0.13322368047E+03  0.29539890848E+03  0.00000000000E+00 0. -1.
</event>
<event>
 7    1  0.8278507E-006  0.9524465E+02  0.7818608E-02  0.1388123E+00
          2   -1    0    0  502    0  0.00000000000E+00  0.00000000000E+00  0.15149232731E+03  0.15149232731E+03  0.00000000000E+00 0. -1.
          1   -1    0    0  501    0 -0.00000000000E+00 -0.00000000000E+00 -0.84622179151E+03  0.84622179151E+03  0.00000000000E+00 0. -1.
         25    2    1    2    0    0 -0.54503951670E+02  0.31147485717E+02 -0.63694509687E+02  0.15369771654E+03  0.12500060357E+03 0.  0.
          2    1    1    2  501    0 -0.28921420754E+02  0.28849466608E+02 -0.71201365436E+03  0.71318453734E+03  0.00000000000E+00 0. -1.
          1    1    1    2  502    0  0.83425372424E+02 -0.59996952325E+02  0.80978699854E+02  0.13083186493E+03  0.00000000000E+00 0. -1.
         22    1    3    3    0    0 -0.77576900044E+02 -0.22419467832E+02 -0.45036339201E+02  0.92461234077E+02  0.00000000000E+00 0.  1.
         22    1    3    3    0    0  0.23072948374E+02  0.53566953549E+02 -0.18658170485E+02  0.61236482468E+02  0.00000000000E+00 0.  1.
</event>
<event>
 7    1  0.8278507E-006  0.2275226E+03  0.7818608E-02  0.1312455E+00
          2   -1    0    0  502    0  0.00000000000E+00  0.00000000000E+00  0.20434336866E+04  0.20434336866E+04  0.00000000000E+00 0. -1.
          1   -1    0    0  501    0 -0.00000000000E+00 -0.00000000000E+00 -0.80882566106E+03  0.80882566106E+03  0.00000000000E+00 0. -1.
         25    2    1    2    0    0 -0.19153208426E+03  0.86251975659E+02  0.45308951083E+03  0.51482060591E+03  0.12500483528E+03 0.  0.
          2    1    1    2  501    0  0.21804535752E+03 -0.67250294413E+02 -0.76105228167E+03  0.79452309939E+03  0.00000000000E+00 0. -1.
          1    1    1    2  502    0 -0.26513273263E+02 -0.19001681246E+02  0.15425707964E+04  0.15429156424E+04  0.00000000000E+00 0. -1.
         22    1    3    3    0    0 -0.13390769687E+03 -0.24282713161E+01  0.20198048427E+03  0.24234950755E+03  0.00000000000E+00 0. -1.
         22    1    3    3    0    0 -0.57624387393E+02  0.88680246975E+02  0.25110902656E+03  0.27247109836E+03  0.00000000000E+00 0. -1.
</event>
<event>
 7    1  0.8278507E-006  0.7542549E+02  0.7818608E-02  0.1458197E+00
          2   -1    0    0  502    0  0.00000000000E+00  0.00000000000E+00  0.76225844521E+02  0.76225844521E+02  0.00000000000E+00 0. -1.
          1   -1    0    0  501    0 -0.00000000000E+00 -0.00000000000E+00 -0.19108754343E+04  0.19108754343E+04  0.00000000000E+00 0. -1.
         25    2    1    2    0    0 -0.40183120275E+02 -0.86350316815E+02 -0.78573070467E+03  0.80129188484E+03  0.12499953632E+03 0.  0.
          2    1    1    2  501    0  0.45606582046E+02  0.56684720043E+02 -0.11127957317E+04  0.11151714928E+04  0.00000000000E+00 0. -1.
          1    1    1    2  502    0 -0.54234617716E+01  0.29665596773E+02  0.63876846541E+02  0.70637901254E+02  0.00000000000E+00 0. -1.
         22    1    3    3    0    0 -0.73449907006E+02 -0.88251009237E+02 -0.47059226870E+03  0.48439675147E+03  0.00000000000E+00 0.  1.
         22    1    3    3    0    0  0.33266786731E+02  0.19006924211E+01 -0.31513843597E+03  0.31689513337E+03  0.00000000000E+00 0.  1.
</event>
<event>
 7    1  0.8278507E-006  0.9758439E+02  0.7818608E-02  0.1385688E+00
          2   -1    0    0  502    0  0.00000000000E+00  0.00000000000E+00  0.24276591875E+03  0.24276591875E+03  0.00000000000E+00 0. -1.
          1   -1    0    0  501    0 -0.00000000000E+00 -0.00000000000E+00 -0.15796220011E+04  0.15796220011E+04  0.00000000000E+00 0. -1.
         25    2    1    2    0    0 -0.67484244969E+02 -0.24999215194E+01  0.10076774608E+03  0.17418033858E+03  0.12499711505E+03 0.  0.
          2    1    1    2  501    0  0.91334857774E+02  0.35432711623E+02 -0.15373717734E+04  0.15404900204E+04  0.00000000000E+00 0. -1.
          1    1    1    2  502    0 -0.23850612806E+02 -0.32932790104E+02  0.99747944966E+02  0.10771756087E+03  0.00000000000E+00 0. -1.
         22    1    3    3    0    0 -0.75211447419E+02 -0.19749927600E+02  0.12267586479E+03  0.14524527278E+03  0.00000000000E+00 0. -1.
         22    1    3    3    0    0  0.77272024507E+01  0.17250006080E+02 -0.21908118708E+02  0.28935065800E+02  0.00000000000E+00 0. -1.
</event>
<event>
 7    1  0.8278507E-006  0.9691589E+02  0.7818608E-02  0.1472607E+00
          2   -1    0    0  502    0  0.00000000000E+00  0.00000000000E+00  0.37988370592E+02  0.37988370592E+02  0.00000000000E+00 0. -1.
          1   -1    0    0  501    0 -0.00000000000E+00 -0.00000000000E+00 -0.17403032483E+04  0.17403032483E+04  0.00000000000E+00 0. -1.
         25    2    1    2    0    0  0.90888868562E+02 -0.63190034001E+02 -0.71258921586E+03  0.73188951722E+03  0.12500043209E+03 0.  0.
          2    1    1    2  501    0 -0.21064867240E+02 -0.19431050275E+01 -0.93716771429E+03  0.93740643747E+03  0.00000000000E+00 0. -1.
          1    1    1    2  502    0 -0.69824001322E+02  0.65133139029E+02 -0.52557947507E+02  0.10899566416E+03  0.00000000000E+00 0. -1.
         22    1    3    3    0    0  0.10209448088E+01 -0.53695449855E+02 -0.46923191678E+03  0.47229528410E+03  0.00000000000E+00 0.  1.
         22    1    3    3    0    0  0.89867923753E+02 -0.94945841464E+01 -0.24335729909E+03  0.25959423311E+03  0.00000000000E+00 0.  1.
</event>
<event>
 7    1  0.8278507E-006  0.8137676E+02  0.7818608E-02  0.1372351E+00
          2   -1    0    0  502    0  0.00000000000E+00  0.00000000000E+00  0.18123500273E+04  0.18123500273E+04  0.00000000000E+00 0. -1.
          1   -1    0    0  501    0 -0.00000000000E+00 -0.00000000000E+00 -0.15281630455E+03  0.15281630455E+03  0.00000000000E+00 0. -1.
         25    2    1    2    0    0 -0.27652521158E+02  0.19595452374E+01  0.96865700166E+03  0.97708176240E+03  0.12499552720E+03 0.  0.
          2    1    1    2  501    0  0.81248581269E+02 -0.11113736499E+02 -0.13632968492E+03  0.15909314909E+03  0.00000000000E+00 0. -1.
          1    1    1    2  502    0 -0.53596060111E+02  0.91541912620E+01  0.82720640598E+03  0.82899142032E+03  0.00000000000E+00 0. -1.
         22    1    3    3    0    0  0.32817330519E+02  0.11917214382E+02  0.72485121380E+03  0.72569158692E+03  0.00000000000E+00 0.  1.
         22    1    3    3    0    0 -0.60469851677E+02 -0.99576691445E+01  0.24380578786E+03  0.25139017548E+03  0.00000000000E+00 0.  1.
</event>
<event>
 7    1  0.8278507E-006  0.1544283E+03  0.7818608E-02  0.1279822E+00
          2   -1    0    0  502    0  0.00000000000E+00  0.00000000000E+00  0.41146155471E+03  0.41146155471E+03  0.00000000000E+00 0. -1.
          1   -1    0    0  501    0 -0.00000000000E+00 -0.00000000000E+00 -0.14966500282E+04  0.14966500282E+04  0.00000000000E+00 0. -1.
         25    2    1    2    0    0  0.20975652596E+01  0.16022688423E+03 -0.43706531178E+03  0.48200409097E+03  0.12499921094E+03 0.  0.
          2    1    1    2  501    0 -0.64463228503E+02 -0.14174210959E+03 -0.10284941644E+04  0.10402146796E+04  0.00000000000E+00 0. -1.
          1    1    1    2  502    0  0.62365663244E+02 -0.18484774634E+02  0.38037100275E+03  0.38589281229E+03  0.00000000000E+00 0. -1.
         22    1    3    3    0    0 -0.25937020846E+01 -0.16057957679E+02 -0.80298345857E+01  0.18140108566E+02  0.00000000000E+00 0.  1.
         22    1    3    3    0    0  0.46912673442E+01  0.17628484191E+03 -0.42903547720E+03  0.46386398240E+03  0.00000000000E+00 0.  1.
</event>
<event>
 7    1  0.8278507E-006  0.8482888E+02  0.7818608E-02  0.1363146E+00
          2   -1    0    0  502    0  0.00000000000E+00  0.00000000000E+00  0.12701184421E+04  0.12701184421E+04  0.00000000000E+00 0. -1.
          1   -1    0    0  501    0 -0.00000000000E+00 -0.00000000000E+00 -0.51510205730E+03  0.51510205730E+03  0.00000000000E+00 0. -1.
         25    2    1    2    0    0 -0.49828635737E+02 -0.87673101619E+02  0.14028109915E+03  0.21324445075E+03  0.12499977324E+03 0.  0.
          2    1    1    2  501    0 -0.26130553137E+02  0.49873219000E+02 -0.47531028289E+03  0.47863348065E+03  0.00000000000E+00 0. -1.
          1    1    1    2  502    0  0.75959188874E+02  0.37799882619E+02  0.10900455686E+04  0.10933425680E+04  0.00000000000E+00 0. -1.
         22    1    3    3    0    0  0.78225392587E+01 -0.12829432760E+02 -0.21302861467E+02  0.26069107620E+02  0.00000000000E+00 0. -1.
         22    1    3    3    0    0 -0.57651174996E+02 -0.74843668859E+02  0.16158396062E+03  0.18717534313E+03  0.00000000000E+00 0. -1.
</event>
<event>
 7    1  0.8278507E-006  0.4933590E+02  0.7818608E-02  0.1497555E+00
          2   -1    0    0  502    0  0.00000000000E+00  0.00000000000E+00  0.19099052005E+03  0.19099052005E+03  0.00000000000E+00 0. -1.
          1   -1    0    0  501    0 -0.00000000000E+00 -0.00000000000E+00 -0.10020775838E+04  0.10020775838E+04  0.00000000000E+00 0. -1.
         25    2    1    2    0    0 -0.50418104133E+02 -0.21111339940E+02 -0.80405656222E+02  0.15835966558E+03  0.12500016092E+03 0.  0.
          2    1    1    2  501    0  0.26733427399E+02 -0.22411066348E+02 -0.87830171427E+03  0.87899421689E+03  0.00000000000E+00 0. -1.
          1    1    1    2  502    0  0.23684676735E+02  0.43522406288E+02  0.14762030677E+03  0.15571422136E+03  0.00000000000E+00 0. -1.
         22    1    3    3    0    0 -0.33950826839E+02 -0.28359160490E+02 -0.11287768282E+03  0.12123642978E+03  0.00000000000E+00 0. -1.
         22    1    3    3    0    0 -0.16467277294E+02  0.72478205496E+01  0.32472026601E+02  0.37123235794E+02  0.00000000000E+00 0. -1.
</event>
<event>
 7    1  0.8278507E-006  0.5422429E+02  0.7818608E-02  0.1558618E+00
          2   -1    0    0  502    0  0.00000000000E+00  0.00000000000E+00  0.55606478521E+03  0.55606478521E+03  0.00000000000E+00 0. -1.
          1   -1    0    0  501    0 -0.00000000000E+00 -0.00000000000E+00 -0.10608012024E+03  0.10608012024E+03  0.00000000000E+00 0. -1.
         25    2    1    2    0    0 -0.54129316508E+02 -0.44162297379E+02  0.35770049614E+03  0.38529853837E+03  0.12500010926E+03 0.  0.
          2    1    1    2  501    0  0.48412757822E+02  0.23757897061E+02 -0.83712200599E+02  0.99578940152E+02  0.00000000000E+00 0. -1.
          1    1    1    2  502    0  0.57165586855E+01  0.20404400318E+02  0.17599636944E+03  0.17726742693E+03  0.00000000000E+00 0. -1.
         22    1    3    3    0    0 -0.58722884055E+02 -0.65525406203E+01  0.56595707837E+02  0.81819233960E+02  0.00000000000E+00 0. -1.
         22    1    3    3    0    0  0.45935675472E+01 -0.37609756759E+02  0.30110478830E+03  0.30347930441E+03  0.00000000000E+00 0. -1.
</event>
<event>
 7    1  0.8278507E-006  0.7157790E+02  0.7818608E-02  0.1481090E+00
          2   -1    0    0  502    0  0.00000000000E+00  0.00000000000E+00  0.17989492686E+03  0.17989492686E+03  0.00000000000E+00 0. -1.
          1   -1    0    0  501    0 -0.00000000000E+00 -0.00000000000E+00 -0.85037032563E+03  0.85037032563E+03  0.00000000000E+00 0. -1.
         25    2    1    2    0    0 -0.92834488767E+02  0.51382943715E+01 -0.20488177392E+02  0.15713533804E+03  0.12500841841E+03 0.  0.
          2    1    1    2  501    0  0.25272346475E+02  0.94171442567E+01 -0.75059029405E+03  0.75107467246E+03  0.00000000000E+00 0. -1.
          1    1    1    2  502    0  0.67562142292E+02 -0.14555438628E+02  0.10060307268E+03  0.12205524199E+03  0.00000000000E+00 0. -1.
         22    1    3    3    0    0 -0.36439937575E+00 -0.48472945440E+02 -0.99116241510E+00  0.48484447295E+02  0.00000000000E+00 0. -1.
         22    1    3    3    0    0 -0.92470089391E+02  0.53611239811E+02 -0.19497014977E+02  0.10865089074E+03  0.00000000000E+00 0. -1.
</event>
<event>
 7    1  0.8278507E-006  0.2751167E+03  0.7818608E-02  0.1260870E+00
          2   -1    0    0  502    0  0.00000000000E+00  0.00000000000E+00  0.38316623109E+03  0.38316623109E+03  0.00000000000E+00 0. -1.
          1   -1    0    0  501    0 -0.00000000000E+00 -0.00000000000E+00 -0.12453777791E+04  0.12453777791E+04  0.00000000000E+00 0. -1.
         25    2    1    2    0    0  0.51673360829E+02  0.28871858723E+03 -0.23449026135E+03  0.39577706990E+03  0.12500099022E+03 0.  0.
          2    1    1    2  501    0  0.32065483636E+02 -0.29913428142E+02 -0.86843280469E+03  0.86953927150E+03  0.00000000000E+00 0. -1.
          1    1    1    2  502    0 -0.83738844465E+02 -0.25880515909E+03  0.24071151804E+03  0.36322766877E+03  0.00000000000E+00 0. -1.
         22    1    3    3    0    0  0.94115868569E+01  0.97258467532E+02 -0.10780144904E+02  0.98305640723E+02  0.00000000000E+00 0.  1.
         22    1    3    3    0    0  0.42261773972E+02  0.19146011970E+03 -0.22371011645E+03  0.29747142918E+03  0.00000000000E+00 0.  1.
</event>
<event>
 7    1  0.8278507E-006  0.9816704E+02  0.7818608E-02  0.1367438E+00
          2   -1    0    0  502    0  0.00000000000E+00  0.00000000000E+00  0.11768546938E+04  0.11768546938E+04  0.00000000000E+00 0. -1.
          1   -1    0    0  501    0 -0.00000000000E+00 -0.00000000000E+00 -0.87321720853E+02  0.87321720853E+02  0.00000000000E+00 0. -1.
         25    2    1    2    0    0  0.44733047768E+02 -0.34882464340E+02  0.19903969698E+03  0.24177788495E+03  0.12498765058E+03 0.  0.
          2    1    1    2  501    0  0.36461984626E+02 -0.29567269397E+02 -0.54389297922E+02  0.71846332341E+02  0.00000000000E+00 0. -1.
          1    1    1    2  502    0 -0.81195032393E+02  0.64449733737E+02  0.94488257391E+03  0.95055219738E+03  0.00000000000E+00 0. -1.
         22    1    3    3    0    0  0.82881307989E+02 -0.27211245972E+02  0.17631855480E+03  0.19671806193E+03  0.00000000000E+00 0. -1.
         22    1    3    3    0    0 -0.38148260222E+02 -0.76712183685E+01  0.22721142176E+02  0.45059823024E+02  0.00000000000E+00 0. -1.
</event>
<event>
 7    1  0.8278507E-006  0.1078603E+03  0.7818608E-02  0.1266433E+00
          2   -1    0    0  502    0  0.00000000000E+00  0.00000000000E+00  0.47271730805E+03  0.47271730805E+03  0.00000000000E+00 0. -1.
          1   -1    0    0  501    0 -0.00000000000E+00 -0.00000000000E+00 -0.11055798717E+04  0.11055798717E+04  0.00000000000E+00 0. -1.
         25    2    1    2    0    0 -0.99775040936E+02 -0.13949395129E+03 -0.15598962145E+03  0.26338432413E+03  0.12499967582E+03 0.  0.
          2    1    1    2  501    0 -0.16189535606E+01  0.10592282096E+03 -0.88587929051E+03  0.89219077688E+03  0.00000000000E+00 0. -1.
          1    1    1    2  502    0  0.10139399450E+03  0.33571130336E+02  0.40900634830E+03  0.42272207875E+03  0.00000000000E+00 0. -1.
         22    1    3    3    0    0 -0.84963155697E+02 -0.93941762422E+02 -0.32261779270E+02  0.13070812888E+03  0.00000000000E+00 0.  1.
         22    1    3    3    0    0 -0.14811885239E+02 -0.45552188872E+02 -0.12372784218E+03  0.13267619525E+03  0.00000000000E+00 0.  1.
</event>
<event>
 7    1  0.8278507E-006  0.5568324E+02  0.7818608E-02  0.1530870E+00
          2   -1    0    0  502    0  0.00000000000E+00  0.00000000000E+00  0.20770465501E+04  0.20770465501E+04  0.00000000000E+00 0. -1.
          1   -1    0    0  501    0 -0.00000000000E+00 -0.00000000000E+00 -0.44143144677E+03  0.44143144677E+03  0.00000000000E+00 0. -1.
         25    2    1    2    0    0  0.45958483981E+02 -0.23572089600E+02  0.40143947260E+00  0.13528117000E+03  0.12503202848E+03 0.  0.
          2    1    1    2  501    0 -0.12715649360E+02 -0.21165963638E+02 -0.37319698481E+03  0.37401293457E+03  0.00000000000E+00 0. -1.
          1    1    1    2  502    0 -0.33242834621E+02  0.44738053238E+02  0.20084106486E+04  0.20091838923E+04  0.00000000000E+00 0. -1.
         22    1    3    3    0    0 -0.17088007998E+01  0.32484178067E+02  0.40129928624E+02  0.51658039028E+02  0.00000000000E+00 0. -1.
         22    1    3    3    0    0  0.47667284781E+02 -0.56056267668E+02 -0.39728489151E+02  0.83623130971E+02  0.00000000000E+00 0. -1.
</event>
<event>
 7    1  0.8278507E-006  0.1035876E+03  0.7818608E-02  0.1426247E+00
          2   -1    0    0  502    0  0.00000000000E+00  0.00000000000E+00  0.47915052475E+03  0.47915052475E+03  0.00000000000E+00 0. -1.
          1   -1    0    0  501    0 -0.00000000000E+00 -0.00000000000E+00 -0.74294140864E+03  0.74294140864E+03  0.00000000000E+00 0. -1.
         25    2    1    2    0    0  0.37432098819E+02  0.69540739531E+02 -0.10311854541E+03  0.18026581793E+03  0.12500101691E+03 0.  0.
          2    1    1    2  501    0 -0.54092598532E+02 -0.91869914981E+02 -0.59607448947E+03  0.60553355604E+03  0.00000000000E+00 0. -1.
          1    1    1    2  502    0  0.16660499713E+02  0.22329175451E+02  0.43540215099E+03  0.43629255943E+03  0.00000000000E+00 0. -1.
         22    1    3    3    0    0 -0.33110757873E+02  0.15846370843E+02  0.85452587396E+01  0.37688873726E+02  0.00000000000E+00 0.  1.
         22    1    3    3    0    0  0.70542856692E+02  0.53694368687E+02 -0.11166380415E+03  0.14257694420E+03  0.00000000000E+00 0.  1.
</event>
<event>
 7    1  0.8278507E-006  0.5887379E+02  0.7818608E-02  0.1424010E+00
          2   -1    0    0  502    0  0.00000000000E+00  0.00000000000E+00  0.11552378428E+03  0.11552378428E+03  0.00000000000E+00 0. -1.
          1   -1    0    0  501    0 -0.00000000000E+00 -0.00000000000E+00 -0.12192360444E+04  0.12192360444E+04  0.00000000000E+00 0. -1.
         25    2    1    2    0    0  0.32249386686E+02 -0.46726551273E+02 -0.16517371047E+03  0.21478653258E+03  0.12501002525E+03 0.  0.
          2    1    1    2  501    0  0.16471799888E+02  0.57337514824E+02 -0.10214673627E+04  0.10232079377E+04  0.00000000000E+00 0. -1.
          1    1    1    2  502    0 -0.48721186573E+02 -0.10610963551E+02  0.82928812976E+02  0.96765358420E+02  0.00000000000E+00 0. -1.
         22    1    3    3    0    0 -0.16732880558E+02 -0.33168072284E+02 -0.15935774944E+03  0.16363068971E+03  0.00000000000E+00 0. -1.
         22    1    3    3    0    0  0.48982267244E+02 -0.13558478988E+02 -0.58159610311E+01  0.51155842868E+02  0.00000000000E+00 0. -1.
</event>
<event>
 7    1  0.8278507E-006  0.1046438E+03  0.7818608E-02  0.1337667E+00
          2   -1    0    0  502    0  0.00000000000E+00  0.00000000000E+00  0.29757478819E+03  0.29757478819E+03  0.00000000000E+00 0. -1.
          1   -1    0    0  501    0 -0.00000000000E+00 -0.00000000000E+00 -0.99086509870E+03  0.99086509870E+03  0.00000000000E+00 0. -1.
         25    2    1    2    0    0 -0.43634403840E+02  0.62888579408E+02  0.11864348315E+03  0.18857480545E+03  0.12500098614E+03 0.  0.
          2    1    1    2  501    0 -0.51016013651E+02  0.24785683105E+02 -0.92595111756E+03  0.92768660432E+03  0.00000000000E+00 0. -1.
          1    1    1    2  502    0  0.94650417491E+02 -0.87674262513E+02  0.11401732389E+03  0.17217847712E+03  0.00000000000E+00 0. -1.
         22    1    3    3    0    0 -0.63973608516E+02 -0.34644108398E+01  0.18409465567E+02  0.66659831619E+02  0.00000000000E+00 0. -1.
         22    1    3    3    0    0  0.20339204676E+02  0.66352990248E+02  0.10023401759E+03  0.12191497383E+03  0.00000000000E+00 0. -1.
</event>
<event>
 7    1  0.8278507E-006  0.5052111E+02  0.7818608E-02  0.1481287E+00
          2   -1    0    0  502    0  0.00000000000E+00  0.00000000000E+00  0.97714752936E+03  0.97714752936E+03  0.00000000000E+00 0. -1.
          1   -1    0    0  501    0 -0.00000000000E+00 -0.00000000000E+00 -0.53405256754E+03  0.53405256754E+03  0.00000000000E+00 0. -1.
         25    2    1    2    0    0 -0.80174782234E+02  0.34997940249E+02 -0.16292967170E+03  0.22321379335E+03  0.12500187236E+03 0.  0.
          2    1    1    2  501    0  0.37132027468E+02 -0.87869474857E+01 -0.33924001014E+03  0.34137923544E+03  0.00000000000E+00 0. -1.
          1    1    1    2  502    0  0.43042754766E+02 -0.26210992763E+02  0.94526464365E+03  0.94660706812E+03  0.00000000000E+00 0. -1.
         22    1    3    3    0    0 -0.37801225218E+02  0.36921005544E+02  0.20385990465E+01  0.52879572279E+02  0.00000000000E+00 0.  1.
         22    1    3    3    0    0 -0.42373557016E+02 -0.19230652949E+01 -0.16496827074E+03  0.17033422107E+03  0.00000000000E+00 0.  1.
</event>
<event>
 7    1  0.8278507E-006  0.9502967E+02  0.7818608E-02  0.1307997E+00
          2   -1    0    0  502    0  0.00000000000E+00  0.00000000000E+00  0.69043574386E+02  0.69043574386E+02  0.00000000000E+00 0. -1.
          1   -1    0    0  501    0 -0.00000000000E+00 -0.00000000000E+00 -0.23775522481E+04  0.23775522481E+04  0.00000000000E+00 0. -1.
         25    2    1    2    0    0  0.78928234032E+02  0.43201930355E+02 -0.15707655211E+04  0.15782985263E+04  0.12500337187E+03 0.  0.
          2    1    1    2  501    0 -0.11292604342E+03  0.30670931815E+02 -0.77144516429E+03  0.78026959370E+03  0.00000000000E+00 0. -1.
          1    1    1    2  502    0  0.33997809390E+02 -0.73872862170E+02  0.33702011689E+02  0.88027702461E+02  0.00000000000E+00 0. -1.
         22    1    3    3    0    0  0.78447897020E+02  0.68119231591E+02 -0.75081007256E+03  0.75796442351E+03  0.00000000000E+00 0.  1.
         22    1    3    3    0    0  0.48033701163E+00 -0.24917301235E+02 -0.81995544851E+03  0.82033410277E+03  0.00000000000E+00 0.  1.
</event>
<event>
 7    1  0.8278507E-006  0.7883737E+02  0.7818608E-02  0.1379697E+00
          2   -1    0    0  502    0  0.00000000000E+00  0.00000000000E+00  0.56117882149E+03  0.56117882149E+03  0.00000000000E+00 0. -1.
          1   -1    0    0  501    0 -0.00000000000E+00 -0.00000000000E+00 -0.12203268442E+03  0.12203268442E+03  0.00000000000E+00 0. -1.
         25    2    1    2    0    0  0.11043367678E+02 -0.11179296527E+03 -0.20168567774E+02  0.16926419143E+03  0.12499588921E+03 0.  0.
          2    1    1    2  501    0 -0.36617434112E+02  0.38096480011E+02  0.51044093119E+01  0.53087034807E+02  0.00000000000E+00 0. -1.
          1    1    1    2  502    0  0.25574066433E+02  0.73696485262E+02  0.45421029554E+03  0.46086027968E+03  0.00000000000E+00 0. -1.
         22    1    3    3    0    0 -0.28971446496E+02  0.37024590425E+01 -0.35616877358E+02  0.46060990739E+02  0.00000000000E+00 0. -1.
         22    1    3    3    0    0  0.40014814175E+02 -0.11549542431E+03  0.15448309584E+02  0.12320320069E+03  0.00000000000E+00 0. -1.
</event>
<event>
 7    1  0.8278507E-006  0.1062231E+03  0.7818608E-02  0.1341593E+00
          2   -1    0    0  502    0  0.00000000000E+00  0.00000000000E+00  0.33925723047E+03  0.33925723047E+03  0.00000000000E+00 0. -1.
          1   -1    0    0  501    0 -0.00000000000E+00 -0.00000000000E+00 -0.90976405314E+03  0.90976405314E+03  0.00000000000E+00 0. -1.
         25    2    1    2    0    0  0.27114685924E+02  0.14045179545E+03  0.18739932138E+03  0.26684524432E+03  0.12500386285E+03 0.  0.
          2    1    1    2  501    0 -0.16163470802E+02 -0.51529742620E+02 -0.85115168484E+03  0.85286327320E+03  0.00000000000E+00 0. -1.
          1    1    1    2  502    0 -0.10951215123E+02 -0.88922052829E+02  0.93245540798E+02  0.12931276608E+03  0.00000000000E+00 0. -1.
         22    1    3    3    0    0  0.26891076055E+02  0.11719798088E+03  0.54659702428E+02  0.13208398753E+03  0.00000000000E+00 0.  1.
         22    1    3    3    0    0  0.22360986957E+00  0.23253814572E+02  0.13273961895E+03  0.13476125679E+03  0.00000000000E+00 0.  1.
</event>
<event>
 7    1  0.8278507E-006  0.1033331E+03  0.7818608E-02  0.1275478E+00
          2   -1    0    0  502    0  0.00000000000E+00  0.00000000000E+00  0.18805705621E+04  0.18805705621E+04  0.00000000000E+00 0. -1.
          1   -1    0    0  501    0 -0.00000000000E+00 -0.00000000000E+00 -0.29044049456E+03  0.29044049456E+03  0.00000000000E+00 0. -1.
         25    2    1    2    0    0  0.45855302980E+02  0.28681993812E+02  0.77511302892E+03  0.78698813928E+03  0.12499903275E+03 0.  0.
          2    1    1    2  501    0  0.17026223738E+02  0.10192069960E+03 -0.27013930053E+03  0.28922821957E+03  0.00000000000E+00 0. -1.
          1    1    1    2  502    0 -0.62881526718E+02 -0.13060269342E+03  0.10851563391E+04  0.10947946978E+04  0.00000000000E+00 0. -1.
         22    1    3    3    0    0 -0.33387343718E+02 -0.23880247871E+02  0.24455867943E+03  0.24797969401E+03  0.00000000000E+00 0.  1.
         22    1    3    3    0    0  0.79242646698E+02  0.52562241683E+02  0.53055434949E+03  0.53900844527E+03  0.00000000000E+00 0.  1.
</event>
<event>
 7    1  0.8278507E-006  0.1265699E+03  0.7818608E-02  0.1269011E+00
          2   -1    0    0  502    0  0.00000000000E+00  0.00000000000E+00  0.18800516775E+03  0.18800516775E+03  0.00000000000E+00 0. -1.
          1   -1    0    0  501    0 -0.00000000000E+00 -0.00000000000E+00 -0.30954396128E+04  0.30954396128E+04  0.00000000000E+00 0. -1.
         25    2    1    2    0    0 -0.92634007821E+02 -0.98516211814E+02 -0.12047054222E+04  0.12186982672E+04  0.12499523557E+03 0.  0.
          2    1    1    2  501    0  0.83437433558E+02 -0.28109751248E+02 -0.18603054578E+04  0.18623878113E+04  0.00000000000E+00 0. -1.
          1    1    1    2  502    0  0.91965742629E+01  0.12662596306E+03  0.15757643483E+03  0.20235870210E+03  0.00000000000E+00 0. -1.
         22    1    3    3    0    0 -0.10749192460E+03 -0.29214766569E+02 -0.64880527738E+03  0.65829803615E+03  0.00000000000E+00 0.  1.
         22    1    3    3    0    0  0.14857916781E+02 -0.69301445245E+02 -0.55590014478E+03  0.56040023106E+03  0.00000000000E+00 0.  1.
</event>
<event>
 7    1  0.8278507E-006  0.5674838E+02  0.7818608E-02  0.1424065E+00
          2   -1    0    0  502    0  0.00000000000E+00  0.00000000000E+00  0.52957865088E+03  0.52957865088E+03  0.00000000000E+00 0. -1.
          1   -1    0    0  501    0 -0.00000000000E+00 -0.00000000000E+00 -0.43008921806E+03  0.43008921806E+03  0.00000000000E+00 0. -1.
         25    2    1    2    0    0  0.21034692412E+02  0.13050852110E+02 -0.72556008828E+02  0.14664439692E+03  0.12500968644E+03 0.  0.
          2    1    1    2  501    0 -0.27016971114E+02  0.44089775486E+02 -0.31670967015E+03  0.32090316327E+03  0.00000000000E+00 0. -1.
          1    1    1    2  502    0  0.59822787028E+01 -0.57140627596E+02  0.48875511180E+03  0.49212030876E+03  0.00000000000E+00 0. -1.
         22    1    3    3    0    0  0.23387927193E+02 -0.95146907990E+01 -0.10447548606E+03  0.10748326226E+03  0.00000000000E+00 0.  1.
         22    1    3    3    0    0 -0.23532347818E+01  0.22565542909E+02  0.31919477231E+02  0.39161134654E+02  0.00000000000E+00 0.  1.
</event>
<event>
 7    1  0.8278507E-006  0.8842962E+02  0.7818608E-02  0.1313825E+00
          2   -1    0    0  502    0  0.00000000000E+00  0.00000000000E+00  0.10885902521E+04  0.10885902521E+04  0.00000000000E+00 0. -1.
          1   -1    0    0  501    0 -0.00000000000E+00 -0.00000000000E+00 -0.98791539929E+02  0.98791539929E+02  0.00000000000E+00 0. -1.
         25    2    1    2    0    0 -0.37594573170E+02 -0.70413009259E+02  0.53959354696E+03  0.55960602793E+03  0.12500546698E+03 0.  0.
          2    1    1    2  501    0 -0.44911414325E+02  0.78435461803E+02 -0.61549799302E+02  0.10935051257E+03  0.00000000000E+00 0. -1.
          1    1    1    2  502    0  0.82505987495E+02 -0.80224525438E+01  0.51175496451E+03  0.51842525153E+03  0.00000000000E+00 0. -1.
         22    1    3    3    0    0  0.38890817925E+02  0.56746678609E+00  0.21992596879E+03  0.22333886694E+03  0.00000000000E+00 0. -1.
         22    1    3    3    0    0 -0.76485391095E+02 -0.70980476045E+02  0.31966757817E+03  0.33626716100E+03  0.00000000000E+00 0. -1.
</event>
<event>
 7    1  0.1484857E-005  0.6502101E+02  0.7818608E-02  0.1442183E+00
          2   -1    0    0  502    0  0.00000000000E+00  0.00000000000E+00  0.16264158633E+04  0.16264158633E+04  0.00000000000E+00 0. -1.
          1   -1    0    0  501    0 -0.00000000000E+00 -0.00000000000E+00 -0.78110657983E+03  0.78110657983E+03  0.00000000000E+00 0. -1.
         25    2    1    2    0    0 -0.37124776363E+02  0.46942468804E+02 -0.27841331371E+03  0.31099994967E+03  0.12500060418E+03 0.  0.
          2    1    1    2  501    0 -0.25650390317E+02 -0.29857357628E+02 -0.48494499167E+03  0.48653987429E+03  0.00000000000E+00 0. -1.
          1    1    1    2  502    0  0.62775166680E+02 -0.17085111177E+02  0.16086675888E+04  0.16099826191E+04  0.00000000000E+00 0. -1.
         22    1    3    3    0    0 -0.53865267934E+02  0.68588229611E+02 -0.26781208840E+03  0.28165426861E+03  0.00000000000E+00 0. -1.
         22    1    3    3    0    0  0.16740491572E+02 -0.21645760807E+02 -0.10601225312E+02  0.29345681064E+02  0.00000000000E+00 0. -1.
</event>
<event>
 7    1  0.8278507E-006  0.6893503E+02  0.7818608E-02  0.1511933E+00
          2   -1    0    0  502    0  0.00000000000E+00  0.00000000000E+00  0.42398128952E+04  0.42398128952E+04  0.00000000000E+00 0. -1.
          1   -1    0    0  501    0 -0.00000000000E+00 -0.00000000000E+00 -0.13105016535E+02  0.13105016535E+02  0.00000000000E+00 0. -1.
         25    2    1    2    0    0 -0.59621301149E+00 -0.47375558418E+02  0.28352921040E+04  0.28384417576E+04  0.12500198913E+03 0.  0.
          2    1    1    2  501    0  0.50630875952E+01  0.69562502643E+02  0.94954617319E+02  0.11781746891E+03  0.00000000000E+00 0. -1.
          1    1    1    2  502    0 -0.44668745837E+01 -0.22186944225E+02  0.12964611573E+04  0.12966586852E+04  0.00000000000E+00 0. -1.
         22    1    3    3    0    0 -0.32887876459E+02 -0.51500820371E+02  0.26190695416E+04  0.26197822831E+04  0.00000000000E+00 0.  1.
         22    1    3    3    0    0  0.32291663447E+02  0.41252619537E+01  0.21622256240E+03  0.21865947453E+03  0.00000000000E+00 0.  1.
</event>
<event>
 7    1  0.8278507E-006  0.1457359E+03  0.7818608E-02  0.1361258E+00
          2   -1    0    0  502    0  0.00000000000E+00  0.00000000000E+00  0.13531024569E+04  0.13531024569E+04  0.00000000000E+00 0. -1.
          1   -1    0    0  501    0 -0.00000000000E+00 -0.00000000000E+00 -0.57641869120E+03  0.57641869120E+03  0.00000000000E+00 0. -1.
         25    2    1    2    0    0 -0.14679668391E+03  0.29775812219E+02  0.42442865279E+02  0.19965604822E+03  0.12500110150E+03 0.  0.
          2    1    1    2  501    0  0.14006669441E+02  0.30205615765E+02 -0.49294050885E+03  0.49406367128E+03  0.00000000000E+00 0. -1.
          1    1    1    2  502    0  0.13279001447E+03 -0.59981427984E+02  0.12271814093E+04  0.12358014286E+04  0.00000000000E+00 0. -1.
         22    1    3    3    0    0 -0.91141425023E+02  0.76930752531E+02  0.95913528027E+01  0.11965406006E+03  0.00000000000E+00 0. -1.
         22    1    3    3    0    0 -0.55655258884E+02 -0.47154940312E+02  0.32851512476E+02  0.80001988158E+02  0.00000000000E+00 0. -1.
</event>
<event>
 7    1  0.1091403E-005  0.6479152E+02  0.7818608E-02  0.1390957E+00
          2   -1    0    0  502    0  0.00000000000E+00  0.00000000000E+00  0.29121379998E+04  0.29121379998E+04  0.00000000000E+00 0. -1.
          1   -1    0    0  501    0 -0.00000000000E+00 -0.00000000000E+00 -0.28107320447E+04  0.28107320447E+04  0.00000000000E+00 0. -1.
         25    2    1    2    0    0 -0.10961845437E+03 -0.24841824163E+02 -0.56237938718E+03  0.58696608270E+03  0.12500114141E+03 0.  0.
          2    1    1    2  501    0  0.57195529378E+02 -0.13192850256E+02 -0.22353123527E+04  0.22360828907E+04  0.00000000000E+00 0. -1.
          1    1    1    2  502    0  0.52422924987E+02  0.38034674419E+02  0.28990976950E+04  0.28998210711E+04  0.00000000000E+00 0. -1.
         22    1    3    3    0    0 -0.50759258840E+02  0.65942005498E+01 -0.54675483790E+02  0.74895890185E+02  0.00000000000E+00 0. -1.
         22    1    3    3    0    0 -0.58859195525E+02 -0.31436024713E+02 -0.50770390339E+03  0.51207019252E+03  0.00000000000E+00 0. -1.
</event>
<event>
 7    1  0.8278507E-006  0.8020705E+02  0.7818608E-02  0.1469859E+00
          2   -1    0    0  502    0  0.00000000000E+00  0.00000000000E+00  0.12318978622E+03  0.12318978622E+03  0.00000000000E+00 0. -1.
          1   -1    0    0  501    0 -0.00000000000E+00 -0.00000000000E+00 -0.11276851974E+04  0.11276851974E+04  0.00000000000E+00 0. -1.
         25    2    1    2    0    0  0.82666800396E+02 -0.56240725013E+02 -0.66413975218E+03  0.68315737667E+03  0.12500228728E+03 0.  0.
          2    1    1    2  501    0 -0.60734071220E+02  0.42150907944E+02 -0.44948188510E+03  0.45552090125E+03  0.00000000000E+00 0. -1.
          1    1    1    2  502    0 -0.21932729176E+02  0.14089817069E+02  0.10912622608E+03  0.11219670571E+03  0.00000000000E+00 0. -1.
         22    1    3    3    0    0  0.11188174546E+03 -0.25636926661E+02 -0.42113300583E+03  0.43649488608E+03  0.00000000000E+00 0.  1.
         22    1    3    3    0    0 -0.29214945063E+02 -0.30603798352E+02 -0.24300674635E+03  0.24666249058E+03  0.00000000000E+00 0.  1.
</event>
<event>
 7    1  0.8278507E-006  0.1405407E+03  0.7818608E-02  0.1377094E+00
          2   -1    0    0  502    0  0.00000000000E+00  0.00000000000E+00  0.69029853570E+03  0.69029853570E+03  0.00000000000E+00 0. -1.
          1   -1    0    0  501    0 -0.00000000000E+00 -0.00000000000E+00 -0.13126078679E+04  0.13126078679E+04  0.00000000000E+00 0. -1.
         25    2    1    2    0    0 -0.75291050248E+02 -0.14196637775E+03 -0.66782452409E+03  0.69816787364E+03  0.12500236060E+03 0.  0.
          2    1    1    2  501    0 -0.81901033964E+01  0.29150517787E+02 -0.62194573572E+03  0.62268236579E+03  0.00000000000E+00 0. -1.
          1    1    1    2  502    0  0.83481153644E+02  0.11281585997E+03  0.66746092758E+03  0.68205616420E+03  0.00000000000E+00 0. -1.
         22    1    3    3    0    0 -0.73193287104E+02 -0.10546916311E+03 -0.27326603832E+03  0.30191940869E+03  0.00000000000E+00 0. -1.
         22    1    3    3    0    0 -0.20977631441E+01 -0.36497214640E+02 -0.39455848577E+03  0.39624846496E+03  0.00000000000E+00 0. -1.
</event>
<event>
 7    1  0.8278507E-006  0.1009949E+03  0.7818608E-02  0.1424511E+00
          2   -1    0    0  502    0  0.00000000000E+00  0.00000000000E+00  0.36232414390E+03  0.36232414390E+03  0.00000000000E+00 0. -1.
          1   -1    0    0  501    0 -0.00000000000E+00 -0.00000000000E+00 -0.20533221892E+04  0.20533221892E+04  0.00000000000E+00 0. -1.
         25    2    1    2    0    0 -0.86702379514E+02 -0.34283602997E+02 -0.21646322623E+02  0.15743555650E+03  0.12499889247E+03 0.  0.
          2    1    1    2  501    0  0.79707176284E+02  0.62382031573E+02 -0.19617614618E+04  0.19643708369E+04  0.00000000000E+00 0. -1.
          1    1    1    2  502    0  0.69952032295E+01 -0.28098428576E+02  0.29240973919E+03  0.29383993965E+03  0.00000000000E+00 0. -1.
         22    1    3    3    0    0 -0.96312069882E+02  0.13881788932E+02  0.11791099336E+02  0.98019125136E+02  0.00000000000E+00 0.  1.
         22    1    3    3    0    0  0.96096903680E+01 -0.48165391930E+02 -0.33437421959E+02  0.59416431363E+02  0.00000000000E+00 0.  1.
</event>
<event>
 7    1  0.8278507E-006  0.1370146E+03  0.7818608E-02  0.1288214E+00
          2   -1    0    0  502    0  0.00000000000E+00  0.00000000000E+00  0.15602437233E+03  0.15602437233E+03  0.00000000000E+00 0. -1.
          1   -1    0    0  501    0 -0.00000000000E+00 -0.00000000000E+00 -0.16797444071E+04  0.16797444071E+04  0.00000000000E+00 0. -1.
         25    2    1    2    0    0  0.15563456693E+03 -0.84572830986E+02 -0.15689937486E+03  0.26761386515E+03  0.12500033930E+03 0.  0.
          2    1    1    2  501    0 -0.27170517209E+02  0.62032981744E+02 -0.14240968942E+04  0.14257062432E+04  0.00000000000E+00 0. -1.
          1    1    1    2  502    0 -0.12846404972E+03  0.22539849242E+02  0.57276234302E+02  0.14244867107E+03  0.00000000000E+00 0. -1.
         22    1    3    3    0    0  0.13852530656E+03 -0.27343329157E+02 -0.15233325147E+03  0.20770733668E+03  0.00000000000E+00 0. -1.
         22    1    3    3    0    0  0.17109260365E+02 -0.57229501829E+02 -0.45661233853E+01  0.59906528464E+02  0.00000000000E+00 0. -1.
</event>
<event>
 7    1  0.8278507E-006  0.7453938E+02  0.7818608E-02  0.1450255E+00
          2   -1    0    0  502    0  0.00000000000E+00  0.00000000000E+00  0.31380071923E+04  0.31380071923E+04  0.00000000000E+00 0. -1.
          1   -1    0    0  501    0 -0.00000000000E+00 -0.00000000000E+00 -0.36588059375E+02  0.36588059375E+02  0.00000000000E+00 0. -1.
         25    2    1    2    0    0 -0.53246483711E+02 -0.15557465003E+01  0.17692892918E+03  0.22308346880E+03  0.12499911879E+03 0.  0.
          2    1    1    2  501    0 -0.17239348483E+02  0.27365974290E+02  0.70457900410E+01  0.33101885781E+02  0.00000000000E+00 0. -1.
          1    1    1    2  502    0  0.70485832194E+02 -0.25810227790E+02  0.29174444137E+04  0.29184098970E+04  0.00000000000E+00 0. -1.
         22    1    3    3    0    0  0.40521435129E+02  0.36896126214E+01  0.68149958213E+02  0.79372644851E+02  0.00000000000E+00 0. -1.
         22    1    3    3    0    0 -0.93767918841E+02 -0.52453591218E+01  0.10877897097E+03  0.14371082395E+03  0.00000000000E+00 0. -1.
</event>
<event>
 7    1  0.8278507E-006  0.2203080E+03  0.7818608E-02  0.1349405E+00
          2   -1    0    0  502    0  0.00000000000E+00  0.00000000000E+00  0.18584224573E+03  0.18584224573E+03  0.00000000000E+00 0. -1.
          1   -1    0    0  501    0 -0.00000000000E+00 -0.00000000000E+00 -0.12046491153E+04  0.12046491153E+04  0.00000000000E+00 0. -1.
         25    2    1    2    0    0 -0.18009945711E+03 -0.11668628111E+03 -0.68732998378E+03  0.73082084861E+03  0.12500041407E+03 0.  0.
          2    1    1    2  501    0  0.20176425151E+03  0.10557272660E+03 -0.46828307982E+03  0.52071437145E+03  0.00000000000E+00 0. -1.
          1    1    1    2  502    0 -0.21664794403E+02  0.11113554505E+02  0.13680619398E+03  0.13895614100E+03  0.00000000000E+00 0. -1.
         22    1    3    3    0    0 -0.59290170745E+02 -0.94525924595E+02 -0.20839662259E+03  0.23638872028E+03  0.00000000000E+00 0. -1.
         22    1    3    3    0    0 -0.12080928637E+03 -0.22160356514E+02 -0.47893336118E+03  0.49443212833E+03  0.00000000000E+00 0. -1.
</event>
<event>
 7    1  0.8278507E-006  0.2657822E+02  0.7818608E-02  0.1678731E+00
          2   -1    0    0  502    0  0.00000000000E+00  0.00000000000E+00  0.71226843853E+02  0.71226843853E+02  0.00000000000E+00 0. -1.
          1   -1    0    0  501    0 -0.00000000000E+00 -0.00000000000E+00 -0.32335848506E+03  0.32335848506E+03  0.00000000000E+00 0. -1.
         25    2    1    2    0    0  0.65274684552E+00 -0.80892809402E+01 -0.42491258609E+02  0.13228070920E+03  0.12500726548E+03 0.  0.
          2    1    1    2  501    0 -0.18812007552E+02  0.19273959702E+02 -0.23073838523E+03  0.23230492800E+03  0.00000000000E+00 0. -1.
          1    1    1    2  502    0  0.18159260707E+02 -0.11184678761E+02  0.21098002633E+02  0.29999691724E+02  0.00000000000E+00 0. -1.
         22    1    3    3    0    0  0.21312427549E+02  0.48888374017E+02 -0.47564761548E+02  0.71461172836E+02  0.00000000000E+00 0. -1.
         22    1    3    3    0    0 -0.20659680704E+02 -0.56977654957E+02  0.50735029389E+01  0.60819536361E+02  0.00000000000E+00 0. -1.
</event>
<event>
 7    1  0.8278507E-006  0.8984016E+02  0.7818608E-02  0.1396285E+00
          2   -1    0    0  502    0  0.00000000000E+00  0.00000000000E+00  0.40042314104E+04  0.40042314104E+04  0.00000000000E+00 0. -1.
          1   -1    0    0  501    0 -0.00000000000E+00 -0.00000000000E+00 -0.14899432841E+02  0.14899432841E+02  0.00000000000E+00 0. -1.
         25    2    1    2    0    0 -0.98040939864E+02  0.70678027787E+02  0.12118917221E+04  0.12242955951E+04  0.12494298223E+03 0.  0.
          2    1    1    2  501    0  0.76635599765E+02 -0.36217809738E+02  0.20184349853E+03  0.21891903250E+03  0.00000000000E+00 0. -1.
          1    1    1    2  502    0  0.21405340099E+02 -0.34460218049E+02  0.25755967569E+04  0.25759162156E+04  0.00000000000E+00 0. -1.
         22    1    3    3    0    0 -0.40637378240E+02  0.41719940663E+02  0.10250110563E+04  0.10266643149E+04  0.00000000000E+00 0.  1.
         22    1    3    3    0    0 -0.57403561624E+02  0.28958087124E+02  0.18688066573E+03  0.19763128022E+03  0.00000000000E+00 0.  1.
</event>
<event>
 7    1  0.8278507E-006  0.3647023E+02  0.7818608E-02  0.1612001E+00
          2   -1    0    0  502    0  0.00000000000E+00  0.00000000000E+00  0.10444309235E+03  0.10444309235E+03  0.00000000000E+00 0. -1.
          1   -1    0    0  501    0 -0.00000000000E+00 -0.00000000000E+00 -0.35805208877E+03  0.35805208877E+03  0.00000000000E+00 0. -1.
         25    2    1    2    0    0  0.48541831615E+02 -0.35622249879E+01 -0.26825086116E+00  0.13414045459E+03  0.12499836293E+03 0.  0.
          2    1    1    2  501    0 -0.15553956810E+02  0.16545360715E+02 -0.28191109746E+03  0.28282422351E+03  0.00000000000E+00 0. -1.
          1    1    1    2  502    0 -0.32987874806E+02 -0.12983135727E+02  0.28570351895E+02  0.45530503016E+02  0.00000000000E+00 0. -1.
         22    1    3    3    0    0  0.88293209507E+02  0.52600542268E+01 -0.17086992299E+02  0.90085094891E+02  0.00000000000E+00 0.  1.
         22    1    3    3    0    0 -0.39751377892E+02 -0.88222792147E+01  0.16818741438E+02  0.44055359701E+02  0.00000000000E+00 0.  1.
</event>
<event>
 7    1  0.8278507E-006  0.8731269E+02  0.7818608E-02  0.1365491E+00
          2   -1    0    0  502    0  0.00000000000E+00  0.00000000000E+00  0.85442979480E+02  0.85442979480E+02  0.00000000000E+00 0. -1.
          1   -1    0    0  501    0 -0.00000000000E+00 -0.00000000000E+00 -0.76112715180E+03  0.76112715180E+03  0.00000000000E+00 0. -1.
         25    2    1    2    0    0  0.41689215405E+02  0.29219591173E+02 -0.51432828707E+02  0.14443724814E+03  0.12500003037E+03 0.  0.
          2    1    1    2  501    0 -0.90073077801E+02 -0.60585829163E+01 -0.63991459296E+03  0.64625115246E+03  0.00000000000E+00 0. -1.
          1    1    1    2  502    0  0.48383862396E+02 -0.23161008257E+02  0.15663249346E+02  0.55881730681E+02  0.00000000000E+00 0. -1.
         22    1    3    3    0    0  0.40406477677E+02  0.73921176317E+02 -0.53281278301E+02  0.99679076860E+02  0.00000000000E+00 0. -1.
         22    1    3    3    0    0  0.12827377284E+01 -0.44701585144E+02  0.18484495940E+01  0.44758171280E+02  0.00000000000E+00 0. -1.
</event>
<event>
 7    1  0.8278507E-006  0.1016074E+03  0.7818608E-02  0.1326916E+00
          2   -1    0    0  502    0  0.00000000000E+00  0.00000000000E+00  0.16659797261E+04  0.16659797261E+04  0.00000000000E+00 0. -1.
          1   -1    0    0  501    0 -0.00000000000E+00 -0.00000000000E+00 -0.81298013242E+02  0.81298013242E+02  0.00000000000E+00 0. -1.
         25    2    1    2    0    0 -0.13565849008E+03 -0.28708970506E+02  0.17723062075E+03  0.25741690440E+03  0.12500135528E+03 0.  0.
          2    1    1    2  501    0  0.76936238065E+02  0.54622555292E+02  0.14536158652E+02  0.95467838472E+02  0.00000000000E+00 0. -1.
          1    1    1    2  502    0  0.58722252011E+02 -0.25913584786E+02  0.13929149335E+04  0.13943929965E+04  0.00000000000E+00 0. -1.
         22    1    3    3    0    0 -0.84869927869E+02 -0.74969591614E+02  0.13723548410E+03  0.17792392312E+03  0.00000000000E+00 0.  1.
         22    1    3    3    0    0 -0.50788562208E+02  0.46260621109E+02  0.39995136650E+02  0.79492981276E+02  0.00000000000E+00 0.  1.
</event>
<event>
 7    1  0.8278507E-006  0.4459557E+03  0.7818608E-02  0.1077294E+00
          2   -1    0    0  502    0  0.00000000000E+00  0.00000000000E+00  0.22309708780E+04  0.22309708780E+04  0.00000000000E+00 0. -1.
          1   -1    0    0  501    0 -0.00000000000E+00 -0.00000000000E+00 -0.10842867105E+04  0.10842867105E+04  0.00000000000E+00 0. -1.
         25    2    1    2    0    0  0.46180819998E+03  0.39300982441E+03  0.33814458847E+02  0.62007378067E+03  0.12499816076E+03 0.  0.
          2    1    1    2  501    0 -0.24269662036E+03 -0.34386205889E+03 -0.72787101379E+03  0.84079663284E+03  0.00000000000E+00 0. -1.
          1    1    1    2  502    0 -0.21911157962E+03 -0.49147765528E+02  0.18407407225E+04  0.18543871749E+04  0.00000000000E+00 0. -1.
         22    1    3    3    0    0  0.27311896769E+03  0.19066230779E+03 -0.35148747809E+02  0.33493509908E+03  0.00000000000E+00 0.  1.
         22    1    3    3    0    0  0.18868923229E+03  0.20234751663E+03  0.68963206656E+02  0.28513868159E+03  0.00000000000E+00 0.  1.
</event>
<event>
 7    1  0.8278507E-006  0.5474641E+02  0.7818608E-02  0.1423688E+00
          2   -1    0    0  502    0  0.00000000000E+00  0.00000000000E+00  0.59721087984E+02  0.59721087984E+02  0.00000000000E+00 0. -1.
          1   -1    0    0  501    0 -0.00000000000E+00 -0.00000000000E+00 -0.82589703770E+03  0.82589703770E+03  0.00000000000E+00 0. -1.
         25    2    1    2    0    0 -0.11389737602E+02 -0.42887968462E+02 -0.11374864047E+03  0.17473720362E+03  0.12500093263E+03 0.  0.
          2    1    1    2  501    0  0.53726478210E+02 -0.17340247651E+01 -0.64689251011E+03  0.64912206937E+03  0.00000000000E+00 0. -1.
          1    1    1    2  502    0 -0.42336740608E+02  0.44621993227E+02 -0.55347991388E+01  0.61758852696E+02  0.00000000000E+00 0. -1.
         22    1    3    3    0    0  0.46200893732E+00 -0.20716141584E+02  0.25715525628E+02  0.33025145461E+02  0.00000000000E+00 0. -1.
         22    1    3    3    0    0 -0.11851746540E+02 -0.22171826878E+02 -0.13946416609E+03  0.14171205816E+03  0.00000000000E+00 0. -1.
</event>
<event>
 7    1  0.8278507E-006  0.1069888E+03  0.7818608E-02  0.1404280E+00
          2   -1    0    0  502    0  0.00000000000E+00  0.00000000000E+00  0.21688733798E+04  0.21688733798E+04  0.00000000000E+00 0. -1.
          1   -1    0    0  501    0 -0.00000000000E+00 -0.00000000000E+00 -0.26504575212E+02  0.26504575212E+02  0.00000000000E+00 0. -1.
         25    2    1    2    0    0 -0.55580338075E+02  0.74681519720E+02  0.37374788536E+03  0.40494240029E+03  0.12499744947E+03 0.  0.
          2    1    1    2  501    0  0.16982359950E+02  0.27093591940E+02  0.18518156778E+02  0.36951121825E+02  0.00000000000E+00 0. -1.
          1    1    1    2  502    0  0.38597978125E+02 -0.10177511166E+03  0.17501027625E+04  0.17534844329E+04  0.00000000000E+00 0. -1.
         22    1    3    3    0    0 -0.75950012357E+02  0.87547977391E+02  0.21383844362E+03  0.24322814947E+03  0.00000000000E+00 0. -1.
         22    1    3    3    0    0  0.20369674282E+02 -0.12866457671E+02  0.15990944173E+03  0.16171425082E+03  0.00000000000E+00 0. -1.
</event>
<event>
 7    1  0.8278507E-006  0.2921821E+03  0.7818608E-02  0.1242457E+00
          2   -1    0    0  502    0  0.00000000000E+00  0.00000000000E+00  0.77109771703E+03  0.77109771703E+03  0.00000000000E+00 0. -1.
          1   -1    0    0  501    0 -0.00000000000E+00 -0.00000000000E+00 -0.21526965881E+04  0.21526965881E+04  0.00000000000E+00 0. -1.
         25    2    1    2    0    0  0.21123657871E+03  0.12542916622E+03  0.44239472791E+02  0.27916870523E+03  0.12499866841E+03 0.  0.
          2    1    1    2  501    0 -0.25442081257E+03 -0.14983645430E+03 -0.20234900883E+04  0.20449188371E+04  0.00000000000E+00 0. -1.
          1    1    1    2  502    0  0.43184233861E+02  0.24407288078E+02  0.59765174442E+03  0.59970676282E+03  0.00000000000E+00 0. -1.
         22    1    3    3    0    0  0.20915648749E+03  0.80648300669E+02  0.59300117465E+02  0.23187731366E+03  0.00000000000E+00 0. -1.
         22    1    3    3    0    0  0.20800912263E+01  0.44780865550E+02 -0.15060644674E+02  0.47291391573E+02  0.00000000000E+00 0. -1.
</event>
<event>
 7    1  0.8278507E-006  0.1741596E+03  0.7818608E-02  0.1255327E+00
          2   -1    0    0  502    0  0.00000000000E+00  0.00000000000E+00  0.20526737104E+04  0.20526737104E+04  0.00000000000E+00 0. -1.
          1   -1    0    0  501    0 -0.00000000000E+00 -0.00000000000E+00 -0.21129564906E+03  0.21129564906E+03  0.00000000000E+00 0. -1.
         25    2    1    2    0    0 -0.12187846625E+03 -0.14907940871E+03 -0.12190288453E+03  0.25993132554E+03  0.12499980042E+03 0.  0.
          2    1    1    2  501    0  0.71061500738E+02 -0.17407338886E+02  0.65220999082E+02  0.98012912697E+02  0.00000000000E+00 0. -1.
          1    1    1    2  502    0  0.50816965508E+02  0.16648674759E+03  0.18980599468E+04  0.19060251212E+04  0.00000000000E+00 0. -1.
         22    1    3    3    0    0 -0.13946075775E+03 -0.12690785646E+03 -0.70603013909E+02  0.20134471078E+03  0.00000000000E+00 0. -1.
         22    1    3    3    0    0  0.17582291509E+02 -0.22171552244E+02 -0.51299870619E+02  0.58586614761E+02  0.00000000000E+00 0. -1.
</event>
<event>
 7    1  0.8278507E-006  0.1451186E+03  0.7818608E-02  0.1338946E+00
          2   -1    0    0  502    0  0.00000000000E+00  0.00000000000E+00  0.56847683922E+03  0.56847683922E+03  0.00000000000E+00 0. -1.
          1   -1    0    0  501    0 -0.00000000000E+00 -0.00000000000E+00 -0.12614473661E+04  0.12614473661E+04  0.00000000000E+00 0. -1.
         25    2    1    2    0    0 -0.11547000716E+03  0.33050155029E+02 -0.16155619842E+02  0.17410153035E+03  0.12499881406E+03 0.  0.
          2    1    1    2  501    0 -0.15041762514E+02  0.37546110935E+02 -0.11547119393E+04  0.11554201088E+04  0.00000000000E+00 0. -1.
          1    1    1    2  502    0  0.13051176967E+03 -0.70596265964E+02  0.47789703226E+03  0.50040256617E+03  0.00000000000E+00 0. -1.
         22    1    3    3    0    0 -0.12548989522E+03  0.50813943776E+02  0.15680956135E+02  0.13629256425E+03  0.00000000000E+00 0.  1.
         22    1    3    3    0    0  0.10019888062E+02 -0.17763788748E+02 -0.31836575977E+02  0.37808966098E+02  0.00000000000E+00 0.  1.
</event>
<event>
 7    1  0.1150204E-005  0.1241969E+03  0.7818608E-02  0.1327043E+00
          2   -1    0    0  502    0  0.00000000000E+00  0.00000000000E+00  0.11944094087E+04  0.11944094087E+04  0.00000000000E+00 0. -1.
          1   -1    0    0  501    0 -0.00000000000E+00 -0.00000000000E+00 -0.10377566443E+04  0.10377566443E+04  0.00000000000E+00 0. -1.
         25    2    1    2    0    0 -0.11248498687E+03  0.30227440028E+02 -0.10906793201E+03  0.20269128194E+03  0.12498548548E+03 0.  0.
          2    1    1    2  501    0 -0.10291222065E+02 -0.51432810088E+02 -0.87771001038E+03  0.87927589841E+03  0.00000000000E+00 0. -1.
          1    1    1    2  502    0  0.12277620894E+03  0.21205370060E+02  0.11434307068E+04  0.11501988726E+04  0.00000000000E+00 0. -1.
         22    1    3    3    0    0 -0.70084017770E+02 -0.27828789503E+02 -0.41698167302E+01  0.75522171867E+02  0.00000000000E+00 0. -1.
         22    1    3    3    0    0 -0.42400969104E+02  0.58056229531E+02 -0.10489811528E+03  0.12716911008E+03  0.00000000000E+00 0. -1.
</event>
<event>
 7    1  0.8278507E-006  0.6004982E+02  0.7818608E-02  0.1499806E+00
          2   -1    0    0  502    0  0.00000000000E+00  0.00000000000E+00  0.11527823518E+04  0.11527823518E+04  0.00000000000E+00 0. -1.
          1   -1    0    0  501    0 -0.00000000000E+00 -0.00000000000E+00 -0.28845767705E+03  0.28845767705E+03  0.00000000000E+00 0. -1.
         25    2    1    2    0    0 -0.31681872455E+02 -0.77002672332E+02  0.11931149174E+03  0.19181347821E+03  0.12499610303E+03 0.  0.
          2    1    1    2  501    0  0.10214778913E+02  0.58685379471E+02 -0.24848626594E+03  0.25552639752E+03  0.00000000000E+00 0. -1.
          1    1    1    2  502    0  0.21467093542E+02  0.18317292861E+02  0.99349944898E+03  0.99390015316E+03  0.00000000000E+00 0. -1.
         22    1    3    3    0    0  0.37152335449E+02 -0.66681678767E+02  0.84893842043E+02  0.11416526061E+03  0.00000000000E+00 0.  1.
         22    1    3    3    0    0 -0.68834207905E+02 -0.10320993565E+02  0.34417649694E+02  0.77648217600E+02  0.00000000000E+00 0.  1.
</event>
<event>
 7    1  0.8278507E-006  0.1036138E+03  0.7818608E-02  0.1447441E+00
          2   -1    0    0  502    0  0.00000000000E+00  0.00000000000E+00  0.41468723751E+03  0.41468723751E+03  0.00000000000E+00 0. -1.
          1   -1    0    0  501    0 -0.00000000000E+00 -0.00000000000E+00 -0.20068768118E+03  0.20068768118E+03  0.00000000000E+00 0. -1.
         25    2    1    2    0    0 -0.28290687327E+02 -0.11598852658E+03  0.27179718124E+03  0.32210435685E+03  0.12499523065E+03 0.  0.
          2    1    1    2  501    0  0.87329814491E+01  0.10250387219E+03 -0.15896616424E+03  0.18935033708E+03  0.00000000000E+00 0. -1.
          1    1    1    2  502    0  0.19557705878E+02  0.13484654396E+02  0.10116853933E+03  0.10392022476E+03  0.00000000000E+00 0. -1.
         22    1    3    3    0    0 -0.40568897125E+02 -0.12188226969E+03  0.14155344640E+03  0.19115046760E+03  0.00000000000E+00 0.  1.
         22    1    3    3    0    0  0.12278209798E+02  0.58937431036E+01  0.13024373484E+03  0.13095388925E+03  0.00000000000E+00 0.  1.
</event>
<event>
 7    1  0.8278507E-006  0.2451145E+03  0.7818608E-02  0.1342342E+00
          2   -1    0    0  502    0  0.00000000000E+00  0.00000000000E+00  0.87035388472E+03  0.87035388472E+03  0.00000000000E+00 0. -1.
          1   -1    0    0  501    0 -0.00000000000E+00 -0.00000000000E+00 -0.95051722618E+03  0.95051722618E+03  0.00000000000E+00 0. -1.
         25    2    1    2    0    0 -0.21906907964E+03  0.12745723717E+03 -0.50778924593E+03  0.58112959050E+03  0.12500029484E+03 0.  0.
          2    1    1    2  501    0  0.19656327777E+03 -0.13330408743E+03 -0.37114564754E+03  0.44063158486E+03  0.00000000000E+00 0. -1.
          1    1    1    2  502    0  0.22505801873E+02  0.58468502608E+01  0.79877155201E+03  0.79910993554E+03  0.00000000000E+00 0. -1.
         22    1    3    3    0    0 -0.21641817176E+03  0.10426953472E+03 -0.36842676184E+03  0.43982637459E+03  0.00000000000E+00 0.  1.
         22    1    3    3    0    0 -0.26509078837E+01  0.23187702447E+02 -0.13936248408E+03  0.14130321591E+03  0.00000000000E+00 0.  1.
</event>
<event>
 7    1  0.8278507E-006  0.6020747E+02  0.7818608E-02  0.1482718E+00
          2   -1    0    0  502    0  0.00000000000E+00  0.00000000000E+00  0.60050979932E+03  0.60050979932E+03  0.00000000000E+00 0. -1.
          1   -1    0    0  501    0 -0.00000000000E+00 -0.00000000000E+00 -0.59101719807E+03  0.59101719807E+03  0.00000000000E+00 0. -1.
         25    2    1    2    0    0 -0.15816904408E+02 -0.89926503775E+02 -0.24625543205E+03  0.29086484609E+03  0.12499468120E+03 0.  0.
          2    1    1    2  501    0  0.95419863436E+01  0.30227295494E+02 -0.32011419050E+03  0.32167970694E+03  0.00000000000E+00 0. -1.
          1    1    1    2  502    0  0.62749180646E+01  0.59699208281E+02  0.57586222380E+03  0.57898244436E+03  0.00000000000E+00 0. -1.
         22    1    3    3    0    0  0.48132634895E+02 -0.25609908311E+02 -0.14508539662E+03  0.15499158125E+03  0.00000000000E+00 0. -1.
         22    1    3    3    0    0 -0.63949539303E+02 -0.64316595464E+02 -0.10117003543E+03  0.13587326484E+03  0.00000000000E+00 0. -1.
</event>
<event>
 7    1  0.8278507E-006  0.2960746E+02  0.7818608E-02  0.1605958E+00
          2   -1    0    0  502    0  0.00000000000E+00  0.00000000000E+00  0.11387204159E+04  0.11387204159E+04  0.00000000000E+00 0. -1.
          1   -1    0    0  501    0 -0.00000000000E+00 -0.00000000000E+00 -0.53222533825E+03  0.53222533825E+03  0.00000000000E+00 0. -1.
         25    2    1    2    0    0 -0.30017329916E+02  0.16816075845E+02  0.32140132797E+03  0.34656578424E+03  0.12500083473E+03 0.  0.
          2    1    1    2  501    0  0.38773811444E+01 -0.29363941469E+02 -0.51895951750E+03  0.51980405534E+03  0.00000000000E+00 0. -1.
          1    1    1    2  502    0  0.26139948772E+02  0.12547865625E+02  0.80405326719E+03  0.80457591458E+03  0.00000000000E+00 0. -1.
         22    1    3    3    0    0 -0.27841254163E+02 -0.51654324252E+02  0.18228641350E+03  0.19149841042E+03  0.00000000000E+00 0.  1.
         22    1    3    3    0    0 -0.21760757529E+01  0.68470400096E+02  0.13911491447E+03  0.15506737382E+03  0.00000000000E+00 0.  1.
</event>
<event>
 7    1  0.8278507E-006  0.1272044E+03  0.7818608E-02  0.1343499E+00
          2   -1    0    0  502    0  0.00000000000E+00  0.00000000000E+00  0.23157819535E+03  0.23157819535E+03  0.00000000000E+00 0. -1.
          1   -1    0    0  501    0 -0.00000000000E+00 -0.00000000000E+00 -0.22423245250E+03  0.22423245250E+03  0.00000000000E+00 0. -1.
         25    2    1    2    0    0  0.10374424794E+03  0.72331701113E+02 -0.19953541703E+02  0.17893379958E+03  0.12499766734E+03 0.  0.
          2    1    1    2  501    0  0.21012833526E+02 -0.39069877580E+02 -0.91332734380E+02  0.10153651007E+03  0.00000000000E+00 0. -1.
          1    1    1    2  502    0 -0.12475708147E+03 -0.33261823533E+02  0.11863201894E+03  0.17534033820E+03  0.00000000000E+00 0. -1.
         22    1    3    3    0    0  0.11273905096E+03  0.88771949164E+02  0.97366404809E+01  0.14382404089E+03  0.00000000000E+00 0. -1.
         22    1    3    3    0    0 -0.89948030203E+01 -0.16440248050E+02 -0.29690182184E+02  0.35109758693E+02  0.00000000000E+00 0. -1.
</event>
<event>
 7    1  0.8278507E-006  0.1070888E+03  0.7818608E-02  0.1419921E+00
          2   -1    0    0  502    0  0.00000000000E+00  0.00000000000E+00  0.18563098472E+04  0.18563098472E+04  0.00000000000E+00 0. -1.
          1   -1    0    0  501    0 -0.00000000000E+00 -0.00000000000E+00 -0.55728405562E+03  0.55728405562E+03  0.00000000000E+00 0. -1.
         25    2    1    2    0    0  0.48738159210E+02  0.66544368985E+02  0.99827015791E+03  0.10094418777E+04  0.12500414028E+03 0.  0.
          2    1    1    2  501    0 -0.75264877136E+02 -0.76364699234E+02 -0.54625033704E+03  0.55667387197E+03  0.00000000000E+00 0. -1.
          1    1    1    2  502    0  0.26526717926E+02  0.98203302499E+01  0.84700597069E+03  0.84747815314E+03  0.00000000000E+00 0. -1.
         22    1    3    3    0    0 -0.32920935908E+02  0.32578613514E+02  0.58413867904E+03  0.58597197069E+03  0.00000000000E+00 0. -1.
         22    1    3    3    0    0  0.81659095119E+02  0.33965755470E+02  0.41413147887E+03  0.42346990702E+03  0.00000000000E+00 0. -1.
</event>
<event>
 7    1  0.8278507E-006  0.1142666E+03  0.7818608E-02  0.1280916E+00
          2   -1    0    0  502    0  0.00000000000E+00  0.00000000000E+00  0.10302507985E+04  0.10302507985E+04  0.00000000000E+00 0. -1.
          1   -1    0    0  501    0 -0.00000000000E+00 -0.00000000000E+00 -0.11509990726E+04  0.11509990726E+04  0.00000000000E+00 0. -1.
         25    2    1    2    0    0 -0.84147804638E+02 -0.34313587565E+02 -0.40102840119E+03  0.42977637028E+03  0.12500269828E+03 0.  0.
          2    1    1    2  501    0  0.12390202887E+03 -0.43072670594E+02 -0.72786029522E+03  0.73958608496E+03  0.00000000000E+00 0. -1.
          1    1    1    2  502    0 -0.39754224231E+02  0.77386258159E+02  0.10081404223E+04  0.10118874158E+04  0.00000000000E+00 0. -1.
         22    1    3    3    0    0  0.24928233727E+02  0.10656319938E+02 -0.29970206299E+02  0.40412711576E+02  0.00000000000E+00 0. -1.
         22    1    3    3    0    0 -0.10907603836E+03 -0.44969907502E+02 -0.37105819489E+03  0.38936365871E+03  0.00000000000E+00 0. -1.
</event>
<event>
 7    1  0.8278507E-006  0.7162166E+02  0.7818608E-02  0.1458553E+00
          2   -1    0    0  502    0  0.00000000000E+00  0.00000000000E+00  0.13871876957E+04  0.13871876957E+04  0.00000000000E+00 0. -1.
          1   -1    0    0  501    0 -0.00000000000E+00 -0.00000000000E+00 -0.12015827523E+04  0.12015827523E+04  0.00000000000E+00 0. -1.
         25    2    1    2    0    0 -0.26288595326E+02 -0.50792658737E+02 -0.29435974987E+03  0.32487110930E+03  0.12499036316E+03 0.  0.
          2    1    1    2  501    0  0.57559182533E+02  0.45736884744E+02 -0.89026907543E+03  0.89329947319E+03  0.00000000000E+00 0. -1.
          1    1    1    2  502    0 -0.31270587207E+02  0.50557739938E+01  0.13702337687E+04  0.13705998655E+04  0.00000000000E+00 0. -1.
         22    1    3    3    0    0 -0.76704656151E+02 -0.25882488613E+02 -0.16366366012E+03  0.18259052860E+03  0.00000000000E+00 0.  1.
         22    1    3    3    0    0  0.50416060824E+02 -0.24910170125E+02 -0.13069608976E+03  0.14228058070E+03  0.00000000000E+00 0.  1.
</event>
<event>
 7    1  0.8278507E-006  0.5214723E+02  0.7818608E-02  0.1439956E+00
          2   -1    0    0  502    0  0.00000000000E+00  0.00000000000E+00  0.38453380253E+03  0.38453380253E+03  0.00000000000E+00 0. -1.
          1   -1    0    0  501    0 -0.00000000000E+00 -0.00000000000E+00 -0.10620055975E+04  0.10620055975E+04  0.00000000000E+00 0. -1.
         25    2    1    2    0    0  0.64797085801E+01  0.28131448956E+01  0.31895130840E+02  0.12919589447E+03  0.12499751745E+03 0.  0.
          2    1    1    2  501    0 -0.23745272789E+02  0.46427314456E+02 -0.10104387221E+04  0.10117834475E+04  0.00000000000E+00 0. -1.
          1    1    1    2  502    0  0.17265564208E+02 -0.49240459352E+02  0.30107179631E+03  0.30556005805E+03  0.00000000000E+00 0. -1.
         22    1    3    3    0    0  0.42701094807E+02  0.45837425880E+02 -0.35009479421E+01  0.62743204775E+02  0.00000000000E+00 0. -1.
         22    1    3    3    0    0 -0.36221386227E+02 -0.43024280984E+02  0.35396078782E+02  0.66452689693E+02  0.00000000000E+00 0. -1.
</event>
<event>
 7    1  0.8278507E-006  0.3423081E+03  0.7818608E-02  0.1292674E+00
          2   -1    0    0  502    0  0.00000000000E+00  0.00000000000E+00  0.28584687265E+03  0.28584687265E+03  0.00000000000E+00 0. -1.
          1   -1    0    0  501    0 -0.00000000000E+00 -0.00000000000E+00 -0.11809562860E+04  0.11809562860E+04  0.00000000000E+00 0. -1.
         25    2    1    2    0    0 -0.86862199177E+02 -0.33064884965E+03 -0.33232539121E+03  0.49288702595E+03  0.12499500507E+03 0.  0.
          2    1    1    2  501    0 -0.25109646509E+02  0.67421333270E+01 -0.62505054927E+03  0.62559103243E+03  0.00000000000E+00 0. -1.
          1    1    1    2  502    0  0.11197184569E+03  0.32390671632E+03  0.62266527102E+02  0.34832510031E+03  0.00000000000E+00 0. -1.
         22    1    3    3    0    0 -0.63863785262E+02 -0.87042384360E+02 -0.49093299803E+02  0.11859642418E+03  0.00000000000E+00 0. -1.
         22    1    3    3    0    0 -0.22998413915E+02 -0.24360646529E+03 -0.28323209140E+03  0.37429060177E+03  0.00000000000E+00 0. -1.
</event>
<event>
 7    1  0.8278507E-006  0.2125125E+03  0.7818608E-02  0.1187911E+00
          2   -1    0    0  502    0  0.00000000000E+00  0.00000000000E+00  0.27513378139E+03  0.27513378139E+03  0.00000000000E+00 0. -1.
          1   -1    0    0  501    0 -0.00000000000E+00 -0.00000000000E+00 -0.10413684467E+04  0.10413684467E+04  0.00000000000E+00 0. -1.
         25    2    1    2    0    0  0.11476821765E+03  0.43647710332E+02 -0.10832790227E+03  0.20600362458E+03  0.12500277009E+03 0.  0.
          2    1    1    2  501    0 -0.23130158759E+03 -0.78089496522E+02 -0.84935408918E+03  0.88374247533E+03  0.00000000000E+00 0. -1.
          1    1    1    2  502    0  0.11653336994E+03  0.34441786190E+02  0.19144732618E+03  0.22675612813E+03  0.00000000000E+00 0. -1.
         22    1    3    3    0    0 -0.59284848405E+01  0.51299016162E+02 -0.49432116331E+02  0.71486153321E+02  0.00000000000E+00 0.  1.
         22    1    3    3    0    0  0.12069670249E+03 -0.76513058294E+01 -0.58895785937E+02  0.13451747126E+03  0.00000000000E+00 0.  1.
</event>
<event>
 7    1  0.8278507E-006  0.6796088E+02  0.7818608E-02  0.1401505E+00
          2   -1    0    0  502    0  0.00000000000E+00  0.00000000000E+00  0.90098083861E+03  0.90098083861E+03  0.00000000000E+00 0. -1.
          1   -1    0    0  501    0 -0.00000000000E+00 -0.00000000000E+00 -0.60329802433E+03  0.60329802433E+03  0.00000000000E+00 0. -1.
         25    2    1    2    0    0 -0.19375472944E+02  0.59899526886E+01 -0.65282634599E+02  0.14247364938E+03  0.12500251958E+03 0.  0.
          2    1    1    2  501    0 -0.29553749024E+02  0.42117938396E+02 -0.49672398237E+03  0.49938167716E+03  0.00000000000E+00 0. -1.
          1    1    1    2  502    0  0.48929221969E+02 -0.48107891085E+02  0.85968943125E+03  0.86242353640E+03  0.00000000000E+00 0. -1.
         22    1    3    3    0    0  0.15132745806E+02  0.11680175416E+01 -0.95289184759E+02  0.96490377721E+02  0.00000000000E+00 0. -1.
         22    1    3    3    0    0 -0.34508218750E+02  0.48219351470E+01  0.30006550161E+02  0.45983271658E+02  0.00000000000E+00 0. -1.
</event>
<event>
 7    1  0.8814448E-006  0.4736097E+02  0.7818608E-02  0.1477539E+00
          2   -1    0    0  502    0  0.00000000000E+00  0.00000000000E+00  0.10070329220E+04  0.10070329220E+04  0.00000000000E+00 0. -1.
          1   -1    0    0  501    0 -0.00000000000E+00 -0.00000000000E+00 -0.80124901868E+03  0.80124901868E+03  0.00000000000E+00 0. -1.
         25    2    1    2    0    0  0.77822780315E+02  0.26119068443E+02 -0.46244374597E+03  0.48602119752E+03  0.12499518143E+03 0.  0.
          2    1    1    2  501    0 -0.41573852654E+02  0.43080341190E+01 -0.32511534396E+03  0.32779098716E+03  0.00000000000E+00 0. -1.
          1    1    1    2  502    0 -0.36248927661E+02 -0.30427102562E+02  0.99334299325E+03  0.99446975598E+03  0.00000000000E+00 0. -1.
         22    1    3    3    0    0 -0.20129608014E+01  0.19485232702E+02 -0.32073781031E+01  0.19849775287E+02  0.00000000000E+00 0. -1.
         22    1    3    3    0    0  0.79835741116E+02  0.66338357408E+01 -0.45923636787E+03  0.46617142224E+03  0.00000000000E+00 0. -1.
</event>
<event>
 7    1  0.8278507E-006  0.1878792E+03  0.7818608E-02  0.1306701E+00
          2   -1    0    0  502    0  0.00000000000E+00  0.00000000000E+00  0.39257394520E+03  0.39257394520E+03  0.00000000000E+00 0. -1.
          1   -1    0    0  501    0 -0.00000000000E+00 -0.00000000000E+00 -0.16435177080E+04  0.16435177080E+04  0.00000000000E+00 0. -1.
         25    2    1    2    0    0  0.16083698731E+03 -0.11852921512E+03 -0.46787230450E+03  0.52388718728E+03  0.12504231421E+03 0.  0.
          2    1    1    2  501    0 -0.35817015561E+02 -0.21199796788E+02 -0.11231201379E+04  0.11238910686E+04  0.00000000000E+00 0. -1.
          1    1    1    2  502    0 -0.12501997175E+03  0.13972901191E+03  0.34004867954E+03  0.38831339735E+03  0.00000000000E+00 0. -1.
         22    1    3    3    0    0 -0.76391888175E+01 -0.25492941679E+02 -0.12274385565E+02  0.29307129205E+02  0.00000000000E+00 0.  1.
         22    1    3    3    0    0  0.16847617613E+03 -0.93036273445E+02 -0.45559791894E+03  0.49458005807E+03  0.00000000000E+00 0.  1.
</event>
<event>
 7    1  0.8278507E-006  0.8727996E+02  0.7818608E-02  0.1365040E+00
          2   -1    0    0  502    0  0.00000000000E+00  0.00000000000E+00  0.91273794028E+03  0.91273794028E+03  0.00000000000E+00 0. -1.
          1   -1    0    0  501    0 -0.00000000000E+00 -0.00000000000E+00 -0.12472365905E+04  0.12472365905E+04  0.00000000000E+00 0. -1.
         25    2    1    2    0    0 -0.11311016083E+03 -0.53442301760E+02 -0.68687503511E+03  0.70927574303E+03  0.12499911075E+03 0.  0.
          2    1    1    2  501    0  0.59276530003E+02  0.51639166069E+02 -0.54553646990E+03  0.55117179761E+03  0.00000000000E+00 0. -1.
          1    1    1    2  502    0  0.53833630830E+02  0.18031356908E+01  0.89791285482E+03  0.89952699012E+03  0.00000000000E+00 0. -1.
         22    1    3    3    0    0 -0.33229022862E+02 -0.25785999101E+02 -0.44009796967E+02  0.60876497428E+02  0.00000000000E+00 0. -1.
         22    1    3    3    0    0 -0.79881137972E+02 -0.27656302659E+02 -0.64286523815E+03  0.64839924560E+03  0.00000000000E+00 0. -1.
</event>
<event>
 7    1  0.8278507E-006  0.1062738E+03  0.7818608E-02  0.1440763E+00
          2   -1    0    0  502    0  0.00000000000E+00  0.00000000000E+00  0.15595761258E+04  0.15595761258E+04  0.00000000000E+00 0. -1.
          1   -1    0    0  501    0 -0.00000000000E+00 -0.00000000000E+00 -0.37803818802E+03  0.37803818802E+03  0.00000000000E+00 0. -1.
         25    2    1    2    0    0 -0.61763566507E+02  0.10940881399E+03 -0.10697142884E+03  0.20701334277E+03  0.12500644291E+03 0.  0.
          2    1    1    2  501    0  0.46295490265E+02 -0.90616729871E+02 -0.20923069110E+03  0.23266316049E+03  0.00000000000E+00 0. -1.
          1    1    1    2  502    0  0.15468076242E+02 -0.18792084120E+02  0.14977400577E+04  0.14979378106E+04  0.00000000000E+00 0. -1.
         22    1    3    3    0    0 -0.33829969066E+02  0.13461354158E+03 -0.75763846300E+02  0.15813106206E+03  0.00000000000E+00 0.  1.
         22    1    3    3    0    0 -0.27933597442E+02 -0.25204727588E+02 -0.31207582541E+02  0.48882280705E+02  0.00000000000E+00 0.  1.
</event>
<event>
 7    1  0.8278507E-006  0.9592008E+02  0.7818608E-02  0.1340182E+00
          2   -1    0    0  502    0  0.00000000000E+00  0.00000000000E+00  0.15350704149E+03  0.15350704149E+03  0.00000000000E+00 0. -1.
          1   -1    0    0  501    0 -0.00000000000E+00 -0.00000000000E+00 -0.45251050862E+03  0.45251050862E+03  0.00000000000E+00 0. -1.
         25    2    1    2    0    0 -0.99746179154E+00 -0.48131160220E+02 -0.30330475958E+03  0.33156488060E+03  0.12499555732E+03 0.  0.
          2    1    1    2  501    0 -0.46492306986E+02 -0.38777067952E+02 -0.10855971246E+03  0.12429966524E+03  0.00000000000E+00 0. -1.
          1    1    1    2  502    0  0.47489768778E+02  0.86908228172E+02  0.11286100491E+03  0.15015300427E+03  0.00000000000E+00 0. -1.
         22    1    3    3    0    0  0.14075357111E+02 -0.88169034515E+02 -0.17761373754E+03  0.19879269123E+03  0.00000000000E+00 0.  1.
         22    1    3    3    0    0 -0.15072818902E+02  0.40037874295E+02 -0.12569102204E+03  0.13277218937E+03  0.00000000000E+00 0.  1.
</event>
<event>
 7    1  0.8278507E-006  0.5449001E+02  0.7818608E-02  0.1533028E+00
          2   -1    0    0  502    0  0.00000000000E+00  0.00000000000E+00  0.59890867562E+03  0.59890867562E+03  0.00000000000E+00 0. -1.
          1   -1    0    0  501    0 -0.00000000000E+00 -0.00000000000E+00 -0.23237621153E+03  0.23237621153E+03  0.00000000000E+00 0. -1.
         25    2    1    2    0    0 -0.71282020434E+02  0.28060041672E+02  0.19158324151E+03  0.24124286237E+03  0.12500195134E+03 0.  0.
          2    1    1    2  501    0  0.20122685335E+02 -0.14626246764E+02 -0.20496211202E+03  0.20646626098E+03  0.00000000000E+00 0. -1.
          1    1    1    2  502    0  0.51159335100E+02 -0.13433794908E+02  0.37991133460E+03  0.38357576380E+03  0.00000000000E+00 0. -1.
         22    1    3    3    0    0  0.42416695476E+01  0.55038330634E+02  0.12628844767E+03  0.13782591054E+03  0.00000000000E+00 0.  1.
         22    1    3    3    0    0 -0.75523689982E+02 -0.26978288962E+02  0.65294793835E+02  0.10341695183E+03  0.00000000000E+00 0.  1.
</event>
<event>
 7    1  0.8278507E-006  0.1526125E+03  0.7818608E-02  0.1254652E+00
          2   -1    0    0  502    0  0.00000000000E+00  0.00000000000E+00  0.16415136656E+04  0.16415136656E+04  0.00000000000E+00 0. -1.
          1   -1    0    0  501    0 -0.00000000000E+00 -0.00000000000E+00 -0.56764443628E+03  0.56764443628E+03  0.00000000000E+00 0. -1.
         25    2    1    2    0    0  0.79440404538E+02 -0.60875242495E+02  0.29205438288E+02  0.16277240028E+03  0.12500129458E+03 0.  0.
          2    1    1    2  501    0  0.75243954336E+02  0.37459744211E+02 -0.49333819837E+03  0.50044726303E+03  0.00000000000E+00 0. -1.
          1    1    1    2  502    0 -0.15468435887E+03  0.23415498284E+02  0.15380019894E+04  0.15459384386E+04  0.00000000000E+00 0. -1.
         22    1    3    3    0    0  0.17453175757E+02 -0.89205980624E+02  0.25999074732E+02  0.94542436028E+02  0.00000000000E+00 0. -1.
         22    1    3    3    0    0  0.61987228781E+02  0.28330738130E+02  0.32063635552E+01  0.68229964255E+02  0.00000000000E+00 0. -1.
</event>
<event>
 7    1  0.8278507E-006  0.2405377E+03  0.7818608E-02  0.1274789E+00
          2   -1    0    0  502    0  0.00000000000E+00  0.00000000000E+00  0.72603842468E+03  0.72603842468E+03  0.00000000000E+00 0. -1.
          1   -1    0    0  501    0 -0.00000000000E+00 -0.00000000000E+00 -0.97951883567E+03  0.97951883567E+03  0.00000000000E+00 0. -1.
         25    2    1    2    0    0 -0.18875545139E+03  0.85543670780E+02  0.52134298674E+01  0.24207372427E+03  0.12500467227E+03 0.  0.
          2    1    1    2  501    0 -0.28895784003E+02  0.32941450556E+02 -0.83500377476E+03  0.83615274284E+03  0.00000000000E+00 0. -1.
          1    1    1    2  502    0  0.21765123539E+03 -0.11848512134E+03  0.57630993390E+03  0.62733079325E+03  0.00000000000E+00 0. -1.
         22    1    3    3    0    0  0.65757209698E+01  0.38017560946E+02  0.13493100065E+02  0.40873448545E+02  0.00000000000E+00 0.  1.
         22    1    3    3    0    0 -0.19533117236E+03  0.47526109834E+02 -0.82796701974E+01  0.20120027572E+03  0.00000000000E+00 0.  1.
</event>
<event>
 7    1  0.8278507E-006  0.2546458E+03  0.7818608E-02  0.1130041E+00
          2   -1    0    0  502    0  0.00000000000E+00  0.00000000000E+00  0.55489581277E+03  0.55489581277E+03  0.00000000000E+00 0. -1.
          1   -1    0    0  501    0 -0.00000000000E+00 -0.00000000000E+00 -0.31548935048E+03  0.31548935048E+03  0.00000000000E+00 0. -1.
         25    2    1    2    0    0  0.89127055242E+02  0.10753877861E+03 -0.32170228691E+02  0.19017954881E+03  0.12500046516E+03 0.  0.
          2    1    1    2  501    0  0.18895339120E+03  0.63114895339E+02 -0.66834022963E+02  0.21012772469E+03  0.00000000000E+00 0. -1.
          1    1    1    2  502    0 -0.27808044644E+03 -0.17065367395E+03  0.33841071394E+03  0.47007788975E+03  0.00000000000E+00 0. -1.
         22    1    3    3    0    0  0.19090506852E+02  0.36840561466E+02  0.47231586120E+02  0.62868888557E+02  0.00000000000E+00 0. -1.
         22    1    3    3    0    0  0.70036548390E+02  0.70698217145E+02 -0.79401814811E+02  0.12731066025E+03  0.00000000000E+00 0. -1.
</event>
<event>
 7    1  0.8278507E-006  0.4526377E+02  0.7818608E-02  0.1513400E+00
          2   -1    0    0  502    0  0.00000000000E+00  0.00000000000E+00  0.12351772144E+04  0.12351772144E+04  0.00000000000E+00 0. -1.
          1   -1    0    0  501    0 -0.00000000000E+00 -0.00000000000E+00 -0.42202865817E+03  0.42202865817E+03  0.00000000000E+00 0. -1.
         25    2    1    2    0    0 -0.26611554039E+02  0.42650307037E+02 -0.46749563446E+02  0.14261083036E+03  0.12500041502E+03 0.  0.
          2    1    1    2  501    0  0.43589735656E+02 -0.13044990533E+02 -0.32552062251E+03  0.32868512670E+03  0.00000000000E+00 0. -1.
          1    1    1    2  502    0 -0.16978181617E+02 -0.29605316503E+02  0.11854187422E+04  0.11859099155E+04  0.00000000000E+00 0. -1.
         22    1    3    3    0    0 -0.38879588904E+02  0.23373020437E+02 -0.85978515807E+02  0.97212271335E+02  0.00000000000E+00 0.  1.
         22    1    3    3    0    0  0.12268034865E+02  0.19277286599E+02  0.39228952361E+02  0.45398559024E+02  0.00000000000E+00 0.  1.
</event>
<event>
 7    1  0.8278507E-006  0.8133870E+02  0.7818608E-02  0.1426722E+00
          2   -1    0    0  502    0  0.00000000000E+00  0.00000000000E+00  0.25918380390E+04  0.25918380390E+04  0.00000000000E+00 0. -1.
          1   -1    0    0  501    0 -0.00000000000E+00 -0.00000000000E+00 -0.29783972256E+03  0.29783972256E+03  0.00000000000E+00 0. -1.
         25    2    1    2    0    0 -0.63905625492E+02  0.18671881607E+02  0.68094327640E+03  0.69551423361E+03  0.12499494129E+03 0.  0.
          2    1    1    2  501    0 -0.24400795692E+00  0.35351276203E+02 -0.28855122482E+03  0.29070875737E+03  0.00000000000E+00 0. -1.
          1    1    1    2  502    0  0.64149633449E+02 -0.54023157810E+02  0.19016062649E+04  0.19034547706E+04  0.00000000000E+00 0. -1.
         22    1    3    3    0    0  0.34935555987E+02 -0.12403246747E+02  0.21682229064E+03  0.21996872350E+03  0.00000000000E+00 0.  1.
         22    1    3    3    0    0 -0.98841181479E+02  0.31075128354E+02  0.46412098576E+03  0.47554551011E+03  0.00000000000E+00 0.  1.
</event>
<event>
 7    1  0.8278507E-006  0.1079389E+03  0.7818608E-02  0.1333581E+00
          2   -1    0    0  502    0  0.00000000000E+00  0.00000000000E+00  0.19656920572E+04  0.19656920572E+04  0.00000000000E+00 0. -1.
          1   -1    0    0  501    0 -0.00000000000E+00 -0.00000000000E+00 -0.21656260057E+03  0.21656260057E+03  0.00000000000E+00 0. -1.
         25    2    1    2    0    0 -0.15780087457E+03 -0.36793910268E+02  0.53550702129E+03  0.57327442444E+03  0.12498355098E+03 0.  0.
          2    1    1    2  501    0  0.10565233665E+03  0.13828457572E+02 -0.18269678656E+03  0.21149883758E+03  0.00000000000E+00 0. -1.
          1    1    1    2  502    0  0.52148537915E+02  0.22965452696E+02  0.13963192219E+04  0.13974813957E+04  0.00000000000E+00 0. -1.
         22    1    3    3    0    0 -0.15075314302E+03 -0.72618076513E+02  0.41887265610E+03  0.45105897308E+03  0.00000000000E+00 0.  1.
         22    1    3    3    0    0 -0.70477315470E+01  0.35824166245E+02  0.11663436518E+03  0.12221545135E+03  0.00000000000E+00 0.  1.
</event>
<event>
 7    1  0.8278507E-006  0.8938623E+02  0.7818608E-02  0.1361142E+00
          2   -1    0    0  502    0  0.00000000000E+00  0.00000000000E+00  0.93654721756E+03  0.93654721756E+03  0.00000000000E+00 0. -1.
          1   -1    0    0  501    0 -0.00000000000E+00 -0.00000000000E+00 -0.99841647593E+03  0.99841647593E+03  0.00000000000E+00 0. -1.
         25    2    1    2    0    0  0.45538788845E+02 -0.29923100530E+02  0.32506866708E+03  0.35250750734E+03  0.12499092440E+03 0.  0.
          2    1    1    2  501    0  0.53596641316E+02  0.89432561320E+01 -0.97964436900E+03  0.98115017785E+03  0.00000000000E+00 0. -1.
          1    1    1    2  502    0 -0.99135430161E+02  0.20979844398E+02  0.59270644355E+03  0.60130600829E+03  0.00000000000E+00 0. -1.
         22    1    3    3    0    0 -0.90376549026E-01  0.46922576294E+02  0.10707551472E+03  0.11690552676E+03  0.00000000000E+00 0.  1.
         22    1    3    3    0    0  0.45629165394E+02 -0.76845676824E+02  0.21799315236E+03  0.23560198059E+03  0.00000000000E+00 0.  1.
</event>
<event>
 7    1  0.8278507E-006  0.6874062E+02  0.7818608E-02  0.1365708E+00
          2   -1    0    0  502    0  0.00000000000E+00  0.00000000000E+00  0.24247061190E+02  0.24247061190E+02  0.00000000000E+00 0. -1.
          1   -1    0    0  501    0 -0.00000000000E+00 -0.00000000000E+00 -0.18008330791E+04  0.18008330791E+04  0.00000000000E+00 0. -1.
         25    2    1    2    0    0 -0.22000488551E+02 -0.11326298290E+02 -0.59508592512E+03  0.60857654127E+03  0.12500336709E+03 0.  0.
          2    1    1    2  501    0  0.68860535977E+02 -0.38966930336E+02 -0.11242898250E+04  0.11270704528E+04  0.00000000000E+00 0. -1.
          1    1    1    2  502    0 -0.46860047426E+02  0.50293228625E+02 -0.57210267741E+02  0.89433146122E+02  0.00000000000E+00 0. -1.
         22    1    3    3    0    0 -0.72308924330E+02 -0.56048436058E+01 -0.42390275768E+03  0.43006225454E+03  0.00000000000E+00 0.  1.
         22    1    3    3    0    0  0.50308435779E+02 -0.57214546839E+01 -0.17118316743E+03  0.17851428673E+03  0.00000000000E+00 0.  1.
</event>
<event>
 7    1  0.8278507E-006  0.1139164E+03  0.7818608E-02  0.1399462E+00
          2   -1    0    0  502    0  0.00000000000E+00  0.00000000000E+00  0.21161100877E+04  0.21161100877E+04  0.00000000000E+00 0. -1.
          1   -1    0    0  501    0 -0.00000000000E+00 -0.00000000000E+00 -0.61913497546E+03  0.61913497546E+03  0.00000000000E+00 0. -1.
         25    2    1    2    0    0  0.67310027979E+02  0.88906874144E+02 -0.33756892453E+03  0.37684658334E+03  0.12500198571E+03 0.  0.
          2    1    1    2  501    0 -0.93021555645E+02 -0.71240471375E+02 -0.24870151522E+03  0.27491936681E+03  0.00000000000E+00 0. -1.
          1    1    1    2  502    0  0.25711527666E+02 -0.17666402768E+02  0.20832455520E+04  0.20834791130E+04  0.00000000000E+00 0. -1.
         22    1    3    3    0    0  0.20255086729E+01 -0.26589836764E+02 -0.11221008506E+03  0.11533527342E+03  0.00000000000E+00 0.  1.
         22    1    3    3    0    0  0.65284519306E+02  0.11549671091E+03 -0.22535883947E+03  0.26151130992E+03  0.00000000000E+00 0.  1.
</event>
<event>
 7    1  0.1040095E-005  0.9927228E+02  0.7818608E-02  0.1308190E+00
          2   -1    0    0  502    0  0.00000000000E+00  0.00000000000E+00  0.11384063292E+04  0.11384063292E+04  0.00000000000E+00 0. -1.
          1   -1    0    0  501    0 -0.00000000000E+00 -0.00000000000E+00 -0.99112109948E+03  0.99112109948E+03  0.00000000000E+00 0. -1.
         25    2    1    2    0    0 -0.14910994187E+03  0.55888611833E+02 -0.12219923247E+03  0.23646335347E+03  0.12499981369E+03 0.  0.
          2    1    1    2  501    0  0.96744859243E+02  0.15271674996E+01 -0.80750178831E+03  0.81327795873E+03  0.00000000000E+00 0. -1.
          1    1    1    2  502    0  0.52365082624E+02 -0.57415779332E+02  0.10769862505E+04  0.10797861165E+04  0.00000000000E+00 0. -1.
         22    1    3    3    0    0 -0.72150232565E+02  0.25246802398E+02 -0.13252176853E+03  0.15298717667E+03  0.00000000000E+00 0.  1.
         22    1    3    3    0    0 -0.76959709303E+02  0.30641809435E+02  0.10322536069E+02  0.83476176795E+02  0.00000000000E+00 0.  1.
</event>
<event>
 7    1  0.8278507E-006  0.6928017E+02  0.7818608E-02  0.1379585E+00
          2   -1    0    0  502    0  0.00000000000E+00  0.00000000000E+00  0.28971261447E+04  0.28971261447E+04  0.00000000000E+00 0. -1.
          1   -1    0    0  501    0 -0.00000000000E+00 -0.00000000000E+00 -0.25433506597E+03  0.25433506597E+03  0.00000000000E+00 0. -1.
         25    2    1    2    0    0 -0.83518621798E+02  0.57929094586E+02  0.14290874711E+03  0.21535621269E+03  0.12499699260E+03 0.  0.
          2    1    1    2  501    0  0.14411671730E+02 -0.58434551029E+02 -0.21351108528E+03  0.22183164016E+03  0.00000000000E+00 0. -1.
          1    1    1    2  502    0  0.69106950068E+02  0.50545644353E+00  0.27133934169E+04  0.27142733578E+04  0.00000000000E+00 0. -1.
         22    1    3    3    0    0  0.19021731407E+02  0.54033750908E+02  0.64131552500E+02  0.85990281596E+02  0.00000000000E+00 0. -1.
         22    1    3    3    0    0 -0.10254035321E+03  0.38953436773E+01  0.78777194611E+02  0.12936593110E+03  0.00000000000E+00 0. -1.
</event>
<event>
 7    1  0.8278507E-006  0.1007233E+03  0.7818608E-02  0.1437526E+00
          2   -1    0    0  502    0  0.00000000000E+00  0.00000000000E+00  0.79973489397E+03  0.79973489397E+03  0.00000000000E+00 0. -1.
          1   -1    0    0  501    0 -0.00000000000E+00 -0.00000000000E+00 -0.63610712308E+02  0.63610712308E+02  0.00000000000E+00 0. -1.
         25    2    1    2    0    0  0.10645018908E+03 -0.24022573957E+02  0.85770277189E+02  0.18679087471E+03  0.12500225442E+03 0.  0.
          2    1    1    2  501    0 -0.16555977732E+02 -0.20448114678E+02  0.96118000439E+01  0.28010935233E+02  0.00000000000E+00 0. -1.
          1    1    1    2  502    0 -0.89894211343E+02  0.44470688635E+02  0.64074210443E+03  0.64854379634E+03  0.00000000000E+00 0. -1.
         22    1    3    3    0    0  0.13296661826E+03 -0.17092497428E+02  0.86196681093E+02  0.15938049715E+03  0.00000000000E+00 0.  1.
         22    1    3    3    0    0 -0.26516429186E+02 -0.69300765285E+01 -0.42640390468E+00  0.27410377556E+02  0.00000000000E+00 0.  1.
</event>
<event>
 7    1  0.8278507E-006  0.2606987E+02  0.7818608E-02  0.1671355E+00
          2   -1    0    0  502    0  0.00000000000E+00  0.00000000000E+00  0.78930012942E+03  0.78930012942E+03  0.00000000000E+00 0. -1.
          1   -1    0    0  501    0 -0.00000000000E+00 -0.00000000000E+00 -0.32281844255E+03  0.32281844255E+03  0.00000000000E+00 0. -1.
         25    2    1    2    0    0 -0.21038418934E+02  0.32597617771E+02  0.26576904934E+03  0.29625255873E+03  0.12500868454E+03 0.  0.
          2    1    1    2  501    0  0.23998723421E+02 -0.10152927769E+02 -0.30677196419E+03  0.30787669396E+03  0.00000000000E+00 0. -1.
          1    1    1    2  502    0 -0.29603044871E+01 -0.22444690001E+02  0.50748460173E+03  0.50798931928E+03  0.00000000000E+00 0. -1.
         22    1    3    3    0    0 -0.57979085055E+02 -0.13520945592E+02  0.70685918182E+02  0.92416931905E+02  0.00000000000E+00 0. -1.
         22    1    3    3    0    0  0.36940666121E+02  0.46118563363E+02  0.19508313116E+03  0.20383562682E+03  0.00000000000E+00 0. -1.
</event>
<event>
 7    1  0.8278507E-006  0.7861812E+02  0.7818608E-02  0.1388292E+00
          2   -1    0    0  502    0  0.00000000000E+00  0.00000000000E+00  0.22494851612E+04  0.22494851612E+04  0.00000000000E+00 0. -1.
          1   -1    0    0  501    0 -0.00000000000E+00 -0.00000000000E+00 -0.20464001482E+03  0.20464001482E+03  0.00000000000E+00 0. -1.
         25    2    1    2    0    0  0.11228646527E+03 -0.86527794132E+01 -0.28750995604E+02  0.17067175943E+03  0.12497643315E+03 0.  0.
          2    1    1    2  501    0 -0.37476631979E+02  0.32218729371E+02 -0.98361702901E+02  0.11007983042E+03  0.00000000000E+00 0. -1.
          1    1    1    2  502    0 -0.74809833294E+02 -0.23565949957E+02  0.21719578449E+04  0.21733735861E+04  0.00000000000E+00 0. -1.
         22    1    3    3    0    0  0.47382985617E+02 -0.99342227781E+01  0.49338100744E+02  0.69123688365E+02  0.00000000000E+00 0. -1.
         22    1    3    3    0    0  0.64903479656E+02  0.12814433649E+01 -0.78089096348E+02  0.10154807106E+03  0.00000000000E+00 0. -1.
</event>
<event>
 7    1  0.8278507E-006  0.1429312E+03  0.7818608E-02  0.1347556E+00
          2   -1    0    0  502    0  0.00000000000E+00  0.00000000000E+00  0.88245946390E+03  0.88245946390E+03  0.00000000000E+00 0. -1.
          1   -1    0    0  501    0 -0.00000000000E+00 -0.00000000000E+00 -0.14981047710E+04  0.14981047710E+04  0.00000000000E+00 0. -1.
         25    2    1    2    0    0  0.15522031669E+03 -0.11096006928E+02 -0.31298509565E+02  0.20204700756E+03  0.12500771367E+03 0.  0.
          2    1    1    2  501    0 -0.14793668325E+02  0.35141940621E+02 -0.13747993104E+04  0.13753279436E+04  0.00000000000E+00 0. -1.
          1    1    1    2  502    0 -0.14042664837E+03 -0.24045933694E+02  0.79045251283E+03  0.80318928376E+03  0.00000000000E+00 0. -1.
         22    1    3    3    0    0 -0.12336480764E+02  0.19820476640E+02  0.11995422344E+02  0.26247480052E+02  0.00000000000E+00 0. -1.
         22    1    3    3    0    0  0.16755679746E+03 -0.30916483568E+02 -0.43293931909E+02  0.17579952750E+03  0.00000000000E+00 0. -1.
</event>
<event>
 7    1  0.8278507E-006  0.2233038E+03  0.7818608E-02  0.1260645E+00
          2   -1    0    0  502    0  0.00000000000E+00  0.00000000000E+00  0.13929595498E+04  0.13929595498E+04  0.00000000000E+00 0. -1.
          1   -1    0    0  501    0 -0.00000000000E+00 -0.00000000000E+00 -0.26485571617E+04  0.26485571617E+04  0.00000000000E+00 0. -1.
         25    2    1    2    0    0 -0.20002616671E+03 -0.11657032620E+03  0.52843222268E+03  0.59030988548E+03  0.12500415435E+03 0.  0.
          2    1    1    2  501    0  0.21385373327E+03  0.64219453793E+02 -0.26119706633E+04  0.26214973400E+04  0.00000000000E+00 0. -1.
          1    1    1    2  502    0 -0.13827566568E+02  0.52350872407E+02  0.82794082869E+03  0.82970948605E+03  0.00000000000E+00 0. -1.
         22    1    3    3    0    0 -0.84466696193E+02 -0.23062554734E+02  0.33558266488E+03  0.34681728499E+03  0.00000000000E+00 0. -1.
         22    1    3    3    0    0 -0.11555947051E+03 -0.93507771466E+02  0.19284955780E+03  0.24349260049E+03  0.00000000000E+00 0. -1.
</event>
<event>
 7    1  0.8278507E-006  0.6908450E+02  0.7818608E-02  0.1369582E+00
          2   -1    0    0  502    0  0.00000000000E+00  0.00000000000E+00  0.17967452558E+04  0.17967452558E+04  0.00000000000E+00 0. -1.
          1   -1    0    0  501    0 -0.00000000000E+00 -0.00000000000E+00 -0.55644674154E+02  0.55644674154E+02  0.00000000000E+00 0. -1.
         25    2    1    2    0    0 -0.10504294271E+03  0.61141180634E+02  0.40109398314E+03  0.43734809510E+03  0.12499883679E+03 0.  0.
          2    1    1    2  501    0  0.38438597250E+02 -0.53071334288E+02 -0.74180894774E+01  0.65947860717E+02  0.00000000000E+00 0. -1.
          1    1    1    2  502    0  0.66604345456E+02 -0.80698463459E+01  0.13474246880E+04  0.13490939741E+04  0.00000000000E+00 0. -1.
         22    1    3    3    0    0  0.20511176469E+02 -0.15889522865E+02  0.44223472519E+02  0.51272807790E+02  0.00000000000E+00 0. -1.
         22    1    3    3    0    0 -0.12555411917E+03  0.77030703499E+02  0.35687051062E+03  0.38607528731E+03  0.00000000000E+00 0. -1.
</event>
<event>
 7    1  0.8278507E-006  0.1587324E+03  0.7818608E-02  0.1228875E+00
          2   -1    0    0  502    0  0.00000000000E+00  0.00000000000E+00  0.16401269284E+04  0.16401269284E+04  0.00000000000E+00 0. -1.
          1   -1    0    0  501    0 -0.00000000000E+00 -0.00000000000E+00 -0.19841591588E+04  0.19841591588E+04  0.00000000000E+00 0. -1.
         25    2    1    2    0    0  0.24224851655E+03 -0.99813309091E+02  0.21585232432E+03  0.36175044027E+03  0.12499645867E+03 0.  0.
          2    1    1    2  501    0 -0.14254610611E+03  0.67156160414E+02 -0.19059175158E+04  0.19124201733E+04  0.00000000000E+00 0. -1.
          1    1    1    2  502    0 -0.99702410446E+02  0.32657148677E+02  0.13460329611E+04  0.13501154737E+04  0.00000000000E+00 0. -1.
         22    1    3    3    0    0  0.91645678233E+01 -0.34593096526E+02  0.71448204568E+02  0.79909433527E+02  0.00000000000E+00 0. -1.
         22    1    3    3    0    0  0.23308394873E+03 -0.65220212565E+02  0.14440411975E+03  0.28184100674E+03  0.00000000000E+00 0. -1.
</event>
<event>
 7    1  0.8278507E-006  0.2180639E+03  0.7818608E-02  0.1237043E+00
          2   -1    0    0  502    0  0.00000000000E+00  0.00000000000E+00  0.46447776769E+03  0.46447776769E+03  0.00000000000E+00 0. -1.
          1   -1    0    0  501    0 -0.00000000000E+00 -0.00000000000E+00 -0.70553860568E+03  0.70553860568E+03  0.00000000000E+00 0. -1.
         25    2    1    2    0    0  0.80854693386E+02  0.24558958356E+03 -0.11148922279E+03  0.30806715993E+03  0.12499521284E+03 0.  0.
          2    1    1    2  501    0 -0.10720063868E+03 -0.18049655748E+03 -0.46978878439E+03  0.51456047860E+03  0.00000000000E+00 0. -1.
          1    1    1    2  502    0  0.26345945297E+02 -0.65093026085E+02  0.34021716919E+03  0.34738873484E+03  0.00000000000E+00 0. -1.
         22    1    3    3    0    0  0.96691374604E+02  0.20635588309E+03 -0.49801149747E+02  0.23326407122E+03  0.00000000000E+00 0.  1.
         22    1    3    3    0    0 -0.15836681218E+02  0.39233700478E+02 -0.61688073039E+02  0.74803088709E+02  0.00000000000E+00 0.  1.
</event>
<event>
 7    1  0.8278507E-006  0.1421659E+03  0.7818608E-02  0.1214693E+00
          2   -1    0    0  502    0  0.00000000000E+00  0.00000000000E+00  0.28995940488E+04  0.28995940488E+04  0.00000000000E+00 0. -1.
          1   -1    0    0  501    0 -0.00000000000E+00 -0.00000000000E+00 -0.24099546166E+04  0.24099546166E+04  0.00000000000E+00 0. -1.
         25    2    1    2    0    0  0.20828930770E+03 -0.49655684007E+00  0.12322796526E+03  0.27239184987E+03  0.12501002433E+03 0.  0.
          2    1    1    2  501    0 -0.10798806546E+03  0.92174608771E+02 -0.23315032595E+04  0.23358221315E+04  0.00000000000E+00 0. -1.
          1    1    1    2  502    0 -0.10030124224E+03 -0.91678051931E+02  0.26979147264E+04  0.27013346841E+04  0.00000000000E+00 0. -1.
         22    1    3    3    0    0  0.19090019114E+03  0.40884081003E+02  0.83082651563E+02  0.21217237815E+03  0.00000000000E+00 0.  1.
         22    1    3    3    0    0  0.17389116557E+02 -0.41380637843E+02  0.40145313702E+02  0.60219471728E+02  0.00000000000E+00 0.  1.
</event>
<event>
 7    1  0.8278507E-006  0.6377192E+02  0.7818608E-02  0.1474608E+00
          2   -1    0    0  502    0  0.00000000000E+00  0.00000000000E+00  0.31702413824E+04  0.31702413824E+04  0.00000000000E+00 0. -1.
          1   -1    0    0  501    0 -0.00000000000E+00 -0.00000000000E+00 -0.29015169754E+03  0.29015169754E+03  0.00000000000E+00 0. -1.
         25    2    1    2    0    0  0.12867113386E+02  0.41911771378E+02  0.17389695351E+03  0.21860307723E+03  0.12499998299E+03 0.  0.
          2    1    1    2  501    0 -0.23407439557E+02  0.21367578381E+02 -0.26651364501E+03  0.26839151367E+03  0.00000000000E+00 0. -1.
          1    1    1    2  502    0  0.10540326171E+02 -0.63279349759E+02  0.29727063764E+04  0.29733984891E+04  0.00000000000E+00 0. -1.
         22    1    3    3    0    0 -0.45566023036E+02  0.45621143083E+02  0.13103594373E+03  0.14604098637E+03  0.00000000000E+00 0.  1.
         22    1    3    3    0    0  0.58433136422E+02 -0.37093717052E+01  0.42861009779E+02  0.72562090859E+02  0.00000000000E+00 0.  1.
</event>
<event>
 7    1  0.8278507E-006  0.5893293E+02  0.7818608E-02  0.1415529E+00
          2   -1    0    0  502    0  0.00000000000E+00  0.00000000000E+00  0.12117775309E+04  0.12117775309E+04  0.00000000000E+00 0. -1.
          1   -1    0    0  501    0 -0.00000000000E+00 -0.00000000000E+00 -0.10139941438E+04  0.10139941438E+04  0.00000000000E+00 0. -1.
         25    2    1    2    0    0 -0.10722469860E+03  0.13665949158E+02  0.18286627242E+03  0.24647292423E+03  0.12499973852E+03 0.  0.
          2    1    1    2  501    0  0.49747095232E+02 -0.18773779344E+02 -0.98063512320E+03  0.98207559441E+03  0.00000000000E+00 0. -1.
          1    1    1    2  502    0  0.57477603368E+02  0.51078301859E+01  0.99555223784E+03  0.99722315612E+03  0.00000000000E+00 0. -1.
         22    1    3    3    0    0 -0.33039516506E+02 -0.48100163953E+02  0.29834895620E+02  0.65538968712E+02  0.00000000000E+00 0. -1.
         22    1    3    3    0    0 -0.74185182095E+02  0.61766113111E+02  0.15303137680E+03  0.18093395551E+03  0.00000000000E+00 0. -1.
</event>
<event>
 7    1  0.8278507E-006  0.6051563E+02  0.7818608E-02  0.1410507E+00
          2   -1    0    0  502    0  0.00000000000E+00  0.00000000000E+00  0.49391903970E+03  0.49391903970E+03  0.00000000000E+00 0. -1.
          1   -1    0    0  501    0 -0.00000000000E+00 -0.00000000000E+00 -0.18040696730E+03  0.18040696730E+03  0.00000000000E+00 0. -1.
         25    2    1    2    0    0 -0.86496416042E+02 -0.66980344376E+02  0.25637804875E+03  0.30548745611E+03  0.12499954177E+03 0.  0.
          2    1    1    2  501    0  0.54740487858E+02  0.23501487326E+02 -0.14653064324E+03  0.15817733822E+03  0.00000000000E+00 0. -1.
          1    1    1    2  502    0  0.31755928183E+02  0.43478857050E+02  0.20366466689E+03  0.21066121267E+03  0.00000000000E+00 0. -1.
         22    1    3    3    0    0  0.30362092029E+02 -0.73908683383E+01  0.27220338035E+02  0.41441867355E+02  0.00000000000E+00 0.  1.
         22    1    3    3    0    0 -0.11685850807E+03 -0.59589476037E+02  0.22915771071E+03  0.26404558876E+03  0.00000000000E+00 0.  1.
</event>
<event>
 7    1  0.8278507E-006  0.3120541E+02  0.7818608E-02  0.1650993E+00
          2   -1    0    0  502    0  0.00000000000E+00  0.00000000000E+00  0.33173583700E+03  0.33173583700E+03  0.00000000000E+00 0. -1.
          1   -1    0    0  501    0 -0.00000000000E+00 -0.00000000000E+00 -0.43821312680E+03  0.43821312680E+03  0.00000000000E+00 0. -1.
         25    2    1    2    0    0  0.17234791290E+02  0.29915205191E+02 -0.81524757761E+01  0.12992701686E+03  0.12499043690E+03 0.  0.
          2    1    1    2  501    0  0.11555035553E+02 -0.17755334714E+02 -0.36796618424E+03  0.36857547871E+03  0.00000000000E+00 0. -1.
          1    1    1    2  502    0 -0.28789826843E+02 -0.12159870477E+02  0.26964137022E+03  0.27144646823E+03  0.00000000000E+00 0. -1.
         22    1    3    3    0    0  0.16975673637E+02  0.49110934001E+02  0.47904093394E+02  0.70674319931E+02  0.00000000000E+00 0. -1.
         22    1    3    3    0    0  0.25911765334E+00 -0.19195728810E+02 -0.56056569170E+02  0.59252696931E+02  0.00000000000E+00 0. -1.
</event>
<event>
 7    1  0.8278507E-006  0.5773827E+02  0.7818608E-02  0.1498207E+00
          2   -1    0    0  502    0  0.00000000000E+00  0.00000000000E+00  0.24235262100E+03  0.24235262100E+03  0.00000000000E+00 0. -1.
          1   -1    0    0  501    0 -0.00000000000E+00 -0.00000000000E+00 -0.59483789345E+03  0.59483789345E+03  0.00000000000E+00 0. -1.
         25    2    1    2    0    0 -0.26102737891E+02 -0.82313019920E+02 -0.14798715247E+03  0.21208993909E+03  0.12500063517E+03 0.  0.
          2    1    1    2  501    0  0.12854951284E+02  0.26745430888E+02 -0.41037442789E+03  0.41144591250E+03  0.00000000000E+00 0. -1.
          1    1    1    2  502    0  0.13247786607E+02  0.55567589032E+02  0.20587630791E+03  0.21365466286E+03  0.00000000000E+00 0. -1.
         22    1    3    3    0    0 -0.72235094653E+01  0.20647540071E+00  0.21476493593E+02  0.22659688836E+02  0.00000000000E+00 0.  1.
         22    1    3    3    0    0 -0.18879228426E+02 -0.82519495321E+02 -0.16946364607E+03  0.18943025026E+03  0.00000000000E+00 0.  1.
</event>
<event>
 7    1  0.8278507E-006  0.5346685E+02  0.7818608E-02  0.1470388E+00
          2   -1    0    0  502    0  0.00000000000E+00  0.00000000000E+00  0.54739199225E+03  0.54739199225E+03  0.00000000000E+00 0. -1.
          1   -1    0    0  501    0 -0.00000000000E+00 -0.00000000000E+00 -0.48437922117E+03  0.48437922117E+03  0.00000000000E+00 0. -1.
         25    2    1    2    0    0 -0.12038612612E+02  0.57617002646E+02  0.86480439025E+01  0.13844000833E+03  0.12500480013E+03 0.  0.
          2    1    1    2  501    0 -0.30234899543E+02 -0.24568199433E+02 -0.41705340497E+03  0.41886905850E+03  0.00000000000E+00 0. -1.
          1    1    1    2  502    0  0.42273512155E+02 -0.33048803213E+02  0.47141813215E+03  0.47446214658E+03  0.00000000000E+00 0. -1.
         22    1    3    3    0    0  0.16019214540E+02  0.31156702674E+02 -0.54297731304E+02  0.64618874803E+02  0.00000000000E+00 0.  1.
         22    1    3    3    0    0 -0.28057827152E+02  0.26460299972E+02  0.62945775207E+02  0.73821133529E+02  0.00000000000E+00 0.  1.
</event>
<event>
 7    1  0.8278507E-006  0.5874813E+02  0.7818608E-02  0.1541762E+00
          2   -1    0    0  502    0  0.00000000000E+00  0.00000000000E+00  0.16857419907E+04  0.16857419907E+04  0.00000000000E+00 0. -1.
          1   -1    0    0  501    0 -0.00000000000E+00 -0.00000000000E+00 -0.15964316155E+03  0.15964316155E+03  0.00000000000E+00 0. -1.
         25    2    1    2    0    0 -0.64697152038E+02  0.22687923118E+01  0.65206419329E+02  0.15513864056E+03  0.12500100709E+03 0.  0.
          2    1    1    2  501    0  0.54481127307E+02 -0.21520286359E+02 -0.10711599132E+03  0.12208665592E+03  0.00000000000E+00 0. -1.
          1    1    1    2  502    0  0.10216024731E+02  0.19251494048E+02  0.15680084012E+04  0.15681598558E+04  0.00000000000E+00 0. -1.
         22    1    3    3    0    0  0.22040758829E+01  0.55328168351E+02  0.24752218912E+02  0.60652588606E+02  0.00000000000E+00 0.  1.
         22    1    3    3    0    0 -0.66901227921E+02 -0.53059376039E+02  0.40454200417E+02  0.94486051957E+02  0.00000000000E+00 0.  1.
</event>
<event>
 7    1  0.8278507E-006  0.8649664E+02  0.7818608E-02  0.1464028E+00
          2   -1    0    0  502    0  0.00000000000E+00  0.00000000000E+00  0.20599823492E+03  0.20599823492E+03  0.00000000000E+00 0. -1.
          1   -1    0    0  501    0 -0.00000000000E+00 -0.00000000000E+00 -0.19597816213E+03  0.19597816213E+03  0.00000000000E+00 0. -1.
         25    2    1    2    0    0 -0.74205565052E+02 -0.19754397120E+02 -0.34977329827E+02  0.15081443158E+03  0.12499950833E+03 0.  0.
          2    1    1    2  501    0 -0.14038147910E+02  0.20937910278E+02 -0.88004702183E+02  0.91543941852E+02  0.00000000000E+00 0. -1.
          1    1    1    2  502    0  0.88243712962E+02 -0.11835131582E+01  0.13300210480E+03  0.15961802361E+03  0.00000000000E+00 0. -1.
         22    1    3    3    0    0 -0.16624328816E+02 -0.24369882579E+02 -0.74963506248E+02  0.80559212722E+02  0.00000000000E+00 0. -1.
         22    1    3    3    0    0 -0.57581236236E+02  0.46154854589E+01  0.39986176421E+02  0.70255218861E+02  0.00000000000E+00 0. -1.
</event>
<event>
 7    1  0.8278507E-006  0.1414596E+03  0.7818608E-02  0.1428285E+00
          2   -1    0    0  502    0  0.00000000000E+00  0.00000000000E+00  0.33969290780E+03  0.33969290780E+03  0.00000000000E+00 0. -1.
          1   -1    0    0  501    0 -0.00000000000E+00 -0.00000000000E+00 -0.15984196467E+04  0.15984196467E+04  0.00000000000E+00 0. -1.
         25    2    1    2    0    0 -0.15741769579E+03  0.15184542381E+02 -0.41558547598E+03  0.46189354894E+03  0.12499384557E+03 0.  0.
          2    1    1    2  501    0  0.16594703412E+02 -0.11318425599E+02 -0.11439133221E+04  0.11440896728E+04  0.00000000000E+00 0. -1.
          1    1    1    2  502    0  0.14082299238E+03 -0.38661167815E+01  0.30077205922E+03  0.33212933272E+03  0.00000000000E+00 0. -1.
         22    1    3    3    0    0 -0.10210947627E+03  0.11525053636E+02 -0.10693199226E+03  0.14830247123E+03  0.00000000000E+00 0.  1.
         22    1    3    3    0    0 -0.55308219527E+02  0.36594887451E+01 -0.30865348372E+03  0.31359107771E+03  0.00000000000E+00 0.  1.
</event>
<event>
 7    1  0.8278507E-006  0.1687999E+03  0.7818608E-02  0.1277353E+00
          2   -1    0    0  502    0  0.00000000000E+00  0.00000000000E+00  0.12124560261E+04  0.12124560261E+04  0.00000000000E+00 0. -1.
          1   -1    0    0  501    0 -0.00000000000E+00 -0.00000000000E+00 -0.77501303635E+03  0.77501303635E+03  0.00000000000E+00 0. -1.
         25    2    1    2    0    0  0.89934543537E+02  0.17050094666E+03 -0.47573092535E+02  0.23462902275E+03  0.12501513609E+03 0.  0.
          2    1    1    2  501    0  0.30215278118E+02 -0.52907094072E+02 -0.62610985882E+03  0.62906730876E+03  0.00000000000E+00 0. -1.
          1    1    1    2  502    0 -0.12014982165E+03 -0.11759385258E+03  0.11111259411E+04  0.11237727309E+04  0.00000000000E+00 0. -1.
         22    1    3    3    0    0  0.43671311753E+02 -0.84461776726E+01 -0.35108427261E+01  0.44618913077E+02  0.00000000000E+00 0.  1.
         22    1    3    3    0    0  0.46263231783E+02  0.17894712433E+03 -0.44062249809E+02  0.19001010968E+03  0.00000000000E+00 0.  1.
</event>
<event>
 7    1  0.8278507E-006  0.7194142E+02  0.7818608E-02  0.1466569E+00
          2   -1    0    0  502    0  0.00000000000E+00  0.00000000000E+00  0.26984337719E+04  0.26984337719E+04  0.00000000000E+00 0. -1.
          1   -1    0    0  501    0 -0.00000000000E+00 -0.00000000000E+00 -0.21092116526E+02  0.21092116526E+02  0.00000000000E+00 0. -1.
         25    2    1    2    0    0  0.34380140450E+02 -0.26834114809E+02  0.27854871194E+03  0.30840862155E+03  0.12499771659E+03 0.  0.
          2    1    1    2  501    0  0.26635317994E+02 -0.13271142559E+02  0.33944595216E+02  0.45141986374E+02  0.00000000000E+00 0. -1.
          1    1    1    2  502    0 -0.61015458444E+02  0.40105257368E+02  0.23648483482E+04  0.23659752805E+04  0.00000000000E+00 0. -1.
         22    1    3    3    0    0  0.57798461409E+02 -0.19911953275E+02  0.51167588757E+02  0.79719948342E+02  0.00000000000E+00 0.  1.
         22    1    3    3    0    0 -0.23418320959E+02 -0.69221615333E+01  0.22738112318E+03  0.22868867321E+03  0.00000000000E+00 0.  1.
</event>
<event>
 7    1  0.8278507E-006  0.5718640E+02  0.7818608E-02  0.1480807E+00
          2   -1    0    0  502    0  0.00000000000E+00  0.00000000000E+00  0.69790784940E+03  0.69790784940E+03  0.00000000000E+00 0. -1.
          1   -1    0    0  501    0 -0.00000000000E+00 -0.00000000000E+00 -0.67647277662E+03  0.67647277662E+03  0.00000000000E+00 0. -1.
         25    2    1    2    0    0  0.21467216544E+02 -0.80807304009E+02  0.19075829313E+02  0.15158211135E+03  0.12499034943E+03 0.  0.
          2    1    1    2  501    0 -0.30217813420E+02  0.48134317009E+02 -0.60842738443E+03  0.61107602706E+03  0.00000000000E+00 0. -1.
          1    1    1    2  502    0  0.87505968757E+01  0.32672987000E+02  0.61078662790E+03  0.61172248761E+03  0.00000000000E+00 0. -1.
         22    1    3    3    0    0 -0.36877044128E+02 -0.39151924245E+02 -0.32886598885E+02  0.63042191761E+02  0.00000000000E+00 0. -1.
         22    1    3    3    0    0  0.58344260673E+02 -0.41655379764E+02  0.51962428197E+02  0.88539919589E+02  0.00000000000E+00 0. -1.
</event>
<event>
 7    1  0.8278507E-006  0.4887442E+02  0.7818608E-02  0.1451756E+00
          2   -1    0    0  502    0  0.00000000000E+00  0.00000000000E+00  0.38329245218E+03  0.38329245218E+03  0.00000000000E+00 0. -1.
          1   -1    0    0  501    0 -0.00000000000E+00 -0.00000000000E+00 -0.44130275840E+02  0.44130275840E+02  0.00000000000E+00 0. -1.
         25    2    1    2    0    0  0.26424181581E+02  0.15561679148E+02  0.11114544216E+03  0.17005721933E+03  0.12500298118E+03 0.  0.
          2    1    1    2  501    0 -0.68125064659E+02  0.97578510292E+01  0.11123425081E+03  0.13080251773E+03  0.00000000000E+00 0. -1.
          1    1    1    2  502    0  0.41700883078E+02 -0.25319530177E+02  0.11678248337E+03  0.12656299096E+03  0.00000000000E+00 0. -1.
         22    1    3    3    0    0 -0.41679007983E+02  0.31548467214E+02  0.74714385413E+02  0.91184893912E+02  0.00000000000E+00 0. -1.
         22    1    3    3    0    0  0.68103189564E+02 -0.15986788066E+02  0.36431056746E+02  0.78872325420E+02  0.00000000000E+00 0. -1.
</event>
<event>
 7    1  0.8278507E-006  0.9256307E+02  0.7818608E-02  0.1465251E+00
          2   -1    0    0  502    0  0.00000000000E+00  0.00000000000E+00  0.44308175965E+03  0.44308175965E+03  0.00000000000E+00 0. -1.
          1   -1    0    0  501    0 -0.00000000000E+00 -0.00000000000E+00 -0.11456094464E+03  0.11456094464E+03  0.00000000000E+00 0. -1.
         25    2    1    2    0    0  0.79373357858E+02  0.68110043775E+02  0.74741197587E+02  0.17930370980E+03  0.12499786290E+03 0.  0.
          2    1    1    2  501    0  0.15451007568E+00 -0.23348861149E+02 -0.53191051038E+02  0.58090284049E+02  0.00000000000E+00 0. -1.
          1    1    1    2  502    0 -0.79527867934E+02 -0.44761182626E+02  0.30697066846E+03  0.32024871045E+03  0.00000000000E+00 0. -1.
         22    1    3    3    0    0  0.11020905851E+03  0.32412404008E+02  0.44081625594E+02  0.12304385489E+03  0.00000000000E+00 0. -1.
         22    1    3    3    0    0 -0.30835700651E+02  0.35697639767E+02  0.30659571992E+02  0.56259854908E+02  0.00000000000E+00 0. -1.
</event>
<event>
 7    1  0.8278507E-006  0.4912180E+02  0.7818608E-02  0.1476078E+00
          2   -1    0    0  502    0  0.00000000000E+00  0.00000000000E+00  0.17986847827E+03  0.17986847827E+03  0.00000000000E+00 0. -1.
          1   -1    0    0  501    0 -0.00000000000E+00 -0.00000000000E+00 -0.60890817422E+03  0.60890817422E+03  0.00000000000E+00 0. -1.
         25    2    1    2    0    0 -0.10914438842E+02 -0.74269652771E+02  0.31698653995E+02  0.14920401431E+03  0.12498770709E+03 0.  0.
          2    1    1    2  501    0 -0.17656993110E+02  0.36690631194E+02 -0.54310916159E+03  0.54463339341E+03  0.00000000000E+00 0. -1.
          1    1    1    2  502    0  0.28571431952E+02  0.37579021577E+02  0.82370811642E+02  0.94939244768E+02  0.00000000000E+00 0. -1.
         22    1    3    3    0    0 -0.42812670302E+02 -0.38331201838E+02  0.67964414504E+02  0.89002064087E+02  0.00000000000E+00 0. -1.
         22    1    3    3    0    0  0.31898231461E+02 -0.35938450933E+02 -0.36265760510E+02  0.60201950227E+02  0.00000000000E+00 0. -1.
</event>
<event>
 7    1  0.8278507E-006  0.5083030E+02  0.7818608E-02  0.1533820E+00
          2   -1    0    0  502    0  0.00000000000E+00  0.00000000000E+00  0.14057392235E+04  0.14057392235E+04  0.00000000000E+00 0. -1.
          1   -1    0    0  501    0 -0.00000000000E+00 -0.00000000000E+00 -0.75866757182E+02  0.75866757182E+02  0.00000000000E+00 0. -1.
         25    2    1    2    0    0  0.18028865027E+02 -0.31642630121E+02  0.36069113197E+02  0.13509557733E+03  0.12499415215E+03 0.  0.
          2    1    1    2  501    0 -0.44275920902E+02  0.35503438685E+02  0.44962375109E+01  0.56930373984E+02  0.00000000000E+00 0. -1.
          1    1    1    2  502    0  0.26247055875E+02 -0.38608085644E+01  0.12893071156E+04  0.12895800293E+04  0.00000000000E+00 0. -1.
         22    1    3    3    0    0  0.31578196010E+02  0.23253162288E+02  0.61625461168E+02  0.73045119507E+02  0.00000000000E+00 0. -1.
         22    1    3    3    0    0 -0.13549330983E+02 -0.54895792410E+02 -0.25556347971E+02  0.62050457822E+02  0.00000000000E+00 0. -1.
</event>
<event>
 7    1  0.8278507E-006  0.9171639E+02  0.7818608E-02  0.1361521E+00
          2   -1    0    0  502    0  0.00000000000E+00  0.00000000000E+00  0.93255340102E+03  0.93255340102E+03  0.00000000000E+00 0. -1.
          1   -1    0    0  501    0 -0.00000000000E+00 -0.00000000000E+00 -0.11311792263E+03  0.11311792263E+03  0.00000000000E+00 0. -1.
         25    2    1    2    0    0  0.94519889496E+02  0.69598572905E+02  0.22680110085E+03  0.28432373661E+03  0.12499310778E+03 0.  0.
          2    1    1    2  501    0 -0.88589348707E+02 -0.17143618235E+02 -0.58850058085E+02  0.10772792436E+03  0.00000000000E+00 0. -1.
          1    1    1    2  502    0 -0.59305407890E+01 -0.52454954670E+02  0.65148443562E+03  0.65361966268E+03  0.00000000000E+00 0. -1.
         22    1    3    3    0    0  0.78205918695E+02 -0.12530878742E+02  0.15481926457E+03  0.17390282725E+03  0.00000000000E+00 0.  1.
         22    1    3    3    0    0  0.16313970801E+02  0.82129451647E+02  0.71981836274E+02  0.11042090936E+03  0.00000000000E+00 0.  1.
</event>
<event>
 7    1  0.8278507E-006  0.9394866E+02  0.7818608E-02  0.1428407E+00
          2   -1    0    0  502    0  0.00000000000E+00  0.00000000000E+00  0.22215048607E+04  0.22215048607E+04  0.00000000000E+00 0. -1.
          1   -1    0    0  501    0 -0.00000000000E+00 -0.00000000000E+00 -0.16549715312E+04  0.16549715312E+04  0.00000000000E+00 0. -1.
         25    2    1    2    0    0  0.47401732514E+02 -0.54528549458E+02  0.55734368693E+03  0.57574006862E+03  0.12499741718E+03 0.  0.
          2    1    1    2  501    0  0.29783953988E+02 -0.50998512690E+01 -0.16441973280E+04  0.16444749758E+04  0.00000000000E+00 0. -1.
          1    1    1    2  502    0 -0.77185686502E+02  0.59628400727E+02  0.16533869706E+04  0.16562613474E+04  0.00000000000E+00 0. -1.
         22    1    3    3    0    0  0.52857392472E+02 -0.46102881207E+02  0.12541820993E+03  0.14369797137E+03  0.00000000000E+00 0. -1.
         22    1    3    3    0    0 -0.54556599576E+01 -0.84256682512E+01  0.43192547700E+03  0.43204209725E+03  0.00000000000E+00 0. -1.
</event>
<event>
 7    1  0.8278507E-006  0.7330607E+02  0.7818608E-02  0.1373706E+00
          2   -1    0    0  502    0  0.00000000000E+00  0.00000000000E+00  0.28734412609E+03  0.28734412609E+03  0.00000000000E+00 0. -1.
          1   -1    0    0  501    0 -0.00000000000E+00 -0.00000000000E+00 -0.11636990232E+03  0.11636990232E+03  0.00000000000E+00 0. -1.
         25    2    1    2    0    0  0.31196425248E+02 -0.20214044734E+02  0.13422587734E+03  0.18714599372E+03  0.12500084906E+03 0.  0.
          2    1    1    2  501    0 -0.14578367569E+02  0.77541996008E+02 -0.62566609222E+02  0.10069692416E+03  0.00000000000E+00 0. -1.
          1    1    1    2  502    0 -0.16618057679E+02 -0.57327951274E+02  0.99314955647E+02  0.11587111052E+03  0.00000000000E+00 0. -1.
         22    1    3    3    0    0  0.97055326209E+01  0.35176218087E+02  0.12085898695E+03  0.12624760754E+03  0.00000000000E+00 0.  1.
         22    1    3    3    0    0  0.21490892627E+02 -0.55390262821E+02  0.13366890393E+02  0.60898386186E+02  0.00000000000E+00 0.  1.
</event>
<event>
 7    1  0.8278507E-006  0.1310288E+03  0.7818608E-02  0.1353981E+00
          2   -1    0    0  502    0  0.00000000000E+00  0.00000000000E+00  0.56554483014E+03  0.56554483014E+03  0.00000000000E+00 0. -1.
          1   -1    0    0  501    0 -0.00000000000E+00 -0.00000000000E+00 -0.45144465760E+03  0.45144465760E+03  0.00000000000E+00 0. -1.
         25    2    1    2    0    0  0.20961610902E+02 -0.14101438894E+03  0.82146904589E+02  0.20663385723E+03  0.12499996000E+03 0.  0.
          2    1    1    2  501    0 -0.53616207474E+02  0.11901065339E+03 -0.37728518588E+03  0.39922718446E+03  0.00000000000E+00 0. -1.
          1    1    1    2  502    0  0.32654596572E+02  0.22003735550E+02  0.40923845383E+03  0.41112844604E+03  0.00000000000E+00 0. -1.
         22    1    3    3    0    0 -0.42497000377E+02 -0.97071172096E+01  0.15215028740E+02  0.46170556258E+02  0.00000000000E+00 0. -1.
         22    1    3    3    0    0  0.63458611279E+02 -0.13130727173E+03  0.66931875848E+02  0.16046330098E+03  0.00000000000E+00 0. -1.
</event>
<event>
 7    1  0.8278507E-006  0.7354315E+02  0.7818608E-02  0.1416189E+00
          2   -1    0    0  502    0  0.00000000000E+00  0.00000000000E+00  0.10189507526E+04  0.10189507526E+04  0.00000000000E+00 0. -1.
          1   -1    0    0  501    0 -0.00000000000E+00 -0.00000000000E+00 -0.56472792256E+03  0.56472792256E+03  0.00000000000E+00 0. -1.
         25    2    1    2    0    0  0.20478547019E+02  0.11374951541E+03  0.29837981853E+03  0.34353128767E+03  0.12499962542E+03 0.  0.
          2    1    1    2  501    0 -0.14267349547E+02 -0.71815635524E+02 -0.53903119761E+03  0.54398131840E+03  0.00000000000E+00 0. -1.
          1    1    1    2  502    0 -0.62111974720E+01 -0.41933879883E+02  0.69487420916E+03  0.69616606914E+03  0.00000000000E+00 0. -1.
         22    1    3    3    0    0  0.36280570712E+02  0.68049703938E+01  0.17777634232E+03  0.18156821121E+03  0.00000000000E+00 0. -1.
         22    1    3    3    0    0 -0.15802023693E+02  0.10694454501E+03  0.12060347621E+03  0.16196307645E+03  0.00000000000E+00 0. -1.
</event>
<event>
 7    1  0.8278507E-006  0.8035009E+02  0.7818608E-02  0.1469751E+00
          2   -1    0    0  502    0  0.00000000000E+00  0.00000000000E+00  0.12572552843E+04  0.12572552843E+04  0.00000000000E+00 0. -1.
          1   -1    0    0  501    0 -0.00000000000E+00 -0.00000000000E+00 -0.10210945037E+04  0.10210945037E+04  0.00000000000E+00 0. -1.
         25    2    1    2    0    0 -0.54756583290E+02 -0.19875066245E+02  0.71903224175E+02  0.15552947013E+03  0.12500416297E+03 0.  0.
          2    1    1    2  501    0  0.69152552850E+02  0.41576524677E+02 -0.97747053834E+03  0.98079525708E+03  0.00000000000E+00 0. -1.
          1    1    1    2  502    0 -0.14395969560E+02 -0.21701458431E+02  0.11417280948E+04  0.11420250609E+04  0.00000000000E+00 0. -1.
         22    1    3    3    0    0  0.40029115672E+02  0.26579303650E+01  0.15900526982E+02  0.43153463982E+02  0.00000000000E+00 0. -1.
         22    1    3    3    0    0 -0.94785698962E+02 -0.22532996610E+02  0.56002697193E+02  0.11237600614E+03  0.00000000000E+00 0. -1.
</event>
<event>
 7    1  0.8278507E-006  0.4739007E+02  0.7818608E-02  0.1509885E+00
          2   -1    0    0  502    0  0.00000000000E+00  0.00000000000E+00  0.19699656062E+03  0.19699656062E+03  0.00000000000E+00 0. -1.
          1   -1    0    0  501    0 -0.00000000000E+00 -0.00000000000E+00 -0.26101614005E+04  0.26101614005E+04  0.00000000000E+00 0. -1.
         25    2    1    2    0    0  0.54384564926E+02  0.41721088557E+02 -0.20518618785E+04  0.20568082341E+04  0.12499845305E+03 0.  0.
          2    1    1    2  501    0 -0.21556536219E+02 -0.35670523264E+02 -0.55360515111E+03  0.55517180568E+03  0.00000000000E+00 0. -1.
          1    1    1    2  502    0 -0.32828028707E+02 -0.60505652932E+01  0.19230218973E+03  0.19517792135E+03  0.00000000000E+00 0. -1.
         22    1    3    3    0    0  0.21530253603E+02  0.56461228981E+02 -0.39860416304E+03  0.40315840682E+03  0.00000000000E+00 0.  1.
         22    1    3    3    0    0  0.32854311323E+02 -0.14740140424E+02 -0.16532577154E+04  0.16536498272E+04  0.00000000000E+00 0.  1.
</event>
<event>
 7    1  0.8278507E-006  0.3957439E+02  0.7818608E-02  0.1611933E+00
          2   -1    0    0  502    0  0.00000000000E+00  0.00000000000E+00  0.22865426976E+03  0.22865426976E+03  0.00000000000E+00 0. -1.
          1   -1    0    0  501    0 -0.00000000000E+00 -0.00000000000E+00 -0.88689790512E+02  0.88689790512E+02  0.00000000000E+00 0. -1.
         25    2    1    2    0    0  0.48152555872E+02 -0.93625433223E+01  0.88014610136E+02  0.16055083249E+03  0.12499468934E+03 0.  0.
          2    1    1    2  501    0 -0.16301475714E+02 -0.13136366777E+02 -0.46448865293E+02  0.50948987522E+02  0.00000000000E+00 0. -1.
          1    1    1    2  502    0 -0.31851080158E+02  0.22498910099E+02  0.98398734403E+02  0.10584424025E+03  0.00000000000E+00 0. -1.
         22    1    3    3    0    0 -0.12069261205E+02  0.33754327408E+02 -0.10450254453E+02  0.37339382733E+02  0.00000000000E+00 0. -1.
         22    1    3    3    0    0  0.60221817077E+02 -0.43116870730E+02  0.98464864589E+02  0.12321144976E+03  0.00000000000E+00 0. -1.
</event>
<event>
 7    1  0.8278507E-006  0.4324828E+02  0.7818608E-02  0.1491593E+00
          2   -1    0    0  502    0  0.00000000000E+00  0.00000000000E+00  0.63188133449E+03  0.63188133449E+03  0.00000000000E+00 0. -1.
          1   -1    0    0  501    0 -0.00000000000E+00 -0.00000000000E+00 -0.42613269784E+03  0.42613269784E+03  0.00000000000E+00 0. -1.
         25    2    1    2    0    0 -0.48560875145E+02 -0.49835549690E+02  0.25626155634E+02  0.14533946814E+03  0.12500048215E+03 0.  0.
          2    1    1    2  501    0  0.42104990038E+02  0.88696539497E+01 -0.36422083499E+03  0.36675375606E+03  0.00000000000E+00 0. -1.
          1    1    1    2  502    0  0.64558851075E+01  0.40965895740E+02  0.54434331600E+03  0.54592080813E+03  0.00000000000E+00 0. -1.
         22    1    3    3    0    0  0.29258521311E+02 -0.18648000878E+02 -0.29048185410E+02  0.45250481562E+02  0.00000000000E+00 0.  1.
         22    1    3    3    0    0 -0.77819396456E+02 -0.31187548812E+02  0.54674341044E+02  0.10008898658E+03  0.00000000000E+00 0.  1.
</event>
<event>
 7    1  0.8278507E-006  0.6130147E+02  0.7818608E-02  0.1445101E+00
          2   -1    0    0  502    0  0.00000000000E+00  0.00000000000E+00  0.32453552635E+02  0.32453552635E+02  0.00000000000E+00 0. -1.
          1   -1    0    0  501    0 -0.00000000000E+00 -0.00000000000E+00 -0.39052951194E+04  0.39052951194E+04  0.00000000000E+00 0. -1.
         25    2    1    2    0    0  0.14692982160E+02 -0.15143358667E+02 -0.20411730008E+04  0.20451045420E+04  0.12498065233E+03 0.  0.
          2    1    1    2  501    0  0.26474842297E+02 -0.31116076766E+02 -0.18302467240E+04  0.18307026515E+04  0.00000000000E+00 0. -1.
          1    1    1    2  502    0 -0.41167824457E+02  0.46259435433E+02 -0.14218420338E+01  0.61941478606E+02  0.00000000000E+00 0. -1.
         22    1    3    3    0    0 -0.18583604095E+02 -0.64555153728E+02 -0.10800734015E+04  0.10821604644E+04  0.00000000000E+00 0. -1.
         22    1    3    3    0    0  0.33276586256E+02  0.49411795061E+02 -0.96109959928E+03  0.96294407751E+03  0.00000000000E+00 0. -1.
</event>
<event>
 7    1  0.8278507E-006  0.1073121E+03  0.7818608E-02  0.1313622E+00
          2   -1    0    0  502    0  0.00000000000E+00  0.00000000000E+00  0.83826493625E+02  0.83826493625E+02  0.00000000000E+00 0. -1.
          1   -1    0    0  501    0 -0.00000000000E+00 -0.00000000000E+00 -0.68578986916E+03  0.68578986916E+03  0.00000000000E+00 0. -1.
         25    2    1    2    0    0  0.94734373184E+02 -0.79924244587E+02 -0.11281025053E+03  0.20907736278E+03  0.12499881867E+03 0.  0.
          2    1    1    2  501    0 -0.10676137782E+03  0.12555114979E+02 -0.47953027946E+03  0.49143149230E+03  0.00000000000E+00 0. -1.
          1    1    1    2  502    0  0.12027004638E+02  0.67369129608E+02 -0.96228455489E+01  0.69107507705E+02  0.00000000000E+00 0. -1.
         22    1    3    3    0    0 -0.22127585727E+02 -0.50152261583E+02 -0.43535440650E+02  0.70001528445E+02  0.00000000000E+00 0. -1.
         22    1    3    3    0    0  0.11686195891E+03 -0.29771983004E+02 -0.69274809879E+02  0.13907583434E+03  0.00000000000E+00 0. -1.
</event>
<event>
 7    1  0.8278507E-006  0.2706925E+02  0.7818608E-02  0.1652355E+00
          2   -1    0    0  502    0  0.00000000000E+00  0.00000000000E+00  0.41299991412E+03  0.41299991412E+03  0.00000000000E+00 0. -1.
          1   -1    0    0  501    0 -0.00000000000E+00 -0.00000000000E+00 -0.20556621326E+03  0.20556621326E+03  0.00000000000E+00 0. -1.
         25    2    1    2    0    0 -0.45005265949E+02  0.19323793376E+02  0.83974020114E+01  0.13451582676E+03  0.12500043334E+03 0.  0.
          2    1    1    2  501    0  0.18330055585E+02 -0.15852920957E+02 -0.14094156119E+03  0.14300989375E+03  0.00000000000E+00 0. -1.
          1    1    1    2  502    0  0.26675210364E+02 -0.34708724192E+01  0.33997786004E+03  0.34104040687E+03  0.00000000000E+00 0. -1.
         22    1    3    3    0    0 -0.68840293831E+02  0.16173433447E+02  0.49902910080E+02  0.86549791673E+02  0.00000000000E+00 0.  1.
         22    1    3    3    0    0  0.23835027882E+02  0.31503599286E+01 -0.41505508069E+02  0.47966035086E+02  0.00000000000E+00 0.  1.
</event>
<event>
 7    1  0.8278507E-006  0.1755919E+03  0.7818608E-02  0.1231146E+00
          2   -1    0    0  502    0  0.00000000000E+00  0.00000000000E+00  0.16870811024E+04  0.16870811024E+04  0.00000000000E+00 0. -1.
          1   -1    0    0  501    0 -0.00000000000E+00 -0.00000000000E+00 -0.16617788330E+04  0.16617788330E+04  0.00000000000E+00 0. -1.
         25    2    1    2    0    0 -0.76200531619E+02 -0.82422076629E+02 -0.12233107418E+03  0.20782084754E+03  0.12499877289E+03 0.  0.
          2    1    1    2  501    0  0.27344283005E+02 -0.88515932966E+02 -0.14904550347E+04  0.14933315072E+04  0.00000000000E+00 0. -1.
          1    1    1    2  502    0  0.48856248614E+02  0.17093800960E+03  0.16380883783E+04  0.16477075806E+04  0.00000000000E+00 0. -1.
         22    1    3    3    0    0 -0.25904094174E+02  0.27881928926E+02 -0.61153769852E+02  0.72029213676E+02  0.00000000000E+00 0.  1.
         22    1    3    3    0    0 -0.50296437445E+02 -0.11030400556E+03 -0.61177304332E+02  0.13579163386E+03  0.00000000000E+00 0.  1.
</event>
<event>
 7    1  0.8278507E-006  0.1984200E+03  0.7818608E-02  0.1321716E+00
          2   -1    0    0  502    0  0.00000000000E+00  0.00000000000E+00  0.24751151622E+03  0.24751151622E+03  0.00000000000E+00 0. -1.
          1   -1    0    0  501    0 -0.00000000000E+00 -0.00000000000E+00 -0.12179969938E+04  0.12179969938E+04  0.00000000000E+00 0. -1.
         25    2    1    2    0    0  0.15101305885E+03  0.15904143592E+03 -0.12897804257E+03  0.28347848957E+03  0.12500238520E+03 0.  0.
          2    1    1    2  501    0 -0.11662436582E+03 -0.15755746026E+03 -0.10004141495E+04  0.10194381131E+04  0.00000000000E+00 0. -1.
          1    1    1    2  502    0 -0.34388693026E+02 -0.14839756618E+01  0.15890671453E+03  0.16259190728E+03  0.00000000000E+00 0. -1.
         22    1    3    3    0    0  0.92038476494E+02  0.14372834017E+03 -0.39430512406E+02  0.17516758328E+03  0.00000000000E+00 0.  1.
         22    1    3    3    0    0  0.58974582353E+02  0.15313095753E+02 -0.89547530160E+02  0.10831090630E+03  0.00000000000E+00 0.  1.
</event>
<event>
 7    1  0.8278507E-006  0.3599886E+02  0.7818608E-02  0.1554951E+00
          2   -1    0    0  502    0  0.00000000000E+00  0.00000000000E+00  0.11395738430E+04  0.11395738430E+04  0.00000000000E+00 0. -1.
          1   -1    0    0  501    0 -0.00000000000E+00 -0.00000000000E+00 -0.36963455352E+02  0.36963455352E+02  0.00000000000E+00 0. -1.
         25    2    1    2    0    0  0.62977775829E+01 -0.25114369490E+02  0.20305153301E+03  0.23984283910E+03  0.12499707539E+03 0.  0.
          2    1    1    2  501    0 -0.36083854303E+02  0.11688615280E+02  0.14146091363E+01  0.37956150853E+02  0.00000000000E+00 0. -1.
          1    1    1    2  502    0  0.29786076721E+02  0.13425754210E+02  0.89814424547E+03  0.89873830836E+03  0.00000000000E+00 0. -1.
         22    1    3    3    0    0  0.63050293232E+02  0.52742702918E+01  0.10155492529E+03  0.11965182930E+03  0.00000000000E+00 0.  1.
         22    1    3    3    0    0 -0.56752515649E+02 -0.30388639782E+02  0.10149660772E+03  0.12019100981E+03  0.00000000000E+00 0.  1.
</event>
<event>
 7    1  0.8278507E-006  0.5663327E+02  0.7818608E-02  0.1457720E+00
          2   -1    0    0  502    0  0.00000000000E+00  0.00000000000E+00  0.12202001733E+02  0.12202001733E+02  0.00000000000E+00 0. -1.
          1   -1    0    0  501    0 -0.00000000000E+00 -0.00000000000E+00 -0.23210036953E+04  0.23210036953E+04  0.00000000000E+00 0. -1.
         25    2    1    2    0    0 -0.22179376548E+02  0.56905652530E+02 -0.11270433221E+04  0.11355935427E+04  0.12496345997E+03 0.  0.
          2    1    1    2  501    0 -0.18081635991E+02 -0.55042260422E+02 -0.11324341753E+04  0.11339152337E+04  0.00000000000E+00 0. -1.
          1    1    1    2  502    0  0.40261012540E+02 -0.18633921075E+01 -0.49324196208E+02  0.63696920589E+02  0.00000000000E+00 0. -1.
         22    1    3    3    0    0 -0.33927717726E+02  0.73822645482E+02 -0.39542055343E+03  0.40368092237E+03  0.00000000000E+00 0. -1.
         22    1    3    3    0    0  0.11748341177E+02 -0.16916992952E+02 -0.73162276863E+03  0.73191262030E+03  0.00000000000E+00 0. -1.
</event>
<event>
 7    1  0.8278507E-006  0.1204978E+03  0.7818608E-02  0.1347478E+00
          2   -1    0    0  502    0  0.00000000000E+00  0.00000000000E+00  0.88189371488E+03  0.88189371488E+03  0.00000000000E+00 0. -1.
          1   -1    0    0  501    0 -0.00000000000E+00 -0.00000000000E+00 -0.16560251386E+03  0.16560251386E+03  0.00000000000E+00 0. -1.
         25    2    1    2    0    0 -0.11354256031E+03 -0.68959774406E+02  0.58909314662E+03  0.61668554257E+03  0.12499183791E+03 0.  0.
          2    1    1    2  501    0  0.28517601999E+01  0.45167751563E+02 -0.13651476207E+03  0.14382120352E+03  0.00000000000E+00 0. -1.
          1    1    1    2  502    0  0.11069080011E+03  0.23792022843E+02  0.26371281647E+03  0.28698948265E+03  0.00000000000E+00 0. -1.
         22    1    3    3    0    0 -0.12963081608E+03 -0.88490632617E+02  0.49852113372E+03  0.52264525379E+03  0.00000000000E+00 0. -1.
         22    1    3    3    0    0  0.16088255764E+02  0.19530858211E+02  0.90572012892E+02  0.94040288788E+02  0.00000000000E+00 0. -1.
</event>
<event>
 7    1  0.8278507E-006  0.4069078E+02  0.7818608E-02  0.1507181E+00
          2   -1    0    0  502    0  0.00000000000E+00  0.00000000000E+00  0.41558727494E+03  0.41558727494E+03  0.00000000000E+00 0. -1.
          1   -1    0    0  501    0 -0.00000000000E+00 -0.00000000000E+00 -0.15249387354E+04  0.15249387354E+04  0.00000000000E+00 0. -1.
         25    2    1    2    0    0 -0.38022740207E+02 -0.18903974186E+02 -0.14627647128E+03  0.19704016804E+03  0.12499973103E+03 0.  0.
          2    1    1    2  501    0  0.33182995052E+02 -0.21606369249E+02 -0.13519233052E+04  0.13525030756E+04  0.00000000000E+00 0. -1.
          1    1    1    2  502    0  0.48397451550E+01  0.40510343435E+02  0.38884831597E+03  0.39098276674E+03  0.00000000000E+00 0. -1.
         22    1    3    3    0    0 -0.43745088295E+02  0.40446979557E+02 -0.11545063048E+03  0.12991704654E+03  0.00000000000E+00 0. -1.
         22    1    3    3    0    0  0.57223480876E+01 -0.59350953743E+02 -0.30825840800E+02  0.67123121492E+02  0.00000000000E+00 0. -1.
</event>
<event>
 7    1  0.8278507E-006  0.4161546E+02  0.7818608E-02  0.1603343E+00
          2   -1    0    0  502    0  0.00000000000E+00  0.00000000000E+00  0.72011366689E+03  0.72011366689E+03  0.00000000000E+00 0. -1.
          1   -1    0    0  501    0 -0.00000000000E+00 -0.00000000000E+00 -0.30835155754E+02  0.30835155754E+02  0.00000000000E+00 0. -1.
         25    2    1    2    0    0 -0.14962639943E+02  0.59317124054E+02  0.33771568593E+03  0.36526562747E+03  0.12499876917E+03 0.  0.
          2    1    1    2  501    0  0.10965866267E+02 -0.38747647392E+02  0.74743125066E+01  0.40957242935E+02  0.00000000000E+00 0. -1.
          1    1    1    2  502    0  0.39967736758E+01 -0.20569476662E+02  0.34408851271E+03  0.34472595224E+03  0.00000000000E+00 0. -1.
         22    1    3    3    0    0 -0.13705441784E+02  0.30095470234E+02  0.33417061831E+03  0.33580288654E+03  0.00000000000E+00 0. -1.
         22    1    3    3    0    0 -0.12571981595E+01  0.29221653820E+02  0.35450676141E+01  0.29462740938E+02  0.00000000000E+00 0. -1.
</event>
<event>
 7    1  0.8278507E-006  0.5437884E+02  0.7818608E-02  0.1429735E+00
          2   -1    0    0  502    0  0.00000000000E+00  0.00000000000E+00  0.11542089878E+04  0.11542089878E+04  0.00000000000E+00 0. -1.
          1   -1    0    0  501    0 -0.00000000000E+00 -0.00000000000E+00 -0.48332507532E+02  0.48332507532E+02  0.00000000000E+00 0. -1.
         25    2    1    2    0    0 -0.41281351336E+02  0.10218799736E+02  0.42235726716E+03  0.44251511920E+03  0.12500158304E+03 0.  0.
          2    1    1    2  501    0  0.37780619910E+02  0.41344286338E+02 -0.16277421189E+02  0.58323920429E+02  0.00000000000E+00 0. -1.
          1    1    1    2  502    0  0.35007314253E+01 -0.51563086074E+02  0.69979663426E+03  0.70170245566E+03  0.00000000000E+00 0. -1.
         22    1    3    3    0    0  0.37200763442E+02 -0.19340091348E+01  0.24976600919E+03  0.25252860539E+03  0.00000000000E+00 0. -1.
         22    1    3    3    0    0 -0.78482114777E+02  0.12152808870E+02  0.17259125797E+03  0.18998651381E+03  0.00000000000E+00 0. -1.
</event>
<event>
 7    1  0.8278507E-006  0.4952837E+02  0.7818608E-02  0.1523614E+00
          2   -1    0    0  502    0  0.00000000000E+00  0.00000000000E+00  0.76974986940E+03  0.76974986940E+03  0.00000000000E+00 0. -1.
          1   -1    0    0  501    0 -0.00000000000E+00 -0.00000000000E+00 -0.14233250574E+04  0.14233250574E+04  0.00000000000E+00 0. -1.
         25    2    1    2    0    0 -0.28704985715E+02 -0.30887556769E+02  0.33081661449E+03  0.35615332581E+03  0.12501016639E+03 0.  0.
          2    1    1    2  501    0  0.21328670289E+02 -0.19835282270E+02 -0.14089648107E+04  0.14092658331E+04  0.00000000000E+00 0. -1.
          1    1    1    2  502    0  0.73763154261E+01  0.50722839039E+02  0.42457300824E+03  0.42765576783E+03  0.00000000000E+00 0. -1.
         22    1    3    3    0    0  0.47921716129E+01  0.22043287560E+02  0.26249520176E+03  0.26346271535E+03  0.00000000000E+00 0. -1.
         22    1    3    3    0    0 -0.33497157328E+02 -0.52930844329E+02  0.68321412731E+02  0.92690610463E+02  0.00000000000E+00 0. -1.
</event>
<event>
 7    1  0.8278507E-006  0.7508542E+02  0.7818608E-02  0.1417549E+00
          2   -1    0    0  502    0  0.00000000000E+00  0.00000000000E+00  0.11992450517E+04  0.11992450517E+04  0.00000000000E+00 0. -1.
          1   -1    0    0  501    0 -0.00000000000E+00 -0.00000000000E+00 -0.34874747767E+03  0.34874747767E+03  0.00000000000E+00 0. -1.
         25    2    1    2    0    0 -0.19410154582E+02 -0.95992471020E+02  0.58713113381E+02  0.16929756226E+03  0.12499250502E+03 0.  0.
          2    1    1    2  501    0 -0.22689952677E+02  0.34253246566E+02 -0.29072267188E+03  0.29361163260E+03  0.00000000000E+00 0. -1.
          1    1    1    2  502    0  0.42100107259E+02  0.61739224454E+02  0.10825071326E+04  0.10850833345E+04  0.00000000000E+00 0. -1.
         22    1    3    3    0    0 -0.52254392775E+02 -0.74436102825E+02 -0.86067733469E+01  0.91352786031E+02  0.00000000000E+00 0.  1.
         22    1    3    3    0    0  0.32844238193E+02 -0.21556368195E+02  0.67319886728E+02  0.77944776228E+02  0.00000000000E+00 0.  1.
</event>
<event>
 7    1  0.8278507E-006  0.9976568E+02  0.7818608E-02  0.1349253E+00
          2   -1    0    0  502    0  0.00000000000E+00  0.00000000000E+00  0.44763548305E+03  0.44763548305E+03  0.00000000000E+00 0. -1.
          1   -1    0    0  501    0 -0.00000000000E+00 -0.00000000000E+00 -0.12447216997E+03  0.12447216997E+03  0.00000000000E+00 0. -1.
         25    2    1    2    0    0  0.19715117100E+02  0.49601249170E+02  0.36349874557E+02  0.14069531692E+03  0.12499955624E+03 0.  0.
          2    1    1    2  501    0  0.15298106778E+02  0.51619699235E+02 -0.52740324104E+02  0.75366884018E+02  0.00000000000E+00 0. -1.
          1    1    1    2  502    0 -0.35013223878E+02 -0.10122094840E+03  0.33955376262E+03  0.35604545209E+03  0.00000000000E+00 0. -1.
         22    1    3    3    0    0  0.58276196940E+02 -0.14606403008E+02  0.79857148442E+01  0.60607208979E+02  0.00000000000E+00 0.  1.
         22    1    3    3    0    0 -0.38561079840E+02  0.64207652178E+02  0.28364159713E+02  0.80088107936E+02  0.00000000000E+00 0.  1.
</event>
<event>
 7    1  0.8278507E-006  0.1551683E+03  0.7818608E-02  0.1222101E+00
          2   -1    0    0  502    0  0.00000000000E+00  0.00000000000E+00  0.33431021320E+03  0.33431021320E+03  0.00000000000E+00 0. -1.
          1   -1    0    0  501    0 -0.00000000000E+00 -0.00000000000E+00 -0.10000855508E+04  0.10000855508E+04  0.00000000000E+00 0. -1.
         25    2    1    2    0    0 -0.14832255055E+03 -0.65910884078E+02 -0.51977249459E+03  0.55868787874E+03  0.12499950429E+03 0.  0.
          2    1    1    2  501    0  0.16064127920E+03 -0.48588636103E+02 -0.43411821219E+03  0.46543001439E+03  0.00000000000E+00 0. -1.
          1    1    1    2  502    0 -0.12318728649E+02  0.11449952018E+03  0.28811536918E+03  0.31027787087E+03  0.00000000000E+00 0. -1.
         22    1    3    3    0    0 -0.46252317694E+02 -0.44703084614E+02 -0.37389769995E+03  0.37939047523E+03  0.00000000000E+00 0.  1.
         22    1    3    3    0    0 -0.10207023286E+03 -0.21207799464E+02 -0.14587479464E+03  0.17929740351E+03  0.00000000000E+00 0.  1.
</event>
<event>
 7    1  0.8278507E-006  0.8329095E+02  0.7818608E-02  0.1364196E+00
          2   -1    0    0  502    0  0.00000000000E+00  0.00000000000E+00  0.12192623232E+04  0.12192623232E+04  0.00000000000E+00 0. -1.
          1   -1    0    0  501    0 -0.00000000000E+00 -0.00000000000E+00 -0.99443386431E+03  0.99443386431E+03  0.00000000000E+00 0. -1.
         25    2    1    2    0    0 -0.86876392969E+02 -0.10887971399E+03  0.14547027510E+03  0.23703944743E+03  0.12499519560E+03 0.  0.
          2    1    1    2  501    0  0.47944886428E+02  0.67462278935E+02 -0.94605547201E+03  0.94966879876E+03  0.00000000000E+00 0. -1.
          1    1    1    2  502    0  0.38931506541E+02  0.41417435059E+02  0.10254136558E+04  0.10269879413E+04  0.00000000000E+00 0. -1.
         22    1    3    3    0    0 -0.66751232952E+02 -0.55191458936E+02  0.15629569812E+03  0.17869014940E+03  0.00000000000E+00 0.  1.
         22    1    3    3    0    0 -0.20125160017E+02 -0.53688255058E+02 -0.10825423019E+02  0.58349298029E+02  0.00000000000E+00 0.  1.
</event>
<event>
 7    1  0.8278507E-006  0.1516211E+03  0.7818608E-02  0.1205260E+00
          2   -1    0    0  502    0  0.00000000000E+00  0.00000000000E+00  0.67961107946E+03  0.67961107946E+03  0.00000000000E+00 0. -1.
          1   -1    0    0  501    0 -0.00000000000E+00 -0.00000000000E+00 -0.17593776104E+04  0.17593776104E+04  0.00000000000E+00 0. -1.
         25    2    1    2    0    0  0.16973354963E+03  0.59181498408E+02 -0.16260399425E+03  0.27272156126E+03  0.12500025363E+03 0.  0.
          2    1    1    2  501    0 -0.13312537875E+03  0.76894836176E+02 -0.15298644349E+04  0.15375696314E+04  0.00000000000E+00 0. -1.
          1    1    1    2  502    0 -0.36608170885E+02 -0.13607633458E+03  0.61270189817E+03  0.62869749723E+03  0.00000000000E+00 0. -1.
         22    1    3    3    0    0  0.11453424452E+03  0.53945687519E+02 -0.31629422348E+02  0.13049387238E+03  0.00000000000E+00 0.  1.
         22    1    3    3    0    0  0.55199305107E+02  0.52358108894E+01 -0.13097457190E+03  0.14222768888E+03  0.00000000000E+00 0.  1.
</event>
<event>
 7    1  0.8278507E-006  0.7635304E+02  0.7818608E-02  0.1455199E+00
          2   -1    0    0  502    0  0.00000000000E+00  0.00000000000E+00  0.16111859581E+04  0.16111859581E+04  0.00000000000E+00 0. -1.
          1   -1    0    0  501    0 -0.00000000000E+00 -0.00000000000E+00 -0.17002459914E+03  0.17002459914E+03  0.00000000000E+00 0. -1.
         25    2    1    2    0    0  0.77373698126E+02  0.60424281216E+02  0.37560368988E+03  0.40784935402E+03  0.12500072319E+03 0.  0.
          2    1    1    2  501    0 -0.46933692996E+02 -0.59645599213E+02 -0.14434133280E+03  0.16307908940E+03  0.00000000000E+00 0. -1.
          1    1    1    2  502    0 -0.30440005130E+02 -0.77868200294E+00  0.12098990019E+04  0.12102821138E+04  0.00000000000E+00 0. -1.
         22    1    3    3    0    0  0.77173736721E+02  0.56393676043E+02  0.12569970199E+03  0.15791278421E+03  0.00000000000E+00 0. -1.
         22    1    3    3    0    0  0.19996140501E+00  0.40306051729E+01  0.24990398789E+03  0.24993656981E+03  0.00000000000E+00 0. -1.
</event>
<event>
 7    1  0.8278507E-006  0.6083725E+02  0.7818608E-02  0.1481939E+00
          2   -1    0    0  502    0  0.00000000000E+00  0.00000000000E+00  0.74749499842E+03  0.74749499842E+03  0.00000000000E+00 0. -1.
          1   -1    0    0  501    0 -0.00000000000E+00 -0.00000000000E+00 -0.12124095437E+04  0.12124095437E+04  0.00000000000E+00 0. -1.
         25    2    1    2    0    0  0.63834337303E+02 -0.13429613239E+02 -0.62555245776E+02  0.15426530558E+03  0.12501779313E+03 0.  0.
          2    1    1    2  501    0 -0.46253384633E+02  0.39617495991E+02 -0.11028042006E+04  0.11044845072E+04  0.00000000000E+00 0. -1.
          1    1    1    2  502    0 -0.17580952670E+02 -0.26187882753E+02  0.70044490111E+03  0.70115472942E+03  0.00000000000E+00 0. -1.
         22    1    3    3    0    0 -0.33262004949E+02 -0.24596015807E+02 -0.73515374296E+01  0.42016307184E+02  0.00000000000E+00 0. -1.
         22    1    3    3    0    0  0.97096342252E+02  0.11166402568E+02 -0.55203708346E+02  0.11224899839E+03  0.00000000000E+00 0. -1.
</event>
<event>
 7    1  0.8278507E-006  0.4788409E+02  0.7818608E-02  0.1527148E+00
          2   -1    0    0  502    0  0.00000000000E+00  0.00000000000E+00  0.30451163031E+03  0.30451163031E+03  0.00000000000E+00 0. -1.
          1   -1    0    0  501    0 -0.00000000000E+00 -0.00000000000E+00 -0.20196711004E+04  0.20196711004E+04  0.00000000000E+00 0. -1.
         25    2    1    2    0    0  0.53875826393E+02  0.40620774720E+02  0.23070765370E+03  0.27093036861E+03  0.12499836460E+03 0.  0.
          2    1    1    2  501    0 -0.46290017136E+02 -0.12187062276E+02 -0.19952187058E+04  0.19957928185E+04  0.00000000000E+00 0. -1.
          1    1    1    2  502    0 -0.75858092570E+01 -0.28433712444E+02  0.49351582029E+02  0.57459543630E+02  0.00000000000E+00 0. -1.
         22    1    3    3    0    0 -0.35335336049E+02  0.99585094889E+01  0.24405773312E+02  0.44084006804E+02  0.00000000000E+00 0. -1.
         22    1    3    3    0    0  0.89211162442E+02  0.30662265231E+02  0.20630188039E+03  0.22684636181E+03  0.00000000000E+00 0. -1.
</event>
<event>
 7    1  0.8278507E-006  0.2432839E+03  0.7818608E-02  0.1166203E+00
          2   -1    0    0  502    0  0.00000000000E+00  0.00000000000E+00  0.13361823349E+04  0.13361823349E+04  0.00000000000E+00 0. -1.
          1   -1    0    0  501    0 -0.00000000000E+00 -0.00000000000E+00 -0.57083667145E+03  0.57083667145E+03  0.00000000000E+00 0. -1.
         25    2    1    2    0    0 -0.31497831020E+03 -0.12233006447E+03  0.33881330539E+03  0.49456567862E+03  0.12499909593E+03 0.  0.
          2    1    1    2  501    0  0.13457979702E+03 -0.17003159555E+02 -0.46907454231E+03  0.48829474239E+03  0.00000000000E+00 0. -1.
          1    1    1    2  502    0  0.18039851318E+03  0.13933322403E+03  0.89560690035E+03  0.92415858532E+03  0.00000000000E+00 0. -1.
         22    1    3    3    0    0 -0.25498817771E+03 -0.14327674120E+03  0.30503585887E+03  0.42260391685E+03  0.00000000000E+00 0.  1.
         22    1    3    3    0    0 -0.59990132498E+02  0.20946676732E+02  0.33777446523E+02  0.71961761769E+02  0.00000000000E+00 0.  1.
</event>
<event>
 7    1  0.8278507E-006  0.1439130E+03  0.7818608E-02  0.1264694E+00
          2   -1    0    0  502    0  0.00000000000E+00  0.00000000000E+00  0.21924053354E+03  0.21924053354E+03  0.00000000000E+00 0. -1.
          1   -1    0    0  501    0 -0.00000000000E+00 -0.00000000000E+00 -0.11575008424E+04  0.11575008424E+04  0.00000000000E+00 0. -1.
         25    2    1    2    0    0 -0.10666316325E+03 -0.23316163616E+02 -0.30154904168E+03  0.34420513258E+03  0.12499869949E+03 0.  0.
          2    1    1    2  501    0 -0.32796206795E+02  0.73793382279E+02 -0.80452966913E+03  0.80857222495E+03  0.00000000000E+00 0. -1.
          1    1    1    2  502    0  0.13945937005E+03 -0.50477218663E+02  0.16781840196E+03  0.22396401839E+03  0.00000000000E+00 0. -1.
         22    1    3    3    0    0 -0.36147375971E+02 -0.50773933449E+02 -0.23599474563E+03  0.24408634758E+03  0.00000000000E+00 0.  1.
         22    1    3    3    0    0 -0.70515787280E+02  0.27457769834E+02 -0.65554296050E+02  0.10011878500E+03  0.00000000000E+00 0.  1.
</event>
<event>
 7    1  0.8278507E-006  0.2794362E+02  0.7818608E-02  0.1652603E+00
          2   -1    0    0  502    0  0.00000000000E+00  0.00000000000E+00  0.29173806062E+03  0.29173806062E+03  0.00000000000E+00 0. -1.
          1   -1    0    0  501    0 -0.00000000000E+00 -0.00000000000E+00 -0.15604870626E+04  0.15604870626E+04  0.00000000000E+00 0. -1.
         25    2    1    2    0    0 -0.90164661316E+01  0.55704851447E+01  0.48471389971E+02  0.13448779677E+03  0.12500065947E+03 0.  0.
          2    1    1    2  501    0 -0.17678366464E+02 -0.15396908152E+02 -0.15163776380E+04  0.15165588451E+04  0.00000000000E+00 0. -1.
          1    1    1    2  502    0  0.26694832596E+02  0.98264230075E+01  0.19915724612E+03  0.20117848135E+03  0.00000000000E+00 0. -1.
         22    1    3    3    0    0 -0.49042857044E+02  0.85049892069E+01 -0.21185786132E+02  0.54095972147E+02  0.00000000000E+00 0.  1.
         22    1    3    3    0    0  0.40026390913E+02 -0.29345040622E+01  0.69657176103E+02  0.80391824623E+02  0.00000000000E+00 0.  1.
</event>
<event>
 7    1  0.8278507E-006  0.8079424E+02  0.7818608E-02  0.1397839E+00
          2   -1    0    0  502    0  0.00000000000E+00  0.00000000000E+00  0.56513039603E+03  0.56513039603E+03  0.00000000000E+00 0. -1.
          1   -1    0    0  501    0 -0.00000000000E+00 -0.00000000000E+00 -0.53609131072E+03  0.53609131072E+03  0.00000000000E+00 0. -1.
         25    2    1    2    0    0 -0.42905804764E+02 -0.14422325139E+02  0.32202712035E+02  0.13679096381E+03  0.12500336625E+03 0.  0.
          2    1    1    2  501    0 -0.20973609008E+02 -0.39309622230E+02 -0.47913157596E+03  0.48119871754E+03  0.00000000000E+00 0. -1.
          1    1    1    2  502    0  0.63879413772E+02  0.53731947369E+02  0.47596794924E+03  0.48323202540E+03  0.00000000000E+00 0. -1.
         22    1    3    3    0    0 -0.64577755851E+02 -0.51090628212E+02  0.42935791967E+02  0.92865607593E+02  0.00000000000E+00 0. -1.
         22    1    3    3    0    0  0.21671951087E+02  0.36668303073E+02 -0.10733079931E+02  0.43925356219E+02  0.00000000000E+00 0. -1.
</event>
<event>
 7    1  0.8278507E-006  0.5481152E+02  0.7818608E-02  0.1423930E+00
          2   -1    0    0  502    0  0.00000000000E+00  0.00000000000E+00  0.67883240046E+03  0.67883240046E+03  0.00000000000E+00 0. -1.
          1   -1    0    0  501    0 -0.00000000000E+00 -0.00000000000E+00 -0.33249965970E+03  0.33249965970E+03  0.00000000000E+00 0. -1.
         25    2    1    2    0    0  0.92594981622E+02  0.47880010867E+01 -0.15878364303E+03  0.22233648000E+03  0.12499803786E+03 0.  0.
          2    1    1    2  501    0 -0.47117703808E+02  0.25533676815E+02 -0.13567574772E+03  0.14587650662E+03  0.00000000000E+00 0. -1.
          1    1    1    2  502    0 -0.45477277815E+02 -0.30321677902E+02  0.64079213151E+03  0.64311907354E+03  0.00000000000E+00 0. -1.
         22    1    3    3    0    0  0.88502629333E+01 -0.39265327132E+02 -0.10732531094E+03  0.11462467203E+03  0.00000000000E+00 0.  1.
         22    1    3    3    0    0  0.83744718689E+02  0.44053328219E+02 -0.51458332083E+02  0.10771180797E+03  0.00000000000E+00 0.  1.
</event>
<event>
 7    1  0.8278507E-006  0.4372392E+02  0.7818608E-02  0.1510204E+00
          2   -1    0    0  502    0  0.00000000000E+00  0.00000000000E+00  0.67568600467E+03  0.67568600467E+03  0.00000000000E+00 0. -1.
          1   -1    0    0  501    0 -0.00000000000E+00 -0.00000000000E+00 -0.49255171313E+02  0.49255171313E+02  0.00000000000E+00 0. -1.
         25    2    1    2    0    0 -0.53404087028E+01 -0.13392041072E+02  0.18999579290E+03  0.22788600634E+03  0.12500305532E+03 0.  0.
          2    1    1    2  501    0  0.20462907718E+02 -0.29742424523E+02 -0.17990857003E+02  0.40336253476E+02  0.00000000000E+00 0. -1.
          1    1    1    2  502    0 -0.15122499016E+02  0.43134465595E+02  0.45442589745E+03  0.45671891616E+03  0.00000000000E+00 0. -1.
         22    1    3    3    0    0 -0.34670721549E+02  0.41527830781E+02  0.13257920542E+03  0.14319170846E+03  0.00000000000E+00 0. -1.
         22    1    3    3    0    0  0.29330312846E+02 -0.54919871853E+02  0.57416587482E+02  0.84694297885E+02  0.00000000000E+00 0. -1.
</event>
<event>
 7    1  0.8278507E-006  0.1158363E+03  0.7818608E-02  0.1258314E+00
          2   -1    0    0  502    0  0.00000000000E+00  0.00000000000E+00  0.63743048310E+03  0.63743048310E+03  0.00000000000E+00 0. -1.
          1   -1    0    0  501    0 -0.00000000000E+00 -0.00000000000E+00 -0.20670881888E+03  0.20670881888E+03  0.00000000000E+00 0. -1.
         25    2    1    2    0    0  0.15506920154E+02  0.12010768196E+03 -0.14306795893E+03  0.22529884608E+03  0.12499923734E+03 0.  0.
          2    1    1    2  501    0 -0.10539132432E+03 -0.62423817223E+02  0.26086624322E+03  0.28819309681E+03  0.00000000000E+00 0. -1.
          1    1    1    2  502    0  0.89884404165E+02 -0.57683864735E+02  0.31292337993E+03  0.33064735909E+03  0.00000000000E+00 0. -1.
         22    1    3    3    0    0  0.53483655967E+02  0.44170164781E+02 -0.13929887919E+02  0.70749888268E+02  0.00000000000E+00 0.  1.
         22    1    3    3    0    0 -0.37976735814E+02  0.75937517177E+02 -0.12913807101E+03  0.15454895781E+03  0.00000000000E+00 0.  1.
</event>
<event>
 7    1  0.8278507E-006  0.9655608E+02  0.7818608E-02  0.1403953E+00
          2   -1    0    0  502    0  0.00000000000E+00  0.00000000000E+00  0.18837015178E+04  0.18837015178E+04  0.00000000000E+00 0. -1.
          1   -1    0    0  501    0 -0.00000000000E+00 -0.00000000000E+00 -0.62757722533E+03  0.62757722533E+03  0.00000000000E+00 0. -1.
         25    2    1    2    0    0 -0.76501072492E+02 -0.40063652378E+02 -0.73439624805E+02  0.16874430560E+03  0.12499500728E+03 0.  0.
          2    1    1    2  501    0  0.13126252357E+02 -0.33008116479E+02 -0.50458650635E+03  0.50583532562E+03  0.00000000000E+00 0. -1.
          1    1    1    2  502    0  0.63374820135E+02  0.73071768857E+02  0.18341504236E+04  0.18366991119E+04  0.00000000000E+00 0. -1.
         22    1    3    3    0    0 -0.45512117166E+02 -0.51871328538E+02 -0.10322687777E+03  0.12416833665E+03  0.00000000000E+00 0. -1.
         22    1    3    3    0    0 -0.30988955326E+02  0.11807676159E+02  0.29787252961E+02  0.44575968946E+02  0.00000000000E+00 0. -1.
</event>
<event>
 7    1  0.8278507E-006  0.5140565E+02  0.7818608E-02  0.1568267E+00
          2   -1    0    0  502    0  0.00000000000E+00  0.00000000000E+00  0.11164391699E+04  0.11164391699E+04  0.00000000000E+00 0. -1.
          1   -1    0    0  501    0 -0.00000000000E+00 -0.00000000000E+00 -0.18255143436E+04  0.18255143436E+04  0.00000000000E+00 0. -1.
         25    2    1    2    0    0  0.11317905147E+02 -0.61759246453E+02 -0.10387998356E+03  0.17423678071E+03  0.12500042108E+03 0.  0.
          2    1    1    2  501    0  0.66789294508E+01  0.50875976345E+02 -0.16859633171E+04  0.16867439876E+04  0.00000000000E+00 0. -1.
          1    1    1    2  502    0 -0.17996834597E+02  0.10883270108E+02  0.10807681270E+04  0.10809727452E+04  0.00000000000E+00 0. -1.
         22    1    3    3    0    0 -0.40332771302E+02 -0.75402681441E+02 -0.53912142381E+02  0.10108815908E+03  0.00000000000E+00 0. -1.
         22    1    3    3    0    0  0.51650676448E+02  0.13643434988E+02 -0.49967841176E+02  0.73148621639E+02  0.00000000000E+00 0. -1.
</event>
<event>
 7    1  0.8278507E-006  0.1320255E+03  0.7818608E-02  0.1314723E+00
          2   -1    0    0  502    0  0.00000000000E+00  0.00000000000E+00  0.56051709316E+03  0.56051709316E+03  0.00000000000E+00 0. -1.
          1   -1    0    0  501    0 -0.00000000000E+00 -0.00000000000E+00 -0.43160577961E+03  0.43160577961E+03  0.00000000000E+00 0. -1.
         25    2    1    2    0    0  0.22910721334E+01 -0.16215702075E+03  0.13362051922E+03  0.24450003357E+03  0.12500269944E+03 0.  0.
          2    1    1    2  501    0  0.36685421792E+02  0.41078460874E+02 -0.36313945794E+03  0.36729215351E+03  0.00000000000E+00 0. -1.
          1    1    1    2  502    0 -0.38976493926E+02  0.12107855988E+03  0.35843025226E+03  0.38033068569E+03  0.00000000000E+00 0. -1.
         22    1    3    3    0    0 -0.40014073215E+02 -0.14017820706E+02  0.29761161118E+01  0.42502736614E+02  0.00000000000E+00 0.  1.
         22    1    3    3    0    0  0.42305145348E+02 -0.14813920005E+03  0.13064440311E+03  0.20199729696E+03  0.00000000000E+00 0.  1.
</event>
<event>
 7    1  0.8278507E-006  0.4881017E+02  0.7818608E-02  0.1485595E+00
          2   -1    0    0  502    0  0.00000000000E+00  0.00000000000E+00  0.10098273196E+04  0.10098273196E+04  0.00000000000E+00 0. -1.
          1   -1    0    0  501    0 -0.00000000000E+00 -0.00000000000E+00 -0.14458613475E+04  0.14458613475E+04  0.00000000000E+00 0. -1.
         25    2    1    2    0    0 -0.76912808136E+02 -0.14618378270E+01 -0.24736842443E+03  0.28764801026E+03  0.12503008987E+03 0.  0.
          2    1    1    2  501    0  0.32929528143E+02 -0.19591746329E+02 -0.11774406504E+04  0.11780639522E+04  0.00000000000E+00 0. -1.
          1    1    1    2  502    0  0.43983279993E+02  0.21053584156E+02  0.98877504690E+03  0.98997670462E+03  0.00000000000E+00 0. -1.
         22    1    3    3    0    0 -0.95793433139E+02  0.34739956268E+02 -0.14311746727E+03  0.17568681178E+03  0.00000000000E+00 0.  1.
         22    1    3    3    0    0  0.18880625002E+02 -0.36201794095E+02 -0.10425095716E+03  0.11196119848E+03  0.00000000000E+00 0.  1.
</event>
<event>
 7    1  0.8278507E-006  0.6609982E+02  0.7818608E-02  0.1374734E+00
          2   -1    0    0  502    0  0.00000000000E+00  0.00000000000E+00  0.14647609453E+03  0.14647609453E+03  0.00000000000E+00 0. -1.
          1   -1    0    0  501    0 -0.00000000000E+00 -0.00000000000E+00 -0.54647338900E+03  0.54647338900E+03  0.00000000000E+00 0. -1.
         25    2    1    2    0    0 -0.38127708376E+02  0.18119611745E+02 -0.10361206882E+03  0.16775516991E+03  0.12499717496E+03 0.  0.
          2    1    1    2  501    0 -0.25930355731E+01 -0.70186946519E+02 -0.39790277950E+03  0.40405389891E+03  0.00000000000E+00 0. -1.
          1    1    1    2  502    0  0.40720743949E+02  0.52067334774E+02  0.10151755385E+03  0.12114041472E+03  0.00000000000E+00 0. -1.
         22    1    3    3    0    0 -0.81427299539E+02  0.28999755870E+02 -0.59092896528E+02  0.10470607132E+03  0.00000000000E+00 0. -1.
         22    1    3    3    0    0  0.43299591163E+02 -0.10880144125E+02 -0.44519172296E+02  0.63049098590E+02  0.00000000000E+00 0. -1.
</event>
<event>
 7    1  0.8278507E-006  0.1429753E+03  0.7818608E-02  0.1377290E+00
          2   -1    0    0  502    0  0.00000000000E+00  0.00000000000E+00  0.53607514367E+02  0.53607514367E+02  0.00000000000E+00 0. -1.
          1   -1    0    0  501    0 -0.00000000000E+00 -0.00000000000E+00 -0.29425482665E+04  0.29425482665E+04  0.00000000000E+00 0. -1.
         25    2    1    2    0    0 -0.99101178784E+02 -0.95015256188E+02 -0.73477084831E+03  0.75786627592E+03  0.12499660035E+03 0.  0.
          2    1    1    2  501    0 -0.23271453185E+02  0.18479084823E+02 -0.20719799748E+04  0.20721930540E+04  0.00000000000E+00 0. -1.
          1    1    1    2  502    0  0.12237263197E+03  0.76536171365E+02 -0.82189929018E+02  0.16609645094E+03  0.00000000000E+00 0. -1.
         22    1    3    3    0    0  0.97574893539E+01 -0.52103172245E+02 -0.39435017214E+03  0.39789698092E+03  0.00000000000E+00 0. -1.
         22    1    3    3    0    0 -0.10885866814E+03 -0.42912083943E+02 -0.34042067617E+03  0.35996929500E+03  0.00000000000E+00 0. -1.
</event>
<event>
 7    1  0.8278507E-006  0.8509989E+02  0.7818608E-02  0.1391359E+00
          2   -1    0    0  502    0  0.00000000000E+00  0.00000000000E+00  0.10106214358E+03  0.10106214358E+03  0.00000000000E+00 0. -1.
          1   -1    0    0  501    0 -0.00000000000E+00 -0.00000000000E+00 -0.19456935116E+04  0.19456935116E+04  0.00000000000E+00 0. -1.
         25    2    1    2    0    0 -0.75953016381E+02  0.64061541128E+02 -0.40237237015E+03  0.43289741298E+03  0.12499561656E+03 0.  0.
          2    1    1    2  501    0  0.42330004193E+02  0.13874700391E+02 -0.15066561641E+04  0.15073145436E+04  0.00000000000E+00 0. -1.
          1    1    1    2  502    0  0.33623012188E+02 -0.77936241518E+02  0.64397166227E+02  0.10654369859E+03  0.00000000000E+00 0. -1.
         22    1    3    3    0    0 -0.41400161214E+02  0.41267443848E+02 -0.46685143216E+02  0.74809610796E+02  0.00000000000E+00 0. -1.
         22    1    3    3    0    0 -0.34552855166E+02  0.22794097279E+02 -0.35568722693E+03  0.35808780218E+03  0.00000000000E+00 0. -1.
</event>
<event>
 7    1  0.8278507E-006  0.1000522E+03  0.7818608E-02  0.1410597E+00
          2   -1    0    0  502    0  0.00000000000E+00  0.00000000000E+00  0.40418185876E+03  0.40418185876E+03  0.00000000000E+00 0. -1.
          1   -1    0    0  501    0 -0.00000000000E+00 -0.00000000000E+00 -0.10465229934E+03  0.10465229934E+03  0.00000000000E+00 0. -1.
         25    2    1    2    0    0  0.25328538613E+02 -0.70556514157E+02  0.12168188919E+03  0.18987342010E+03  0.12500270774E+03 0.  0.
          2    1    1    2  501    0 -0.43910017053E+02  0.97272347020E+02 -0.28177729491E+02  0.11038108322E+03  0.00000000000E+00 0. -1.
          1    1    1    2  502    0  0.18581478440E+02 -0.26715832863E+02  0.20602539971E+03  0.20857965479E+03  0.00000000000E+00 0. -1.
         22    1    3    3    0    0 -0.25352967896E+01 -0.12161890471E+01  0.11479277370E+03  0.11482720819E+03  0.00000000000E+00 0. -1.
         22    1    3    3    0    0  0.27863835403E+02 -0.69340325110E+02  0.68891154930E+01  0.75046211910E+02  0.00000000000E+00 0. -1.
</event>
<event>
 7    1  0.8278507E-006  0.9847633E+02  0.7818608E-02  0.1297274E+00
          2   -1    0    0  502    0  0.00000000000E+00  0.00000000000E+00  0.15694090467E+04  0.15694090467E+04  0.00000000000E+00 0. -1.
          1   -1    0    0  501    0 -0.00000000000E+00 -0.00000000000E+00 -0.15308424306E+03  0.15308424306E+03  0.00000000000E+00 0. -1.
         25    2    1    2    0    0  0.33344569494E+02  0.37699410120E+02  0.51602311538E+03  0.53332702118E+03  0.12499900030E+03 0.  0.
          2    1    1    2  501    0  0.85836276933E+02 -0.11417818419E+02 -0.12751049334E+03  0.15413357495E+03  0.00000000000E+00 0. -1.
          1    1    1    2  502    0 -0.11918084643E+03 -0.26281591700E+02  0.10278121816E+04  0.10350326937E+04  0.00000000000E+00 0. -1.
         22    1    3    3    0    0  0.69289769982E+02  0.19527582497E+02  0.45193867792E+03  0.45763628277E+03  0.00000000000E+00 0.  1.
         22    1    3    3    0    0 -0.35945200487E+02  0.18171827623E+02  0.64084437458E+02  0.75690738414E+02  0.00000000000E+00 0.  1.
</event>
<event>
 7    1  0.8278507E-006  0.4004219E+02  0.7818608E-02  0.1530582E+00
          2   -1    0    0  502    0  0.00000000000E+00  0.00000000000E+00  0.40405008230E+03  0.40405008230E+03  0.00000000000E+00 0. -1.
          1   -1    0    0  501    0 -0.00000000000E+00 -0.00000000000E+00 -0.10026083476E+04  0.10026083476E+04  0.00000000000E+00 0. -1.
         25    2    1    2    0    0  0.36862743569E+02 -0.43921084873E+02 -0.25774084801E+02  0.13991944441E+03  0.12500089566E+03 0.  0.
          2    1    1    2  501    0 -0.38830368351E+02  0.95755272864E+01 -0.91847263887E+03  0.91934295917E+03  0.00000000000E+00 0. -1.
          1    1    1    2  502    0  0.19676247825E+01  0.34345557587E+02  0.34568845836E+03  0.34739602634E+03  0.00000000000E+00 0. -1.
         22    1    3    3    0    0  0.11912866515E+02  0.43067113379E+02 -0.20797399133E+02  0.49287163178E+02  0.00000000000E+00 0. -1.
         22    1    3    3    0    0  0.24949877054E+02 -0.86988198253E+02 -0.49766856681E+01  0.90632281228E+02  0.00000000000E+00 0. -1.
</event>
<event>
 7    1  0.8278507E-006  0.9093253E+02  0.7818608E-02  0.1416478E+00
          2   -1    0    0  502    0  0.00000000000E+00  0.00000000000E+00  0.42740273656E+03  0.42740273656E+03  0.00000000000E+00 0. -1.
          1   -1    0    0  501    0 -0.00000000000E+00 -0.00000000000E+00 -0.14957716358E+03  0.14957716358E+03  0.00000000000E+00 0. -1.
         25    2    1    2    0    0 -0.45124001269E+02  0.54094226099E+02  0.18398476012E+03  0.23334673545E+03  0.12505177407E+03 0.  0.
          2    1    1    2  501    0 -0.48481244625E+01  0.33862853344E+02 -0.11047228770E+03  0.11564741025E+03  0.00000000000E+00 0. -1.
          1    1    1    2  502    0  0.49972125732E+02 -0.87957079443E+02  0.20431310055E+03  0.22798575445E+03  0.00000000000E+00 0. -1.
         22    1    3    3    0    0  0.10577467781E+02  0.67844862868E+02  0.15399071048E+03  0.16860589301E+03  0.00000000000E+00 0. -1.
         22    1    3    3    0    0 -0.55701469050E+02 -0.13750636769E+02  0.29994049638E+02  0.64740842438E+02  0.00000000000E+00 0. -1.
</event>
<event>
 7    1  0.8278507E-006  0.7246336E+02  0.7818608E-02  0.1367594E+00
          2   -1    0    0  502    0  0.00000000000E+00  0.00000000000E+00  0.28480966080E+03  0.28480966080E+03  0.00000000000E+00 0. -1.
          1   -1    0    0  501    0 -0.00000000000E+00 -0.00000000000E+00 -0.48217809639E+03  0.48217809639E+03  0.00000000000E+00 0. -1.
         25    2    1    2    0    0 -0.99645869262E+02 -0.13581783090E+02 -0.22206971078E+03  0.27396040296E+03  0.12500232738E+03 0.  0.
          2    1    1    2  501    0  0.50063399099E+02 -0.39083556239E+02 -0.22461935384E+03  0.23342605343E+03  0.00000000000E+00 0. -1.
          1    1    1    2  502    0  0.49582470163E+02  0.52665339329E+02  0.24932062904E+03  0.25960130080E+03  0.00000000000E+00 0. -1.
         22    1    3    3    0    0 -0.33097274177E+02 -0.34753268593E+01 -0.20055009574E+03  0.20329251919E+03  0.00000000000E+00 0.  1.
         22    1    3    3    0    0 -0.66548595085E+02 -0.10106456231E+02 -0.21519615037E+02  0.70667883772E+02  0.00000000000E+00 0.  1.
</event>
<event>
 7    1  0.8278507E-006  0.3065525E+02  0.7818608E-02  0.1596954E+00
          2   -1    0    0  502    0  0.00000000000E+00  0.00000000000E+00  0.95110322511E+03  0.95110322511E+03  0.00000000000E+00 0. -1.
          1   -1    0    0  501    0 -0.00000000000E+00 -0.00000000000E+00 -0.75724897209E+02  0.75724897209E+02  0.00000000000E+00 0. -1.
         25    2    1    2    0    0  0.28701258939E+01  0.44964999608E+01  0.26463884638E+03  0.29271688957E+03  0.12498400815E+03 0.  0.
          2    1    1    2  501    0  0.18402339549E+02 -0.25022111238E+02 -0.57428326709E+02  0.65289852659E+02  0.00000000000E+00 0. -1.
          1    1    1    2  502    0 -0.21272465443E+02  0.20525611277E+02  0.66816780823E+03  0.66882138009E+03  0.00000000000E+00 0. -1.
         22    1    3    3    0    0  0.23366951801E+02 -0.35104428846E+02  0.23596214638E+03  0.23970079242E+03  0.00000000000E+00 0. -1.
         22    1    3    3    0    0 -0.20496825907E+02  0.39600928807E+02  0.28676699996E+02  0.53016097153E+02  0.00000000000E+00 0. -1.
</event>
<event>
 7    1  0.8278507E-006  0.5865721E+02  0.7818608E-02  0.1416231E+00
          2   -1    0    0  502    0  0.00000000000E+00  0.00000000000E+00  0.17675968405E+04  0.17675968405E+04  0.00000000000E+00 0. -1.
          1   -1    0    0  501    0 -0.00000000000E+00 -0.00000000000E+00 -0.31414129771E+03  0.31414129771E+03  0.00000000000E+00 0. -1.
         25    2    1    2    0    0 -0.48254626574E+02  0.49811533838E+02  0.38345958193E+03  0.40923829028E+03  0.12500011750E+03 0.  0.
          2    1    1    2  501    0 -0.10918712782E+02 -0.51997900855E+02 -0.29826388645E+03  0.30295931401E+03  0.00000000000E+00 0. -1.
          1    1    1    2  502    0  0.59173339356E+02  0.21863670168E+01  0.13682598473E+04  0.13695405339E+04  0.00000000000E+00 0. -1.
         22    1    3    3    0    0 -0.49567541979E+02 -0.16923507825E+02  0.63132603242E+02  0.82030920555E+02  0.00000000000E+00 0. -1.
         22    1    3    3    0    0  0.13129154050E+01  0.66735041663E+02  0.32032697868E+03  0.32720736973E+03  0.00000000000E+00 0. -1.
</event>
<event>
 7    1  0.8278507E-006  0.7104912E+02  0.7818608E-02  0.1492626E+00
          2   -1    0    0  502    0  0.00000000000E+00  0.00000000000E+00  0.81330728484E+02  0.81330728484E+02  0.00000000000E+00 0. -1.
          1   -1    0    0  501    0 -0.00000000000E+00 -0.00000000000E+00 -0.38001442930E+03  0.38001442930E+03  0.00000000000E+00 0. -1.
         25    2    1    2    0    0 -0.63255877766E+02 -0.26235084033E+02 -0.32430427916E+02  0.14617173708E+03  0.12499943344E+03 0.  0.
          2    1    1    2  501    0  0.71527674988E+02  0.25757072058E+01 -0.27830604268E+03  0.28736230781E+03  0.00000000000E+00 0. -1.
          1    1    1    2  502    0 -0.82717972220E+01  0.23659376828E+02  0.12052769778E+02  0.27811112895E+02  0.00000000000E+00 0. -1.
         22    1    3    3    0    0 -0.67392783865E+02 -0.33813677763E+02  0.31460416963E+02  0.81700122132E+02  0.00000000000E+00 0. -1.
         22    1    3    3    0    0  0.41369060986E+01  0.75785937300E+01 -0.63890844878E+02  0.64471614950E+02  0.00000000000E+00 0. -1.
</event>
<event>
 7    1  0.8278507E-006  0.4873409E+02  0.7818608E-02  0.1467416E+00
          2   -1    0    0  502    0  0.00000000000E+00  0.00000000000E+00  0.10120928858E+04  0.10120928858E+04  0.00000000000E+00 0. -1.
          1   -1    0    0  501    0 -0.00000000000E+00 -0.00000000000E+00 -0.99775778042E+03  0.99775778042E+03  0.00000000000E+00 0. -1.
         25    2    1    2    0    0  0.64129586660E+02 -0.59823205917E+02  0.30555607261E+03  0.34158445498E+03  0.12499602602E+03 0.  0.
          2    1    1    2  501    0 -0.22791339870E+02  0.37242253768E+02 -0.97845053705E+03  0.97942426154E+03  0.00000000000E+00 0. -1.
          1    1    1    2  502    0 -0.41338246790E+02  0.22580952149E+02  0.68722956978E+03  0.68884194967E+03  0.00000000000E+00 0. -1.
         22    1    3    3    0    0  0.91451154787E+02 -0.67499967373E+02  0.18017663420E+03  0.21303328101E+03  0.00000000000E+00 0. -1.
         22    1    3    3    0    0 -0.27321568127E+02  0.76767614558E+01  0.12537943841E+03  0.12855117397E+03  0.00000000000E+00 0. -1.
</event>
<event>
 7    1  0.8278507E-006  0.5699075E+02  0.7818608E-02  0.1436582E+00
          2   -1    0    0  502    0  0.00000000000E+00  0.00000000000E+00  0.33033872404E+03  0.33033872404E+03  0.00000000000E+00 0. -1.
          1   -1    0    0  501    0 -0.00000000000E+00 -0.00000000000E+00 -0.22884297672E+03  0.22884297672E+03  0.00000000000E+00 0. -1.
         25    2    1    2    0    0 -0.20300784128E+02  0.23962742218E+02 -0.80870235172E+02  0.15215746078E+03  0.12500225231E+03 0.  0.
          2    1    1    2  501    0 -0.47749345734E+00 -0.65930958115E+02 -0.10056075259E+03  0.12024801121E+03  0.00000000000E+00 0. -1.
          1    1    1    2  502    0  0.20778277585E+02  0.41968215897E+02  0.28292673508E+03  0.28677622878E+03  0.00000000000E+00 0. -1.
         22    1    3    3    0    0 -0.61271292819E+02  0.12543901871E+02 -0.89077506737E+02  0.10884081497E+03  0.00000000000E+00 0.  1.
         22    1    3    3    0    0  0.40970508692E+02  0.11418840347E+02  0.82072715647E+01  0.43316645806E+02  0.00000000000E+00 0.  1.
</event>
<event>
 7    1  0.8278507E-006  0.4694180E+02  0.7818608E-02  0.1463456E+00
          2   -1    0    0  502    0  0.00000000000E+00  0.00000000000E+00  0.19158274211E+02  0.19158274211E+02  0.00000000000E+00 0. -1.
          1   -1    0    0  501    0 -0.00000000000E+00 -0.00000000000E+00 -0.15054546090E+04  0.15054546090E+04  0.00000000000E+00 0. -1.
         25    2    1    2    0    0  0.10161131090E+01 -0.27980612222E+01 -0.83783320656E+03  0.84711113655E+03  0.12499573598E+03 0.  0.
          2    1    1    2  501    0  0.43631612651E+02 -0.17315152753E+02 -0.61810723533E+03  0.61988715627E+03  0.00000000000E+00 0. -1.
          1    1    1    2  502    0 -0.44647725760E+02  0.20113213976E+02 -0.30355892880E+02  0.57614590379E+02  0.00000000000E+00 0. -1.
         22    1    3    3    0    0  0.51794306351E+02 -0.37403516334E+00 -0.17965100919E+03  0.18696864757E+03  0.00000000000E+00 0. -1.
         22    1    3    3    0    0 -0.50778193242E+02 -0.24240260588E+01 -0.65818219738E+03  0.66014248898E+03  0.00000000000E+00 0. -1.
</event>
<event>
 7    1  0.8278507E-006  0.7011214E+02  0.7818608E-02  0.1373572E+00
          2   -1    0    0  502    0  0.00000000000E+00  0.00000000000E+00  0.22614350609E+04  0.22614350609E+04  0.00000000000E+00 0. -1.
          1   -1    0    0  501    0 -0.00000000000E+00 -0.00000000000E+00 -0.46019806891E+02  0.46019806891E+02  0.00000000000E+00 0. -1.
         25    2    1    2    0    0  0.42956718147E+02 -0.13358351682E+02  0.11791365118E+03  0.17763055624E+03  0.12500104072E+03 0.  0.
          2    1    1    2  501    0  0.90651471333E+01  0.61814774606E+02  0.47227061664E+02  0.78317549793E+02  0.00000000000E+00 0. -1.
          1    1    1    2  502    0 -0.52021865280E+02 -0.48456422924E+02  0.20502745412E+04  0.20515067618E+04  0.00000000000E+00 0. -1.
         22    1    3    3    0    0  0.55193773937E+02 -0.61747476285E+02  0.69932169440E+02  0.10839562644E+03  0.00000000000E+00 0.  1.
         22    1    3    3    0    0 -0.12237055791E+02  0.48389124603E+02  0.47981481740E+02  0.69234929799E+02  0.00000000000E+00 0.  1.
</event>
<event>
 7    1  0.8278507E-006  0.9108582E+02  0.7818608E-02  0.1343423E+00
          2   -1    0    0  502    0  0.00000000000E+00  0.00000000000E+00  0.46858658561E+03  0.46858658561E+03  0.00000000000E+00 0. -1.
          1   -1    0    0  501    0 -0.00000000000E+00 -0.00000000000E+00 -0.27274967088E+03  0.27274967088E+03  0.00000000000E+00 0. -1.
         25    2    1    2    0    0  0.29182742350E+02  0.23557058393E+02  0.37789885050E+02  0.13587111792E+03  0.12500527118E+03 0.  0.
          2    1    1    2  501    0  0.32583327281E+02  0.52740247698E+02 -0.21290354681E+03  0.22174563624E+03  0.00000000000E+00 0. -1.
          1    1    1    2  502    0 -0.61766069631E+02 -0.76297306092E+02  0.37095057649E+03  0.38371950233E+03  0.00000000000E+00 0. -1.
         22    1    3    3    0    0 -0.11673468863E+02 -0.10221673590E+02  0.71423942528E+02  0.73089890221E+02  0.00000000000E+00 0.  1.
         22    1    3    3    0    0  0.40856211213E+02  0.33778731983E+02 -0.33634057478E+02  0.62781227699E+02  0.00000000000E+00 0.  1.
</event>
<event>
 7    1  0.8278507E-006  0.1085734E+03  0.7818608E-02  0.1326929E+00
          2   -1    0    0  502    0  0.00000000000E+00  0.00000000000E+00  0.65629649938E+03  0.65629649938E+03  0.00000000000E+00 0. -1.
          1   -1    0    0  501    0 -0.00000000000E+00 -0.00000000000E+00 -0.52322916935E+03  0.52322916935E+03  0.00000000000E+00 0. -1.
         25    2    1    2    0    0  0.16595193645E+03 -0.13997783406E+02 -0.28476656628E+03  0.35278005815E+03  0.12500315597E+03 0.  0.
          2    1    1    2  501    0 -0.59870730467E+02 -0.47740007552E+01 -0.19524477390E+03  0.20427387788E+03  0.00000000000E+00 0. -1.
          1    1    1    2  502    0 -0.10608120599E+03  0.18771784161E+02  0.61307867021E+03  0.62247173270E+03  0.00000000000E+00 0. -1.
         22    1    3    3    0    0  0.28720011306E+02 -0.57493487838E+02 -0.86540564409E+02  0.10779429243E+03  0.00000000000E+00 0.  1.
         22    1    3    3    0    0  0.13723192515E+03  0.43495704432E+02 -0.19822600188E+03  0.24498576571E+03  0.00000000000E+00 0.  1.
</event>
<event>
 7    1  0.8278507E-006  0.8746171E+02  0.7818608E-02  0.1463382E+00
          2   -1    0    0  502    0  0.00000000000E+00  0.00000000000E+00  0.17673468578E+02  0.17673468578E+02  0.00000000000E+00 0. -1.
          1   -1    0    0  501    0 -0.00000000000E+00 -0.00000000000E+00 -0.15220835385E+04  0.15220835385E+04  0.00000000000E+00 0. -1.
         25    2    1    2    0    0 -0.22478161072E+02  0.97508008875E+02 -0.10136084278E+04  0.10261777658E+04  0.12500273005E+03 0.  0.
          2    1    1    2  501    0  0.22100951859E+02 -0.11785533658E+02 -0.33347306694E+03  0.33441237604E+03  0.00000000000E+00 0. -1.
          1    1    1    2  502    0  0.37720921256E+00 -0.85722475217E+02 -0.15732857522E+03  0.17916686531E+03  0.00000000000E+00 0. -1.
         22    1    3    3    0    0  0.46412098421E+02  0.27285089046E+02 -0.52580382893E+03  0.52855295428E+03  0.00000000000E+00 0. -1.
         22    1    3    3    0    0 -0.68890259493E+02  0.70222919829E+02 -0.48780459888E+03  0.49762481149E+03  0.00000000000E+00 0. -1.
</event>
<event>
 7    1  0.8278507E-006  0.5878780E+02  0.7818608E-02  0.1411678E+00
          2   -1    0    0  502    0  0.00000000000E+00  0.00000000000E+00  0.24308822093E+04  0.24308822093E+04  0.00000000000E+00 0. -1.
          1   -1    0    0  501    0 -0.00000000000E+00 -0.00000000000E+00 -0.26007067249E+03  0.26007067249E+03  0.00000000000E+00 0. -1.
         25    2    1    2    0    0 -0.19022028447E+01  0.15764340886E+02  0.46426633028E+03  0.48106687057E+03  0.12501990123E+03 0.  0.
          2    1    1    2  501    0 -0.53891997201E+02  0.10576984157E+02 -0.24818163831E+03  0.25418565174E+03  0.00000000000E+00 0. -1.
          1    1    1    2  502    0  0.55794200046E+02 -0.26341325042E+02  0.19547268448E+04  0.19557003595E+04  0.00000000000E+00 0. -1.
         22    1    3    3    0    0  0.55809787054E+02 -0.15031554021E+02  0.16798986715E+03  0.17765493355E+03  0.00000000000E+00 0. -1.
         22    1    3    3    0    0 -0.57711989898E+02  0.30795894907E+02  0.29627646313E+03  0.30341193702E+03  0.00000000000E+00 0. -1.
</event>
<event>
 7    1  0.8278507E-006  0.4411023E+02  0.7818608E-02  0.1561332E+00
          2   -1    0    0  502    0  0.00000000000E+00  0.00000000000E+00  0.14741225300E+04  0.14741225300E+04  0.00000000000E+00 0. -1.
          1   -1    0    0  501    0 -0.00000000000E+00 -0.00000000000E+00 -0.24110091926E+03  0.24110091926E+03  0.00000000000E+00 0. -1.
         25    2    1    2    0    0  0.28429992539E+02 -0.55185218244E+02 -0.18609197060E+03  0.23261572715E+03  0.12500472874E+03 0.  0.
          2    1    1    2  501    0  0.39768207629E+01  0.25293772097E+02 -0.26193091803E+02  0.36628787428E+02  0.00000000000E+00 0. -1.
          1    1    1    2  502    0 -0.32406813302E+02  0.29891446148E+02  0.14453066732E+04  0.14459789347E+04  0.00000000000E+00 0. -1.
         22    1    3    3    0    0 -0.18645645420E+02 -0.81300730921E+02 -0.91777093072E+02  0.12401815897E+03  0.00000000000E+00 0.  1.
         22    1    3    3    0    0  0.47075637959E+02  0.26115512677E+02 -0.94314877527E+02  0.10859756818E+03  0.00000000000E+00 0.  1.
</event>
<event>
 7    1  0.8278507E-006  0.4281006E+02  0.7818608E-02  0.1557348E+00
          2   -1    0    0  502    0  0.00000000000E+00  0.00000000000E+00  0.27154448638E+04  0.27154448638E+04  0.00000000000E+00 0. -1.
          1   -1    0    0  501    0 -0.00000000000E+00 -0.00000000000E+00 -0.17691353683E+03  0.17691353683E+03  0.00000000000E+00 0. -1.
         25    2    1    2    0    0 -0.12649076183E+02 -0.66344458794E+02  0.14432186879E+04  0.14501953842E+04  0.12499954057E+03 0.  0.
          2    1    1    2  501    0  0.61064504197E+01  0.26359342722E+02 -0.17204411141E+03  0.17415877801E+03  0.00000000000E+00 0. -1.
          1    1    1    2  502    0  0.65426257629E+01  0.39985116072E+02  0.12673567506E+04  0.12680042384E+04  0.00000000000E+00 0. -1.
         22    1    3    3    0    0 -0.52359753526E+02  0.17795089742E+01  0.32457584650E+03  0.32877680966E+03  0.00000000000E+00 0.  1.
         22    1    3    3    0    0  0.39710677344E+02 -0.68123967769E+02  0.11186428414E+04  0.11214185746E+04  0.00000000000E+00 0.  1.
</event>
<event>
 7    1  0.8278507E-006  0.3580266E+02  0.7818608E-02  0.1604287E+00
          2   -1    0    0  502    0  0.00000000000E+00  0.00000000000E+00  0.18123768826E+04  0.18123768826E+04  0.00000000000E+00 0. -1.
          1   -1    0    0  501    0 -0.00000000000E+00 -0.00000000000E+00 -0.85627394559E+03  0.85627394559E+03  0.00000000000E+00 0. -1.
         25    2    1    2    0    0 -0.39523352952E+02 -0.10965018761E+01 -0.25878588077E+03  0.29009593648E+03  0.12498888964E+03 0.  0.
          2    1    1    2  501    0  0.10371482331E+02  0.21885843755E+02 -0.58140252015E+03  0.58190673500E+03  0.00000000000E+00 0. -1.
          1    1    1    2  502    0  0.29151870621E+02 -0.20789341879E+02  0.17962913380E+04  0.17966481567E+04  0.00000000000E+00 0. -1.
         22    1    3    3    0    0 -0.73081524443E+02  0.18232689160E+02 -0.92137750100E+02  0.11900716433E+03  0.00000000000E+00 0. -1.
         22    1    3    3    0    0  0.33558171491E+02 -0.19329191036E+02 -0.16664813067E+03  0.17108877215E+03  0.00000000000E+00 0. -1.
</event>
<event>
 7    1  0.8278507E-006  0.7092354E+02  0.7818608E-02  0.1387418E+00
          2   -1    0    0  502    0  0.00000000000E+00  0.00000000000E+00  0.24775161334E+04  0.24775161334E+04  0.00000000000E+00 0. -1.
          1   -1    0    0  501    0 -0.00000000000E+00 -0.00000000000E+00 -0.32487097379E+02  0.32487097379E+02  0.00000000000E+00 0. -1.
         25    2    1    2    0    0 -0.30047322638E+02 -0.10816261559E+03  0.10288457239E+04  0.10424740128E+04  0.12500620298E+03 0.  0.
          2    1    1    2  501    0  0.42925011271E+02  0.54515485665E+02  0.22774458826E+02  0.73028561157E+02  0.00000000000E+00 0. -1.
          1    1    1    2  502    0 -0.12877688634E+02  0.53647129926E+02  0.13934088532E+04  0.13945006567E+04  0.00000000000E+00 0. -1.
         22    1    3    3    0    0  0.62629452526E+01 -0.10724920155E+03  0.94515795511E+03  0.95124401486E+03  0.00000000000E+00 0. -1.
         22    1    3    3    0    0 -0.36310267890E+02 -0.91341404483E+00  0.83687768834E+02  0.91229997982E+02  0.00000000000E+00 0. -1.
</event>
<event>
 7    1  0.8278507E-006  0.9444815E+02  0.7818608E-02  0.1355339E+00
          2   -1    0    0  502    0  0.00000000000E+00  0.00000000000E+00  0.32024435391E+03  0.32024435391E+03  0.00000000000E+00 0. -1.
          1   -1    0    0  501    0 -0.00000000000E+00 -0.00000000000E+00 -0.17917726331E+03  0.17917726331E+03  0.00000000000E+00 0. -1.
         25    2    1    2    0    0  0.12591846941E+03 -0.67081539069E+02  0.26064047003E+02  0.19146495793E+03  0.12499640693E+03 0.  0.
          2    1    1    2  501    0 -0.48957536359E+02  0.22790626078E+02 -0.78368117175E+02  0.95172552729E+02  0.00000000000E+00 0. -1.
          1    1    1    2  502    0 -0.76960933047E+02  0.44290912991E+02  0.19337116077E+03  0.21278410656E+03  0.00000000000E+00 0. -1.
         22    1    3    3    0    0  0.35147021549E+01 -0.71784926274E+01  0.52112692378E+02  0.52722069331E+02  0.00000000000E+00 0.  1.
         22    1    3    3    0    0  0.12240376725E+03 -0.59903046441E+02 -0.26048645374E+02  0.13874288860E+03  0.00000000000E+00 0.  1.
</event>
<event>
 7    1  0.8278507E-006  0.8405268E+02  0.7818608E-02  0.1384106E+00
          2   -1    0    0  502    0  0.00000000000E+00  0.00000000000E+00  0.87257821911E+03  0.87257821911E+03  0.00000000000E+00 0. -1.
          1   -1    0    0  501    0 -0.00000000000E+00 -0.00000000000E+00 -0.29013488197E+03  0.29013488197E+03  0.00000000000E+00 0. -1.
         25    2    1    2    0    0  0.89437180866E+01 -0.11253958575E+03  0.14371353801E+03  0.22141347921E+03  0.12500079725E+03 0.  0.
          2    1    1    2  501    0 -0.37624666561E+02  0.74279326195E+02 -0.24352748549E+03  0.25736874329E+03  0.00000000000E+00 0. -1.
          1    1    1    2  502    0  0.28680948474E+02  0.38260259554E+02  0.68225728462E+03  0.68393087859E+03  0.00000000000E+00 0. -1.
         22    1    3    3    0    0 -0.54180889987E+01 -0.89913929629E+02  0.16446668062E+03  0.18751842433E+03  0.00000000000E+00 0.  1.
         22    1    3    3    0    0  0.14361807085E+02 -0.22625656120E+02 -0.20753142602E+02  0.33895054883E+02  0.00000000000E+00 0.  1.
</event>
<event>
 7    1  0.8278507E-006  0.4373858E+02  0.7818608E-02  0.1579731E+00
          2   -1    0    0  502    0  0.00000000000E+00  0.00000000000E+00  0.21111380610E+03  0.21111380610E+03  0.00000000000E+00 0. -1.
          1   -1    0    0  501    0 -0.00000000000E+00 -0.00000000000E+00 -0.14222226889E+04  0.14222226889E+04  0.00000000000E+00 0. -1.
         25    2    1    2    0    0  0.16123071764E+02 -0.61224347041E+02  0.82752345060E+02  0.16271537208E+03  0.12497986871E+03 0.  0.
          2    1    1    2  501    0 -0.12440947856E+00  0.23016069595E+02 -0.13772861764E+04  0.13774784813E+04  0.00000000000E+00 0. -1.
          1    1    1    2  502    0 -0.15998662285E+02  0.38208277446E+02  0.83424948473E+02  0.93142641621E+02  0.00000000000E+00 0. -1.
         22    1    3    3    0    0 -0.69520696575E+01 -0.97149610722E+02  0.56865097278E+02  0.11278305469E+03  0.00000000000E+00 0.  1.
         22    1    3    3    0    0  0.23075141421E+02  0.35925263681E+02  0.25887247782E+02  0.49932317389E+02  0.00000000000E+00 0.  1.
</event>
<event>
 7    1  0.8278507E-006  0.1018521E+03  0.7818608E-02  0.1369008E+00
          2   -1    0    0  502    0  0.00000000000E+00  0.00000000000E+00  0.87232505295E+03  0.87232505295E+03  0.00000000000E+00 0. -1.
          1   -1    0    0  501    0 -0.00000000000E+00 -0.00000000000E+00 -0.59730838851E+03  0.59730838851E+03  0.00000000000E+00 0. -1.
         25    2    1    2    0    0 -0.36928066727E+02 -0.44762574494E+02 -0.24554811464E+03  0.28157885004E+03  0.12500160799E+03 0.  0.
          2    1    1    2  501    0 -0.22557653243E+02 -0.38543678721E+02 -0.32916524381E+03  0.33218100581E+03  0.00000000000E+00 0. -1.
          1    1    1    2  502    0  0.59485719969E+02  0.83306253215E+02  0.84973002290E+03  0.85587358559E+03  0.00000000000E+00 0. -1.
         22    1    3    3    0    0 -0.14783889085E+01 -0.36581187908E+02 -0.24230256420E+03  0.24505285462E+03  0.00000000000E+00 0.  1.
         22    1    3    3    0    0 -0.35449677818E+02 -0.81813865857E+01 -0.32455504479E+01  0.36525995422E+02  0.00000000000E+00 0.  1.
</event>
<event>
 7    1  0.8278507E-006  0.3715908E+02  0.7818608E-02  0.1624798E+00
          2   -1    0    0  502    0  0.00000000000E+00  0.00000000000E+00  0.95665671199E+03  0.95665671199E+03  0.00000000000E+00 0. -1.
          1   -1    0    0  501    0 -0.00000000000E+00 -0.00000000000E+00 -0.58354604309E+03  0.58354604309E+03  0.00000000000E+00 0. -1.
         25    2    1    2    0    0 -0.26119521456E+02 -0.31331629702E+02  0.84849582973E+03  0.85862320911E+03  0.12499896691E+03 0.  0.
          2    1    1    2  501    0  0.34945549242E+02  0.12637516336E+02 -0.57684213057E+03  0.57803783771E+03  0.00000000000E+00 0. -1.
          1    1    1    2  502    0 -0.88260277853E+01  0.18694113366E+02  0.10145696974E+03  0.10354170826E+03  0.00000000000E+00 0. -1.
         22    1    3    3    0    0 -0.67760270985E+02 -0.38087331612E+02  0.35930822241E+03  0.36762004549E+03  0.00000000000E+00 0.  1.
         22    1    3    3    0    0  0.41640749529E+02  0.67557019095E+01  0.48918760732E+03  0.49100316362E+03  0.00000000000E+00 0.  1.
</event>
<event>
 7    1  0.8278507E-006  0.9857220E+02  0.7818608E-02  0.1383730E+00
          2   -1    0    0  502    0  0.00000000000E+00  0.00000000000E+00  0.25854668347E+04  0.25854668347E+04  0.00000000000E+00 0. -1.
          1   -1    0    0  501    0 -0.00000000000E+00 -0.00000000000E+00 -0.23779449921E+02  0.23779449921E+02  0.00000000000E+00 0. -1.
         25    2    1    2    0    0 -0.28857030394E+02 -0.10173722364E+03  0.41744646196E+03  0.44840872519E+03  0.12500258137E+03 0.  0.
          2    1    1    2  501    0  0.60476290545E+02  0.75797578741E+02  0.28307820724E+03  0.29922554382E+03  0.00000000000E+00 0. -1.
          1    1    1    2  502    0 -0.31619260151E+02  0.25939644899E+02  0.18611627156E+04  0.18616120156E+04  0.00000000000E+00 0. -1.
         22    1    3    3    0    0  0.41353634651E+02 -0.79986777972E+02  0.21912728140E+03  0.23690667615E+03  0.00000000000E+00 0. -1.
         22    1    3    3    0    0 -0.70210665045E+02 -0.21750445668E+02  0.19831918055E+03  0.21150204904E+03  0.00000000000E+00 0. -1.
</event>
<event>
 7    1  0.8278507E-006  0.9985121E+02  0.7818608E-02  0.1311586E+00
          2   -1    0    0  502    0  0.00000000000E+00  0.00000000000E+00  0.71269298385E+03  0.71269298385E+03  0.00000000000E+00 0. -1.
          1   -1    0    0  501    0 -0.00000000000E+00 -0.00000000000E+00 -0.76703393925E+03  0.76703393925E+03  0.00000000000E+00 0. -1.
         25    2    1    2    0    0 -0.11927301837E+01  0.74429634225E+02 -0.21077117026E+02  0.14700719826E+03  0.12500271366E+03 0.  0.
          2    1    1    2  501    0 -0.73671495984E+02 -0.71704979822E+02 -0.67693839134E+03  0.68470043020E+03  0.00000000000E+00 0. -1.
          1    1    1    2  502    0  0.74864226167E+02 -0.27246544029E+01  0.64367455296E+03  0.64801929465E+03  0.00000000000E+00 0. -1.
         22    1    3    3    0    0  0.51537207039E+02  0.47815366151E+02  0.22266875643E+02  0.73744197741E+02  0.00000000000E+00 0. -1.
         22    1    3    3    0    0 -0.52729937223E+02  0.26614268074E+02 -0.43343992668E+02  0.73263000519E+02  0.00000000000E+00 0. -1.
</event>
<event>
 7    1  0.8278507E-006  0.4968496E+02  0.7818608E-02  0.1451296E+00
          2   -1    0    0  502    0  0.00000000000E+00  0.00000000000E+00  0.30307390053E+03  0.30307390053E+03  0.00000000000E+00 0. -1.
          1   -1    0    0  501    0 -0.00000000000E+00 -0.00000000000E+00 -0.78704995552E+02  0.78704995552E+02  0.00000000000E+00 0. -1.
         25    2    1    2    0    0 -0.80381520342E+01  0.57273588544E+02  0.12411396518E+03  0.18541467730E+03  0.12501780022E+03 0.  0.
          2    1    1    2  501    0 -0.36470616879E+02 -0.31441274597E+02 -0.29710703965E+02  0.56580788029E+02  0.00000000000E+00 0. -1.
          1    1    1    2  502    0  0.44508768913E+02 -0.25832313947E+02  0.12996564376E+03  0.13978343075E+03  0.00000000000E+00 0. -1.
         22    1    3    3    0    0 -0.64393859061E+02  0.12108410570E+02  0.59748484863E+02  0.88673920263E+02  0.00000000000E+00 0. -1.
         22    1    3    3    0    0  0.56355707027E+02  0.45165177974E+02  0.64365480318E+02  0.96740757039E+02  0.00000000000E+00 0. -1.
</event>
<event>
 7    1  0.8278507E-006  0.9845390E+02  0.7818608E-02  0.1395203E+00
          2   -1    0    0  502    0  0.00000000000E+00  0.00000000000E+00  0.23327614340E+04  0.23327614340E+04  0.00000000000E+00 0. -1.
          1   -1    0    0  501    0 -0.00000000000E+00 -0.00000000000E+00 -0.95337396103E+03  0.95337396103E+03  0.00000000000E+00 0. -1.
         25    2    1    2    0    0 -0.95707273763E+02  0.91886973690E+02  0.15766013091E+03  0.24100692431E+03  0.12499808999E+03 0.  0.
          2    1    1    2  501    0  0.61932266173E+02 -0.75968404879E+02 -0.90890221063E+03  0.91417177413E+03  0.00000000000E+00 0. -1.
          1    1    1    2  502    0  0.33775007590E+02 -0.15918568811E+02  0.21306295527E+04  0.21309566966E+04  0.00000000000E+00 0. -1.
         22    1    3    3    0    0  0.14421707000E+02 -0.20414099296E+02  0.21383845035E+02  0.32893615054E+02  0.00000000000E+00 0.  1.
         22    1    3    3    0    0 -0.11012898076E+03  0.11230107299E+03  0.13627628588E+03  0.20811330926E+03  0.00000000000E+00 0.  1.
</event>
<event>
 7    1  0.8278507E-006  0.2642140E+03  0.7818608E-02  0.1260401E+00
          2   -1    0    0  502    0  0.00000000000E+00  0.00000000000E+00  0.15878630886E+03  0.15878630886E+03  0.00000000000E+00 0. -1.
          1   -1    0    0  501    0 -0.00000000000E+00 -0.00000000000E+00 -0.21355195072E+04  0.21355195072E+04  0.00000000000E+00 0. -1.
         25    2    1    2    0    0 -0.51163893135E+02  0.24766482618E+03 -0.57736964797E+03  0.64260208189E+03  0.12500446057E+03 0.  0.
          2    1    1    2  501    0  0.10592456580E+02 -0.26907067293E+03 -0.15090102982E+04  0.15328481031E+04  0.00000000000E+00 0. -1.
          1    1    1    2  502    0  0.40571436555E+02  0.21405846751E+02  0.10964674780E+03  0.11885563109E+03  0.00000000000E+00 0. -1.
         22    1    3    3    0    0  0.12668940505E+02  0.11140782806E+03 -0.13584366667E+03  0.17614115925E+03  0.00000000000E+00 0.  1.
         22    1    3    3    0    0 -0.63832833640E+02  0.13625699812E+03 -0.44152598130E+03  0.46646092264E+03  0.00000000000E+00 0.  1.
</event>
<event>
 7    1  0.8278507E-006  0.8108711E+02  0.7818608E-02  0.1434412E+00
          2   -1    0    0  502    0  0.00000000000E+00  0.00000000000E+00  0.21290494390E+03  0.21290494390E+03  0.00000000000E+00 0. -1.
          1   -1    0    0  501    0 -0.00000000000E+00 -0.00000000000E+00 -0.18638936404E+03  0.18638936404E+03  0.00000000000E+00 0. -1.
         25    2    1    2    0    0 -0.65607208588E+02  0.17572246293E+02 -0.27913875881E+02  0.14497338191E+03  0.12500002935E+03 0.  0.
          2    1    1    2  501    0 -0.17117738349E+02 -0.28744405120E+02 -0.85260577696E+02  0.91589431164E+02  0.00000000000E+00 0. -1.
          1    1    1    2  502    0  0.82724946937E+02  0.11172158826E+02  0.13969003344E+03  0.16273149486E+03  0.00000000000E+00 0. -1.
         22    1    3    3    0    0 -0.10723289988E+02 -0.48501908991E+02 -0.31816777670E+02  0.58989248726E+02  0.00000000000E+00 0.  1.
         22    1    3    3    0    0 -0.54883918599E+02  0.66074155284E+02  0.39029017889E+01  0.85984133186E+02  0.00000000000E+00 0.  1.
</event>
<event>
 7    1  0.8278507E-006  0.1569171E+03  0.7818608E-02  0.1410198E+00
          2   -1    0    0  502    0  0.00000000000E+00  0.00000000000E+00  0.16238496736E+04  0.16238496736E+04  0.00000000000E+00 0. -1.
          1   -1    0    0  501    0 -0.00000000000E+00 -0.00000000000E+00 -0.65152210846E+03  0.65152210846E+03  0.00000000000E+00 0. -1.
         25    2    1    2    0    0  0.12680906723E+03 -0.52396228502E+02 -0.12332125109E+03  0.22284096577E+03  0.12499624298E+03 0.  0.
          2    1    1    2  501    0  0.20659184505E+02 -0.25351790786E+01 -0.47427905628E+03  0.47473556035E+03  0.00000000000E+00 0. -1.
          1    1    1    2  502    0 -0.14746825173E+03  0.54931407581E+02  0.15699278725E+04  0.15777952560E+04  0.00000000000E+00 0. -1.
         22    1    3    3    0    0 -0.20402742820E+02  0.13103903884E+02 -0.12478844005E+02  0.27270969167E+02  0.00000000000E+00 0. -1.
         22    1    3    3    0    0  0.14721181005E+03 -0.65500132387E+02 -0.11084240709E+03  0.19556999660E+03  0.00000000000E+00 0. -1.
</event>
<event>
 7    1  0.8278507E-006  0.4616401E+02  0.7818608E-02  0.1544345E+00
          2   -1    0    0  502    0  0.00000000000E+00  0.00000000000E+00  0.78534943984E+03  0.78534943984E+03  0.00000000000E+00 0. -1.
          1   -1    0    0  501    0 -0.00000000000E+00 -0.00000000000E+00 -0.13042489348E+04  0.13042489348E+04  0.00000000000E+00 0. -1.
         25    2    1    2    0    0 -0.43017021136E+02  0.53119775357E+02 -0.50060175349E+02  0.15100128819E+03  0.12499277274E+03 0.  0.
          2    1    1    2  501    0  0.52922727735E+01 -0.26756231194E+02 -0.12028428649E+04  0.12031520526E+04  0.00000000000E+00 0. -1.
          1    1    1    2  502    0  0.37724748362E+02 -0.26363544163E+02  0.73400354536E+03  0.73544503377E+03  0.00000000000E+00 0. -1.
         22    1    3    3    0    0  0.25872356007E+02 -0.70658258381E+01  0.21889831270E+02  0.34618916984E+02  0.00000000000E+00 0. -1.
         22    1    3    3    0    0 -0.68889377142E+02  0.60185601195E+02 -0.71950006619E+02  0.11638237120E+03  0.00000000000E+00 0. -1.
</event>
<event>
 7    1  0.8278507E-006  0.1058807E+03  0.7818608E-02  0.1321409E+00
          2   -1    0    0  502    0  0.00000000000E+00  0.00000000000E+00  0.64279254817E+03  0.64279254817E+03  0.00000000000E+00 0. -1.
          1   -1    0    0  501    0 -0.00000000000E+00 -0.00000000000E+00 -0.15900584335E+04  0.15900584335E+04  0.00000000000E+00 0. -1.
         25    2    1    2    0    0  0.59781156166E+02  0.24789313448E+02 -0.23366160357E+03  0.27278485491E+03  0.12500214155E+03 0.  0.
          2    1    1    2  501    0 -0.11078427408E+03  0.14988472726E+02 -0.13328105432E+04  0.13374908425E+04  0.00000000000E+00 0. -1.
          1    1    1    2  502    0  0.51003117916E+02 -0.39777786174E+02  0.61920626147E+03  0.62257528424E+03  0.00000000000E+00 0. -1.
         22    1    3    3    0    0  0.61891409216E+02 -0.70020952724E+01 -0.34723057410E+02  0.71311055165E+02  0.00000000000E+00 0.  1.
         22    1    3    3    0    0 -0.21102530501E+01  0.31791408720E+02 -0.19893854616E+03  0.20147379975E+03  0.00000000000E+00 0.  1.
</event>
<event>
 7    1  0.8278507E-006  0.2649801E+03  0.7818608E-02  0.1304884E+00
          2   -1    0    0  502    0  0.00000000000E+00  0.00000000000E+00  0.11191716102E+04  0.11191716102E+04  0.00000000000E+00 0. -1.
          1   -1    0    0  501    0 -0.00000000000E+00 -0.00000000000E+00 -0.19226824439E+03  0.19226824439E+03  0.00000000000E+00 0. -1.
         25    2    1    2    0    0 -0.21186590535E+03  0.19907630382E+03  0.86480136329E+03  0.92088256392E+03  0.12499904800E+03 0.  0.
          2    1    1    2  501    0  0.19633808351E+03 -0.17340249511E+03 -0.56708556917E+02  0.26801665764E+03  0.00000000000E+00 0. -1.
          1    1    1    2  502    0  0.15527821846E+02 -0.25673808713E+02  0.11881055946E+03  0.12254063304E+03  0.00000000000E+00 0. -1.
         22    1    3    3    0    0  0.10766842157E+02  0.39816654347E+02  0.86081282578E+02  0.95453014953E+02  0.00000000000E+00 0.  1.
         22    1    3    3    0    0 -0.22263274751E+03  0.15925964948E+03  0.77872008071E+03  0.82542954897E+03  0.00000000000E+00 0.  1.
</event>
<event>
 7    1  0.8278507E-006  0.8231383E+02  0.7818608E-02  0.1325741E+00
          2   -1    0    0  502    0  0.00000000000E+00  0.00000000000E+00  0.22594399669E+03  0.22594399669E+03  0.00000000000E+00 0. -1.
          1   -1    0    0  501    0 -0.00000000000E+00 -0.00000000000E+00 -0.12349777449E+04  0.12349777449E+04  0.00000000000E+00 0. -1.
         25    2    1    2    0    0 -0.92058085415E+02 -0.12784587902E+03 -0.27609606517E+02  0.20296384979E+03  0.12495108674E+03 0.  0.
          2    1    1    2  501    0  0.32568456491E+02  0.74270719285E+02 -0.11064926490E+04  0.11094606016E+04  0.00000000000E+00 0. -1.
          1    1    1    2  502    0  0.59489628924E+02  0.53575159736E+02  0.12506850731E+03  0.14849729025E+03  0.00000000000E+00 0. -1.
         22    1    3    3    0    0  0.27347299118E+02 -0.10216696074E+02  0.10585989689E+02  0.31053483305E+02  0.00000000000E+00 0.  1.
         22    1    3    3    0    0 -0.11940538453E+03 -0.11762918295E+03 -0.38195596206E+02  0.17191036649E+03  0.00000000000E+00 0.  1.
</event>
<event>
 7    1  0.8278507E-006  0.9388185E+02  0.7818608E-02  0.1315753E+00
          2   -1    0    0  502    0  0.00000000000E+00  0.00000000000E+00  0.51144208350E+03  0.51144208350E+03  0.00000000000E+00 0. -1.
          1   -1    0    0  501    0 -0.00000000000E+00 -0.00000000000E+00 -0.10062407902E+03  0.10062407902E+03  0.00000000000E+00 0. -1.
         25    2    1    2    0    0  0.48043624037E+02 -0.94439674196E+02  0.36965721349E+03  0.40435236957E+03  0.12500936533E+03 0.  0.
          2    1    1    2  501    0 -0.76636410436E+02  0.39243318920E+01 -0.36588073014E+02  0.85013098239E+02  0.00000000000E+00 0. -1.
          1    1    1    2  502    0  0.28592786399E+02  0.90515342304E+02  0.77748864009E+02  0.12270069471E+03  0.00000000000E+00 0. -1.
         22    1    3    3    0    0  0.28609973666E+02  0.27730140739E+02  0.79513325915E+02  0.88937395378E+02  0.00000000000E+00 0. -1.
         22    1    3    3    0    0  0.19433650371E+02 -0.12216981494E+03  0.29014388758E+03  0.31541497419E+03  0.00000000000E+00 0. -1.
</event>
<event>
 7    1  0.8278507E-006  0.9486836E+02  0.7818608E-02  0.1440651E+00
          2   -1    0    0  502    0  0.00000000000E+00  0.00000000000E+00  0.34070740691E+03  0.34070740691E+03  0.00000000000E+00 0. -1.
          1   -1    0    0  501    0 -0.00000000000E+00 -0.00000000000E+00 -0.16992941103E+04  0.16992941103E+04  0.00000000000E+00 0. -1.
         25    2    1    2    0    0  0.36926480704E+02  0.10054805406E+03 -0.37814789295E+03  0.41242831661E+03  0.12501124448E+03 0.  0.
          2    1    1    2  501    0 -0.10610607991E+02 -0.93328092523E+02 -0.13017354195E+04  0.13051198490E+04  0.00000000000E+00 0. -1.
          1    1    1    2  502    0 -0.26315872713E+02 -0.72199615376E+01  0.32129660903E+03  0.32245335163E+03  0.00000000000E+00 0. -1.
         22    1    3    3    0    0 -0.10542292430E+02  0.10966927744E+03 -0.20586355163E+03  0.23349152497E+03  0.00000000000E+00 0. -1.
         22    1    3    3    0    0  0.47468773134E+02 -0.91212233757E+01 -0.17228434132E+03  0.17893679164E+03  0.00000000000E+00 0. -1.
</event>
<event>
 7    1  0.8278507E-006  0.4204853E+02  0.7818608E-02  0.1577818E+00
          2   -1    0    0  502    0  0.00000000000E+00  0.00000000000E+00  0.88905064764E+03  0.88905064764E+03  0.00000000000E+00 0. -1.
          1   -1    0    0  501    0 -0.00000000000E+00 -0.00000000000E+00 -0.75596124004E+03  0.75596124004E+03  0.00000000000E+00 0. -1.
         25    2    1    2    0    0  0.14884573980E+02 -0.37652877065E+02 -0.23080116345E+03  0.26558082591E+03  0.12499883339E+03 0.  0.
          2    1    1    2  501    0  0.90359135082E+01  0.41491267200E+02 -0.50671365448E+03  0.50848982352E+03  0.00000000000E+00 0. -1.
          1    1    1    2  502    0 -0.23920487488E+02 -0.38383901354E+01  0.87060422553E+03  0.87094123825E+03  0.00000000000E+00 0. -1.
         22    1    3    3    0    0  0.63352811965E+02 -0.17657278260E+02 -0.18363477411E+03  0.19505662901E+03  0.00000000000E+00 0.  1.
         22    1    3    3    0    0 -0.48468237985E+02 -0.19995598804E+02 -0.47166389343E+02  0.70524196901E+02  0.00000000000E+00 0.  1.
</event>
<event>
 7    1  0.8278507E-006  0.1059598E+03  0.7818608E-02  0.1400592E+00
          2   -1    0    0  502    0  0.00000000000E+00  0.00000000000E+00  0.17876006774E+04  0.17876006774E+04  0.00000000000E+00 0. -1.
          1   -1    0    0  501    0 -0.00000000000E+00 -0.00000000000E+00 -0.27198775284E+03  0.27198775284E+03  0.00000000000E+00 0. -1.
         25    2    1    2    0    0 -0.11436800712E+03 -0.57395008486E+02  0.10515246564E+04  0.10666318712E+04  0.12500087026E+03 0.  0.
          2    1    1    2  501    0  0.23861370769E+02  0.23141265583E+02 -0.26015841373E+03  0.26227329911E+03  0.00000000000E+00 0. -1.
          1    1    1    2  502    0  0.90506636350E+02  0.34253742903E+02  0.72424668194E+03  0.73068325999E+03  0.00000000000E+00 0. -1.
         22    1    3    3    0    0 -0.61662145078E+02  0.35844786007E+02  0.45810012480E+03  0.46361923295E+03  0.00000000000E+00 0. -1.
         22    1    3    3    0    0 -0.52705862042E+02 -0.93239794493E+02  0.59342453159E+03  0.60301263822E+03  0.00000000000E+00 0. -1.
</event>
<event>
 7    1  0.8278507E-006  0.5461746E+02  0.7818608E-02  0.1565057E+00
          2   -1    0    0  502    0  0.00000000000E+00  0.00000000000E+00  0.15715222621E+04  0.15715222621E+04  0.00000000000E+00 0. -1.
          1   -1    0    0  501    0 -0.00000000000E+00 -0.00000000000E+00 -0.70887941666E+02  0.70887941666E+02  0.00000000000E+00 0. -1.
         25    2    1    2    0    0  0.60871899250E+02 -0.42505456165E+02  0.79005229869E+02  0.16546270519E+03  0.12499591409E+03 0.  0.
          2    1    1    2  501    0 -0.18167171381E+02  0.88273217440E+01 -0.23390707839E+02  0.30904577952E+02  0.00000000000E+00 0. -1.
          1    1    1    2  502    0 -0.42704727870E+02  0.33678134421E+02  0.14450197984E+04  0.14460429206E+04  0.00000000000E+00 0. -1.
         22    1    3    3    0    0  0.65484189595E+02 -0.73803528268E+02  0.23268311019E+02  0.10137334053E+03  0.00000000000E+00 0.  1.
         22    1    3    3    0    0 -0.46122903450E+01  0.31298072103E+02  0.55736918850E+02  0.64089364659E+02  0.00000000000E+00 0.  1.
</event>
<event>
 7    1  0.1968112E-005  0.5974782E+02  0.7818608E-02  0.1419187E+00
          2   -1    0    0  502    0  0.00000000000E+00  0.00000000000E+00  0.20872304377E+04  0.20872304377E+04  0.00000000000E+00 0. -1.
          1   -1    0    0  501    0 -0.00000000000E+00 -0.00000000000E+00 -0.13445176170E+04  0.13445176170E+04  0.00000000000E+00 0. -1.
         25    2    1    2    0    0 -0.27850821139E+02  0.42316214502E+02 -0.26044930972E+03  0.29329721982E+03  0.12499234367E+03 0.  0.
          2    1    1    2  501    0  0.49150846898E+02  0.13556167531E+02 -0.10666036163E+04  0.10678215440E+04  0.00000000000E+00 0. -1.
          1    1    1    2  502    0 -0.21300025760E+02 -0.55872382033E+02  0.20697657467E+04  0.20706292909E+04  0.00000000000E+00 0. -1.
         22    1    3    3    0    0  0.41455666116E+02 -0.84707702409E+01 -0.47202243965E+02  0.63390677839E+02  0.00000000000E+00 0. -1.
         22    1    3    3    0    0 -0.69306487254E+02  0.50786984743E+02 -0.21324706575E+03  0.22990654199E+03  0.00000000000E+00 0. -1.
</event>
<event>
 7    1  0.8278507E-006  0.5289169E+02  0.7818608E-02  0.1468463E+00
          2   -1    0    0  502    0  0.00000000000E+00  0.00000000000E+00  0.25750966185E+02  0.25750966185E+02  0.00000000000E+00 0. -1.
          1   -1    0    0  501    0 -0.00000000000E+00 -0.00000000000E+00 -0.53952176113E+03  0.53952176113E+03  0.00000000000E+00 0. -1.
         25    2    1    2    0    0 -0.41058824132E+02 -0.57688490658E+02 -0.28450653191E+03  0.31872227112E+03  0.12500452157E+03 0.  0.
          2    1    1    2  501    0  0.46382571641E+02  0.18115941817E+02 -0.10911270204E+03  0.11993795082E+03  0.00000000000E+00 0. -1.
          1    1    1    2  502    0 -0.53237475086E+01  0.39572548841E+02 -0.12015156099E+03  0.12661250538E+03  0.00000000000E+00 0. -1.
         22    1    3    3    0    0 -0.33366123881E+01  0.34223996556E+02 -0.30451917498E+02  0.45931843005E+02  0.00000000000E+00 0.  1.
         22    1    3    3    0    0 -0.37722211744E+02 -0.91912487214E+02 -0.25405461441E+03  0.27279042811E+03  0.00000000000E+00 0.  1.
</event>
<event>
 7    1  0.8278507E-006  0.5338148E+02  0.7818608E-02  0.1463074E+00
          2   -1    0    0  502    0  0.00000000000E+00  0.00000000000E+00  0.19609735097E+04  0.19609735097E+04  0.00000000000E+00 0. -1.
          1   -1    0    0  501    0 -0.00000000000E+00 -0.00000000000E+00 -0.56446682906E+03  0.56446682906E+03  0.00000000000E+00 0. -1.
         25    2    1    2    0    0 -0.66528335981E+02 -0.57500014202E+02 -0.28346109868E+03  0.32203643361E+03  0.12499999595E+03 0.  0.
          2    1    1    2  501    0  0.43508855099E+02  0.23416159645E+02 -0.25916602545E+03  0.26383397384E+03  0.00000000000E+00 0. -1.
          1    1    1    2  502    0  0.23019480882E+02  0.34083854557E+02  0.19391338047E+04  0.19395699313E+04  0.00000000000E+00 0. -1.
         22    1    3    3    0    0 -0.75795348585E+02 -0.23141957058E+00 -0.78901295382E+02  0.10940933614E+03  0.00000000000E+00 0.  1.
         22    1    3    3    0    0  0.92670126045E+01 -0.57268594632E+02 -0.20455980330E+03  0.21262709747E+03  0.00000000000E+00 0.  1.
</event>
<event>
 7    1  0.8278507E-006  0.1075042E+03  0.7818608E-02  0.1407944E+00
          2   -1    0    0  502    0  0.00000000000E+00  0.00000000000E+00  0.15866311883E+04  0.15866311883E+04  0.00000000000E+00 0. -1.
          1   -1    0    0  501    0 -0.00000000000E+00 -0.00000000000E+00 -0.17131300261E+04  0.17131300261E+04  0.00000000000E+00 0. -1.
         25    2    1    2    0    0 -0.61450359660E+02 -0.11538549424E+03  0.25059233232E+03  0.30904953579E+03  0.12500055830E+03 0.  0.
          2    1    1    2  501    0 -0.23247919820E+01  0.30833382211E+02 -0.16816133167E+04  0.16818975739E+04  0.00000000000E+00 0. -1.
          1    1    1    2  502    0  0.63775151642E+02  0.84552112026E+02  0.13045221466E+04  0.13088141047E+04  0.00000000000E+00 0. -1.
         22    1    3    3    0    0 -0.59240787356E+02  0.53665268585E+01  0.70980968611E+02  0.92609764075E+02  0.00000000000E+00 0.  1.
         22    1    3    3    0    0 -0.22095723045E+01 -0.12075202110E+03  0.17961136371E+03  0.21643977172E+03  0.00000000000E+00 0.  1.
</event>
<event>
 7    1  0.8278507E-006  0.5099089E+02  0.7818608E-02  0.1504626E+00
          2   -1    0    0  502    0  0.00000000000E+00  0.00000000000E+00  0.17412761882E+04  0.17412761882E+04  0.00000000000E+00 0. -1.
          1   -1    0    0  501    0 -0.00000000000E+00 -0.00000000000E+00 -0.15838749365E+03  0.15838749365E+03  0.00000000000E+00 0. -1.
         25    2    1    2    0    0  0.19104761905E+02 -0.47947524984E+02  0.12027975373E+04  0.12103763663E+04  0.12500030104E+03 0.  0.
          2    1    1    2  501    0  0.25820751641E+02  0.19161302859E+02 -0.15157631590E+03  0.15494917323E+03  0.00000000000E+00 0. -1.
          1    1    1    2  502    0 -0.44925513545E+02  0.28786222124E+02  0.53166747319E+03  0.53433814237E+03  0.00000000000E+00 0. -1.
         22    1    3    3    0    0  0.55258384274E+02  0.64424193182E+01  0.29280504139E+03  0.29804326207E+03  0.00000000000E+00 0.  1.
         22    1    3    3    0    0 -0.36153622369E+02 -0.54389944302E+02  0.90999249591E+03  0.91233310422E+03  0.00000000000E+00 0.  1.
</event>
<event>
 7    1  0.8278507E-006  0.6971151E+02  0.7818608E-02  0.1390522E+00
          2   -1    0    0  502    0  0.00000000000E+00  0.00000000000E+00  0.41621664264E+03  0.41621664264E+03  0.00000000000E+00 0. -1.
          1   -1    0    0  501    0 -0.00000000000E+00 -0.00000000000E+00 -0.55549504832E+02  0.55549504832E+02  0.00000000000E+00 0. -1.
         25    2    1    2    0    0  0.11495107468E+02  0.35674900976E+01  0.96329349154E+02  0.15827327687E+03  0.12500488863E+03 0.  0.
          2    1    1    2  501    0  0.51432957521E+02  0.47056830111E+02  0.19486850381E+03  0.20696238344E+03  0.00000000000E+00 0. -1.
          1    1    1    2  502    0 -0.62928064988E+02 -0.50624320209E+02  0.69469284847E+02  0.10653048717E+03  0.00000000000E+00 0. -1.
         22    1    3    3    0    0  0.16287404573E+02 -0.50436646790E+02  0.65648105575E+01  0.53406288252E+02  0.00000000000E+00 0.  1.
         22    1    3    3    0    0 -0.47922971055E+01  0.54004136888E+02  0.89764538596E+02  0.10486698862E+03  0.00000000000E+00 0.  1.
</event>
<event>
 7    1  0.8278507E-006  0.3730570E+02  0.7818608E-02  0.1613129E+00
          2   -1    0    0  502    0  0.00000000000E+00  0.00000000000E+00  0.17294682263E+04  0.17294682263E+04  0.00000000000E+00 0. -1.
          1   -1    0    0  501    0 -0.00000000000E+00 -0.00000000000E+00 -0.49997403134E+02  0.49997403134E+02  0.00000000000E+00 0. -1.
         25    2    1    2    0    0 -0.16749357655E+02 -0.35795318251E+02  0.51352184329E+03  0.52999131266E+03  0.12499704865E+03 0.  0.
          2    1    1    2  501    0  0.31782221683E+02  0.19661140847E+02 -0.33280199673E+02  0.50042399670E+02  0.00000000000E+00 0. -1.
          1    1    1    2  502    0 -0.15032864028E+02  0.16134177404E+02  0.11992291795E+04  0.11994319171E+04  0.00000000000E+00 0. -1.
         22    1    3    3    0    0 -0.11524846467E+02 -0.71092656934E+02  0.17007218839E+03  0.18469308926E+03  0.00000000000E+00 0.  1.
         22    1    3    3    0    0 -0.52245111877E+01  0.35297338683E+02  0.34344965490E+03  0.34529822340E+03  0.00000000000E+00 0.  1.
</event>
<event>
 7    1  0.8278507E-006  0.7705322E+02  0.7818608E-02  0.1438022E+00
          2   -1    0    0  502    0  0.00000000000E+00  0.00000000000E+00  0.22016405604E+04  0.22016405604E+04  0.00000000000E+00 0. -1.
          1   -1    0    0  501    0 -0.00000000000E+00 -0.00000000000E+00 -0.17879274774E+02  0.17879274774E+02  0.00000000000E+00 0. -1.
         25    2    1    2    0    0  0.59667679764E+02 -0.36603924965E+02  0.10419400659E+04  0.10517426542E+04  0.12499372178E+03 0.  0.
          2    1    1    2  501    0 -0.15197168327E+02 -0.30710112221E+02  0.13903779685E+02  0.36978101727E+02  0.00000000000E+00 0. -1.
          1    1    1    2  502    0 -0.44470511436E+02  0.67314037186E+02  0.11279174401E+04  0.11307990792E+04  0.00000000000E+00 0. -1.
         22    1    3    3    0    0  0.32950752441E+02  0.10659750118E+02  0.88499161851E+03  0.88566898286E+03  0.00000000000E+00 0. -1.
         22    1    3    3    0    0  0.26716927322E+02 -0.47263675082E+02  0.15694844736E+03  0.16607367136E+03  0.00000000000E+00 0. -1.
</event>
<event>
 7    1  0.8278507E-006  0.1498775E+03  0.7818608E-02  0.1313325E+00
          2   -1    0    0  502    0  0.00000000000E+00  0.00000000000E+00  0.12361965482E+04  0.12361965482E+04  0.00000000000E+00 0. -1.
          1   -1    0    0  501    0 -0.00000000000E+00 -0.00000000000E+00 -0.16003200706E+03  0.16003200706E+03  0.00000000000E+00 0. -1.
         25    2    1    2    0    0  0.89514354859E+02  0.17392883815E+03  0.11970365397E+03  0.26118676038E+03  0.12500199420E+03 0.  0.
          2    1    1    2  501    0 -0.24261168808E+02 -0.42722361558E+02 -0.76948018958E+02  0.91295137387E+02  0.00000000000E+00 0. -1.
          1    1    1    2  502    0 -0.65253186050E+02 -0.13120647660E+03  0.10334089062E+04  0.10437466575E+04  0.00000000000E+00 0. -1.
         22    1    3    3    0    0  0.10731130708E+03  0.16940881441E+03  0.13108879724E+03  0.23958158483E+03  0.00000000000E+00 0.  1.
         22    1    3    3    0    0 -0.17796952224E+02  0.45200237476E+01 -0.11385143271E+02  0.21605175548E+02  0.00000000000E+00 0.  1.
</event>
<event>
 7    1  0.8278507E-006  0.6897613E+02  0.7818608E-02  0.1403017E+00
          2   -1    0    0  502    0  0.00000000000E+00  0.00000000000E+00  0.67459809118E+02  0.67459809118E+02  0.00000000000E+00 0. -1.
          1   -1    0    0  501    0 -0.00000000000E+00 -0.00000000000E+00 -0.67792882058E+03  0.67792882058E+03  0.00000000000E+00 0. -1.
         25    2    1    2    0    0  0.60238596444E+02 -0.26127457779E+02 -0.16722600802E+03  0.21886549048E+03  0.12500493037E+03 0.  0.
          2    1    1    2  501    0 -0.30694705871E+02 -0.39588136607E+02 -0.45125578852E+03  0.45402772184E+03  0.00000000000E+00 0. -1.
          1    1    1    2  502    0 -0.29543890572E+02  0.65715594386E+02  0.80127850737E+01  0.72495417374E+02  0.00000000000E+00 0. -1.
         22    1    3    3    0    0  0.20667094596E+02 -0.66392940526E+02 -0.41330002772E+02  0.80890793542E+02  0.00000000000E+00 0.  1.
         22    1    3    3    0    0  0.39571501848E+02  0.40265482747E+02 -0.12589600525E+03  0.13797469694E+03  0.00000000000E+00 0.  1.
</event>
<event>
 7    1  0.8278507E-006  0.3882619E+02  0.7818608E-02  0.1546939E+00
          2   -1    0    0  502    0  0.00000000000E+00  0.00000000000E+00  0.35526327685E+03  0.35526327685E+03  0.00000000000E+00 0. -1.
          1   -1    0    0  501    0 -0.00000000000E+00 -0.00000000000E+00 -0.12291023028E+03  0.12291023028E+03  0.00000000000E+00 0. -1.
         25    2    1    2    0    0  0.51129556385E+02  0.42517089725E+02  0.41933382907E+02  0.14766472429E+03  0.12499811096E+03 0.  0.
          2    1    1    2  501    0 -0.21528747754E+02 -0.30651892516E+02 -0.63969193054E+02  0.74128828095E+02  0.00000000000E+00 0. -1.
          1    1    1    2  502    0 -0.29600808631E+02 -0.11865197209E+02  0.25438885672E+03  0.25637995475E+03  0.00000000000E+00 0. -1.
         22    1    3    3    0    0  0.49004498518E+02 -0.31673422109E+02 -0.69953880648E+01  0.58767184698E+02  0.00000000000E+00 0. -1.
         22    1    3    3    0    0  0.21250578669E+01  0.74190511833E+02  0.48928770971E+02  0.88897539594E+02  0.00000000000E+00 0. -1.
</event>
<event>
 7    1  0.8278507E-006  0.1709606E+03  0.7818608E-02  0.1269059E+00
          2   -1    0    0  502    0  0.00000000000E+00  0.00000000000E+00  0.46893763848E+03  0.46893763848E+03  0.00000000000E+00 0. -1.
          1   -1    0    0  501    0 -0.00000000000E+00 -0.00000000000E+00 -0.57982690806E+03  0.57982690806E+03  0.00000000000E+00 0. -1.
         25    2    1    2    0    0  0.65019445554E+01  0.11780058338E+03 -0.40963608824E+03  0.44423691499E+03  0.12500183646E+03 0.  0.
          2    1    1    2  501    0  0.44306932214E+02  0.47769318415E+02 -0.12819141943E+03  0.14379865104E+03  0.00000000000E+00 0. -1.
          1    1    1    2  502    0 -0.50808876770E+02 -0.16556990179E+03  0.42693823810E+03  0.46072898052E+03  0.00000000000E+00 0. -1.
         22    1    3    3    0    0  0.38583049162E+02  0.14794157476E+02 -0.23762957997E+03  0.24119563855E+03  0.00000000000E+00 0.  1.
         22    1    3    3    0    0 -0.32081104607E+02  0.10300642590E+03 -0.17200650828E+03  0.20304127644E+03  0.00000000000E+00 0.  1.
</event>
<event>
 7    1  0.8278507E-006  0.5619486E+02  0.7818608E-02  0.1484752E+00
          2   -1    0    0  502    0  0.00000000000E+00  0.00000000000E+00  0.25880313915E+04  0.25880313915E+04  0.00000000000E+00 0. -1.
          1   -1    0    0  501    0 -0.00000000000E+00 -0.00000000000E+00 -0.93387942744E+02  0.93387942744E+02  0.00000000000E+00 0. -1.
         25    2    1    2    0    0  0.52233250800E+02 -0.44365174220E+02  0.39274156718E+03  0.41781165742E+03  0.12499624519E+03 0.  0.
          2    1    1    2  501    0 -0.19758869757E+02  0.52504914268E+02 -0.70977214518E+02  0.90470679986E+02  0.00000000000E+00 0. -1.
          1    1    1    2  502    0 -0.32474381044E+02 -0.81397400486E+01  0.21728790961E+04  0.21731369969E+04  0.00000000000E+00 0. -1.
         22    1    3    3    0    0 -0.22622986326E+02  0.10020071742E+01  0.92565828026E+01  0.24464011402E+02  0.00000000000E+00 0. -1.
         22    1    3    3    0    0  0.74856237126E+02 -0.45367181394E+02  0.38348498438E+03  0.39334764602E+03  0.00000000000E+00 0. -1.
</event>
<event>
 7    1  0.8278507E-006  0.1643501E+03  0.7818608E-02  0.1245094E+00
          2   -1    0    0  502    0  0.00000000000E+00  0.00000000000E+00  0.30574892057E+03  0.30574892057E+03  0.00000000000E+00 0. -1.
          1   -1    0    0  501    0 -0.00000000000E+00 -0.00000000000E+00 -0.13024143511E+04  0.13024143511E+04  0.00000000000E+00 0. -1.
         25    2    1    2    0    0  0.22246326034E+03 -0.70194560909E+02 -0.19758253699E+03  0.33027548652E+03  0.12500343791E+03 0.  0.
          2    1    1    2  501    0 -0.65146216320E+02  0.55943877148E+02 -0.10104081764E+04  0.10140505066E+04  0.00000000000E+00 0. -1.
          1    1    1    2  502    0 -0.15731704402E+03  0.14250683761E+02  0.21132528294E+03  0.26383727852E+03  0.00000000000E+00 0. -1.
         22    1    3    3    0    0  0.41521321945E+02  0.35908390299E+02 -0.41819573197E+02  0.69009487553E+02  0.00000000000E+00 0. -1.
         22    1    3    3    0    0  0.18094193840E+03 -0.10610295121E+03 -0.15576296379E+03  0.26126599896E+03  0.00000000000E+00 0. -1.
</event>
<event>
 7    1  0.8278507E-006  0.2063846E+03  0.7818608E-02  0.1298439E+00
          2   -1    0    0  502    0  0.00000000000E+00  0.00000000000E+00  0.58898340130E+03  0.58898340130E+03  0.00000000000E+00 0. -1.
          1   -1    0    0  501    0 -0.00000000000E+00 -0.00000000000E+00 -0.33348532573E+04  0.33348532573E+04  0.00000000000E+00 0. -1.
         25    2    1    2    0    0  0.17440336343E+03 -0.15337985792E+02 -0.76029742240E+03  0.79014680297E+03  0.12501205041E+03 0.  0.
          2    1    1    2  501    0 -0.21519441646E+03  0.17950931914E+02 -0.25543419677E+04  0.25634534832E+04  0.00000000000E+00 0. -1.
          1    1    1    2  502    0  0.40791053031E+02 -0.26129461220E+01  0.56876953409E+03  0.57023637240E+03  0.00000000000E+00 0. -1.
         22    1    3    3    0    0  0.86829262530E+02 -0.47460982420E+02 -0.21182019671E+03  0.23379405771E+03  0.00000000000E+00 0. -1.
         22    1    3    3    0    0  0.87574100897E+02  0.32122996628E+02 -0.54847722569E+03  0.55635274526E+03  0.00000000000E+00 0. -1.
</event>
<event>
 7    1  0.8278507E-006  0.5067525E+02  0.7818608E-02  0.1520390E+00
          2   -1    0    0  502    0  0.00000000000E+00  0.00000000000E+00  0.63335729569E+03  0.63335729569E+03  0.00000000000E+00 0. -1.
          1   -1    0    0  501    0 -0.00000000000E+00 -0.00000000000E+00 -0.56189344577E+03  0.56189344577E+03  0.00000000000E+00 0. -1.
         25    2    1    2    0    0  0.66221980052E+02  0.25963821317E+02  0.21029943849E+03  0.25476970905E+03  0.12498912018E+03 0.  0.
          2    1    1    2  501    0 -0.38078920900E+02 -0.33309998871E+02 -0.53794218401E+03  0.54031597569E+03  0.00000000000E+00 0. -1.
          1    1    1    2  502    0 -0.28143059151E+02  0.73461775543E+01  0.39910659544E+03  0.40016505673E+03  0.00000000000E+00 0. -1.
         22    1    3    3    0    0  0.74431036014E+02  0.66003083119E+02  0.12161243704E+03  0.15711769775E+03  0.00000000000E+00 0. -1.
         22    1    3    3    0    0 -0.82090559626E+01 -0.40039261802E+02  0.88687001450E+02  0.97652011304E+02  0.00000000000E+00 0. -1.
</event>
<event>
 7    1  0.8278507E-006  0.1503070E+03  0.7818608E-02  0.1308547E+00
          2   -1    0    0  502    0  0.00000000000E+00  0.00000000000E+00  0.14895799298E+04  0.14895799298E+04  0.00000000000E+00 0. -1.
          1   -1    0    0  501    0 -0.00000000000E+00 -0.00000000000E+00 -0.20729445615E+03  0.20729445615E+03  0.00000000000E+00 0. -1.
         25    2    1    2    0    0 -0.12031289860E+03 -0.44072621026E+02  0.73827037112E+03  0.75966175037E+03  0.12500097846E+03 0.  0.
          2    1    1    2  501    0 -0.49258303345E+02  0.13809405693E+02 -0.18302820306E+03  0.19004316155E+03  0.00000000000E+00 0. -1.
          1    1    1    2  502    0  0.16957120194E+03  0.30263215334E+02  0.72704330561E+03  0.74716947406E+03  0.00000000000E+00 0. -1.
         22    1    3    3    0    0 -0.68755748520E+02 -0.41061105283E+02  0.66620766781E+03  0.67100374363E+03  0.00000000000E+00 0.  1.
         22    1    3    3    0    0 -0.51557150075E+02 -0.30115157435E+01  0.72062703307E+02  0.88658006738E+02  0.00000000000E+00 0.  1.
</event>
<event>
 7    1  0.8278507E-006  0.1146994E+03  0.7818608E-02  0.1329072E+00
          2   -1    0    0  502    0  0.00000000000E+00  0.00000000000E+00  0.24889126879E+04  0.24889126879E+04  0.00000000000E+00 0. -1.
          1   -1    0    0  501    0 -0.00000000000E+00 -0.00000000000E+00 -0.21846763891E+02  0.21846763891E+02  0.00000000000E+00 0. -1.
         25    2    1    2    0    0  0.62128435803E+02 -0.35141077504E+02  0.27378432901E+03  0.30931668088E+03  0.12499644952E+03 0.  0.
          2    1    1    2  501    0  0.20024294606E+02 -0.52070550087E+02  0.36491977066E+03  0.36915952321E+03  0.00000000000E+00 0. -1.
          1    1    1    2  502    0 -0.82152730409E+02  0.87211627591E+02  0.18283618243E+04  0.18322832477E+04  0.00000000000E+00 0. -1.
         22    1    3    3    0    0  0.21220437803E+02  0.36224400807E+02  0.28852911860E+02  0.50941188808E+02  0.00000000000E+00 0.  1.
         22    1    3    3    0    0  0.40907998001E+02 -0.71365478311E+02  0.24493141715E+03  0.25837549207E+03  0.00000000000E+00 0.  1.
</event>
<event>
 7    1  0.8278507E-006  0.6997877E+02  0.7818608E-02  0.1387105E+00
          2   -1    0    0  502    0  0.00000000000E+00  0.00000000000E+00  0.33483828578E+02  0.33483828578E+02  0.00000000000E+00 0. -1.
          1   -1    0    0  501    0 -0.00000000000E+00 -0.00000000000E+00 -0.65827323534E+03  0.65827323534E+03  0.00000000000E+00 0. -1.
         25    2    1    2    0    0 -0.25635001915E+02  0.20371470553E+02 -0.37295745689E+03  0.39470816130E+03  0.12500047124E+03 0.  0.
          2    1    1    2  501    0 -0.53766727392E+02 -0.15861367446E+02 -0.18455246763E+03  0.19287834834E+03  0.00000000000E+00 0. -1.
          1    1    1    2  502    0  0.79401729308E+02 -0.45101031075E+01 -0.67279482244E+02  0.10417055428E+03  0.00000000000E+00 0. -1.
         22    1    3    3    0    0 -0.64833884640E+02  0.14537610857E+02 -0.10799166902E+03  0.12679501293E+03  0.00000000000E+00 0.  1.
         22    1    3    3    0    0  0.39198882725E+02  0.58338596965E+01 -0.26496578787E+03  0.26791314837E+03  0.00000000000E+00 0.  1.
</event>
<event>
 7    1  0.8278507E-006  0.6601156E+02  0.7818608E-02  0.1403783E+00
          2   -1    0    0  502    0  0.00000000000E+00  0.00000000000E+00  0.87322214078E+03  0.87322214078E+03  0.00000000000E+00 0. -1.
          1   -1    0    0  501    0 -0.00000000000E+00 -0.00000000000E+00 -0.13268437667E+04  0.13268437667E+04  0.00000000000E+00 0. -1.
         25    2    1    2    0    0 -0.17061479249E+02  0.11424269804E+03 -0.71612397185E+02  0.18465282415E+03  0.12500336757E+03 0.  0.
          2    1    1    2  501    0  0.19504796157E+02 -0.62271338538E+02 -0.11969929333E+04  0.11987703029E+04  0.00000000000E+00 0. -1.
          1    1    1    2  502    0 -0.24433169077E+01 -0.51971359505E+02  0.81498370462E+03  0.81664278041E+03  0.00000000000E+00 0. -1.
         22    1    3    3    0    0  0.33155413069E+02  0.11448261528E+03 -0.58403386206E+02  0.13272718688E+03  0.00000000000E+00 0. -1.
         22    1    3    3    0    0 -0.50216892318E+02 -0.23991723538E+00 -0.13209010979E+02  0.51925637265E+02  0.00000000000E+00 0. -1.
</event>
<event>
 7    1  0.8278507E-006  0.3136509E+03  0.7818608E-02  0.1273525E+00
          2   -1    0    0  502    0  0.00000000000E+00  0.00000000000E+00  0.19496359825E+04  0.19496359825E+04  0.00000000000E+00 0. -1.
          1   -1    0    0  501    0 -0.00000000000E+00 -0.00000000000E+00 -0.17203990663E+04  0.17203990663E+04  0.00000000000E+00 0. -1.
         25    2    1    2    0    0 -0.38502334187E+02 -0.29364841400E+03 -0.39155285239E+03  0.50660720480E+03  0.12500161186E+03 0.  0.
          2    1    1    2  501    0 -0.31582859921E+02 -0.12631510008E+02 -0.12580440097E+04  0.12585037793E+04  0.00000000000E+00 0. -1.
          1    1    1    2  502    0  0.70085194108E+02  0.30627992400E+03  0.18788337783E+04  0.19049240648E+04  0.00000000000E+00 0. -1.
         22    1    3    3    0    0  0.44526346820E+02 -0.98056334988E+02 -0.15358680741E+03  0.18758077674E+03  0.00000000000E+00 0.  1.
         22    1    3    3    0    0 -0.83028681008E+02 -0.19559207901E+03 -0.23796604498E+03  0.31902642806E+03  0.00000000000E+00 0.  1.
</event>
<event>
 7    1  0.8278507E-006  0.7967012E+02  0.7818608E-02  0.1508588E+00
          2   -1    0    0  502    0  0.00000000000E+00  0.00000000000E+00  0.17676489044E+04  0.17676489044E+04  0.00000000000E+00 0. -1.
          1   -1    0    0  501    0 -0.00000000000E+00 -0.00000000000E+00 -0.98699133404E+03  0.98699133404E+03  0.00000000000E+00 0. -1.
         25    2    1    2    0    0  0.91137060974E+02  0.21480277188E+02  0.32138824021E+03  0.35732772715E+03  0.12500134981E+03 0.  0.
          2    1    1    2  501    0 -0.12460802279E+02 -0.15684149428E+02 -0.96782853706E+03  0.96803581612E+03  0.00000000000E+00 0. -1.
          1    1    1    2  502    0 -0.78676258695E+02 -0.57961277600E+01  0.14270978672E+04  0.14292766952E+04  0.00000000000E+00 0. -1.
         22    1    3    3    0    0  0.62379111141E+02  0.64879344687E+02  0.26820517186E+03  0.28290368871E+03  0.00000000000E+00 0. -1.
         22    1    3    3    0    0  0.28757949833E+02 -0.43399067499E+02  0.53183068343E+02  0.74424038434E+02  0.00000000000E+00 0. -1.
</event>
<event>
 7    1  0.8278507E-006  0.1286675E+03  0.7818608E-02  0.1279632E+00
          2   -1    0    0  502    0  0.00000000000E+00  0.00000000000E+00  0.10472965461E+03  0.10472965461E+03  0.00000000000E+00 0. -1.
          1   -1    0    0  501    0 -0.00000000000E+00 -0.00000000000E+00 -0.69025695129E+03  0.69025695129E+03  0.00000000000E+00 0. -1.
         25    2    1    2    0    0 -0.15283433208E+03  0.52051584015E+00 -0.23014517985E+03  0.30323411866E+03  0.12500209164E+03 0.  0.
          2    1    1    2  501    0  0.43482183809E+02 -0.65011578150E+02 -0.35631332197E+03  0.36479636651E+03  0.00000000000E+00 0. -1.
          1    1    1    2  502    0  0.10935214827E+03  0.64491062310E+02  0.93120514030E+00  0.12695612073E+03  0.00000000000E+00 0. -1.
         22    1    3    3    0    0 -0.12059318679E+03 -0.66509739897E+01 -0.69743668421E+02  0.13946731316E+03  0.00000000000E+00 0.  1.
         22    1    3    3    0    0 -0.32241145285E+02  0.71714898298E+01 -0.16040151143E+03  0.16376680550E+03  0.00000000000E+00 0.  1.
</event>
<event>
 7    1  0.8278507E-006  0.6033983E+02  0.7818608E-02  0.1466675E+00
          2   -1    0    0  502    0  0.00000000000E+00  0.00000000000E+00  0.12084890188E+04  0.12084890188E+04  0.00000000000E+00 0. -1.
          1   -1    0    0  501    0 -0.00000000000E+00 -0.00000000000E+00 -0.73210516864E+02  0.73210516864E+02  0.00000000000E+00 0. -1.
         25    2    1    2    0    0 -0.57012791025E+02  0.69964299370E+01  0.88442892934E+03  0.89506305338E+03  0.12499572030E+03 0.  0.
          2    1    1    2  501    0  0.53527510359E+02  0.28284727312E+02 -0.53159186148E+02  0.80567482500E+02  0.00000000000E+00 0. -1.
          1    1    1    2  502    0  0.34852806659E+01 -0.35281157249E+02  0.30400875877E+03  0.30606899981E+03  0.00000000000E+00 0. -1.
         22    1    3    3    0    0  0.66863428846E+01  0.20588986427E+02  0.68346357568E+03  0.68380631236E+03  0.00000000000E+00 0.  1.
         22    1    3    3    0    0 -0.63699133909E+02 -0.13592556491E+02  0.20096535366E+03  0.21125674102E+03  0.00000000000E+00 0.  1.
</event>
<event>
 7    1  0.8278507E-006  0.6388515E+02  0.7818608E-02  0.1403081E+00
          2   -1    0    0  502    0  0.00000000000E+00  0.00000000000E+00  0.73614231256E+03  0.73614231256E+03  0.00000000000E+00 0. -1.
          1   -1    0    0  501    0 -0.00000000000E+00 -0.00000000000E+00 -0.27943733728E+02  0.27943733728E+02  0.00000000000E+00 0. -1.
         25    2    1    2    0    0  0.43802797067E+02  0.10890401859E+02  0.39470799784E+03  0.41648321487E+03  0.12500631515E+03 0.  0.
          2    1    1    2  501    0 -0.46847602670E+02  0.52922143365E+02  0.24017334047E+03  0.25035711415E+03  0.00000000000E+00 0. -1.
          1    1    1    2  502    0  0.30448056032E+01 -0.63812545224E+02  0.73317240533E+02  0.97245717276E+02  0.00000000000E+00 0. -1.
         22    1    3    3    0    0 -0.19108893927E+02 -0.42786915229E+02  0.10076138333E+03  0.11112482312E+03  0.00000000000E+00 0. -1.
         22    1    3    3    0    0  0.62911690994E+02  0.53677317088E+02  0.29394661451E+03  0.30535839175E+03  0.00000000000E+00 0. -1.
</event>
<event>
 7    1  0.8278507E-006  0.1430117E+03  0.7818608E-02  0.1350434E+00
          2   -1    0    0  502    0  0.00000000000E+00  0.00000000000E+00  0.40479274481E+03  0.40479274481E+03  0.00000000000E+00 0. -1.
          1   -1    0    0  501    0 -0.00000000000E+00 -0.00000000000E+00 -0.18692736829E+03  0.18692736829E+03  0.00000000000E+00 0. -1.
         25    2    1    2    0    0  0.10287007740E+03  0.46033908953E+02  0.14712247620E+03  0.22354480339E+03  0.12500353004E+03 0.  0.
          2    1    1    2  501    0 -0.13280862753E+03 -0.68082989949E+02 -0.10888387810E+03  0.18474069388E+03  0.00000000000E+00 0. -1.
          1    1    1    2  502    0  0.29938550128E+02  0.22049080996E+02  0.17962677843E+03  0.18343461583E+03  0.00000000000E+00 0. -1.
         22    1    3    3    0    0 -0.13286917033E+01  0.57265452632E+02  0.82448389974E+02  0.10039339867E+03  0.00000000000E+00 0. -1.
         22    1    3    3    0    0  0.10419876910E+03 -0.11231543679E+02  0.64674086224E+02  0.12315140472E+03  0.00000000000E+00 0. -1.
</event>
<event>
 7    1  0.8278507E-006  0.8183635E+02  0.7818608E-02  0.1325904E+00
          2   -1    0    0  502    0  0.00000000000E+00  0.00000000000E+00  0.12573942531E+04  0.12573942531E+04  0.00000000000E+00 0. -1.
          1   -1    0    0  501    0 -0.00000000000E+00 -0.00000000000E+00 -0.85672590842E+03  0.85672590842E+03  0.00000000000E+00 0. -1.
         25    2    1    2    0    0  0.16610358330E+02 -0.76098952390E+02 -0.83818394233E+02  0.16945808762E+03  0.12499426263E+03 0.  0.
          2    1    1    2  501    0  0.61885921262E+02  0.51339671439E+02 -0.72647242370E+03  0.73090889412E+03  0.00000000000E+00 0. -1.
          1    1    1    2  502    0 -0.78496279592E+02  0.24759280951E+02  0.12109591626E+04  0.12137531798E+04  0.00000000000E+00 0. -1.
         22    1    3    3    0    0  0.15070009525E+02 -0.75512151010E+02  0.81894281125E+01  0.77435501355E+02  0.00000000000E+00 0.  1.
         22    1    3    3    0    0  0.15403488046E+01 -0.58680137965E+00 -0.92007822345E+02  0.92022586265E+02  0.00000000000E+00 0.  1.
</event>
<event>
 7    1  0.8278507E-006  0.1045105E+03  0.7818608E-02  0.1294100E+00
          2   -1    0    0  502    0  0.00000000000E+00  0.00000000000E+00  0.30856362817E+04  0.30856362817E+04  0.00000000000E+00 0. -1.
          1   -1    0    0  501    0 -0.00000000000E+00 -0.00000000000E+00 -0.18052060835E+04  0.18052060835E+04  0.00000000000E+00 0. -1.
         25    2    1    2    0    0 -0.15802484312E+02  0.23678797343E+02  0.36590383081E+03  0.38771427506E+03  0.12500536680E+03 0.  0.
          2    1    1    2  501    0  0.99209817572E+02 -0.33905117334E+02 -0.17921167008E+04  0.17951808862E+04  0.00000000000E+00 0. -1.
          1    1    1    2  502    0 -0.83407333260E+02  0.10226319991E+02  0.27066430682E+04  0.27079472040E+04  0.00000000000E+00 0. -1.
         22    1    3    3    0    0 -0.54970097545E+02  0.24387031157E+02  0.85173659219E+02  0.10426404528E+03  0.00000000000E+00 0. -1.
         22    1    3    3    0    0  0.39167613233E+02 -0.70823381425E+00  0.28073017159E+03  0.28345022978E+03  0.00000000000E+00 0. -1.
</event>
<event>
 7    1  0.8278507E-006  0.1207937E+03  0.7818608E-02  0.1367734E+00
          2   -1    0    0  502    0  0.00000000000E+00  0.00000000000E+00  0.28779847552E+04  0.28779847552E+04  0.00000000000E+00 0. -1.
          1   -1    0    0  501    0 -0.00000000000E+00 -0.00000000000E+00 -0.37342755923E+03  0.37342755923E+03  0.00000000000E+00 0. -1.
         25    2    1    2    0    0  0.16692935791E+02 -0.15225083550E+03  0.69419741522E+02  0.20953210077E+03  0.12500251887E+03 0.  0.
          2    1    1    2  501    0 -0.20445871957E+02  0.32097781265E+02 -0.30085285640E+03  0.30325029670E+03  0.00000000000E+00 0. -1.
          1    1    1    2  502    0  0.37529361664E+01  0.12015305424E+03  0.27359903109E+04  0.27386299170E+04  0.00000000000E+00 0. -1.
         22    1    3    3    0    0  0.10887958112E+02  0.88296603724E+01 -0.20596819512E+02  0.24914644451E+02  0.00000000000E+00 0. -1.
         22    1    3    3    0    0  0.58049776790E+01 -0.16108049588E+03  0.90016561034E+02  0.18461745632E+03  0.00000000000E+00 0. -1.
</event>
<event>
 7    1  0.8278507E-006  0.1127063E+03  0.7818608E-02  0.1347193E+00
          2   -1    0    0  502    0  0.00000000000E+00  0.00000000000E+00  0.17076553473E+03  0.17076553473E+03  0.00000000000E+00 0. -1.
          1   -1    0    0  501    0 -0.00000000000E+00 -0.00000000000E+00 -0.10095882815E+04  0.10095882815E+04  0.00000000000E+00 0. -1.
         25    2    1    2    0    0 -0.12644483067E+03  0.12121585508E+02 -0.17689878199E+03  0.25110863414E+03  0.12500855583E+03 0.  0.
          2    1    1    2  501    0  0.99170311493E+02 -0.52231116718E+02 -0.78707908797E+03  0.79501970476E+03  0.00000000000E+00 0. -1.
          1    1    1    2  502    0  0.27274519180E+02  0.40109531210E+02  0.12515512322E+03  0.13422547731E+03  0.00000000000E+00 0. -1.
         22    1    3    3    0    0 -0.17792635654E+02 -0.19579812848E+02 -0.12288047254E+03  0.12569629066E+03  0.00000000000E+00 0. -1.
         22    1    3    3    0    0 -0.10865219502E+03  0.31701398356E+02 -0.54018309448E+02  0.12541234348E+03  0.00000000000E+00 0. -1.
</event>
<event>
 7    1  0.8278507E-006  0.3078596E+02  0.7818608E-02  0.1600945E+00
          2   -1    0    0  502    0  0.00000000000E+00  0.00000000000E+00  0.21065509723E+03  0.21065509723E+03  0.00000000000E+00 0. -1.
          1   -1    0    0  501    0 -0.00000000000E+00 -0.00000000000E+00 -0.27374802729E+03  0.27374802729E+03  0.00000000000E+00 0. -1.
         25    2    1    2    0    0 -0.25929450147E+02  0.23348943880E+02 -0.41315046719E+02  0.13618627811E+03  0.12498903830E+03 0.  0.
          2    1    1    2  501    0  0.27731381756E+02  0.75306407816E+01 -0.18239683673E+03  0.18464654380E+03  0.00000000000E+00 0. -1.
          1    1    1    2  502    0 -0.18019316093E+01 -0.30879584661E+02  0.16061895339E+03  0.16357030261E+03  0.00000000000E+00 0. -1.
         22    1    3    3    0    0  0.83955143565E+01 -0.14956103647E+02  0.37978640288E+02  0.41671894794E+02  0.00000000000E+00 0.  1.
         22    1    3    3    0    0 -0.34324964503E+02  0.38305047527E+02 -0.79293687007E+02  0.94514383315E+02  0.00000000000E+00 0.  1.
</event>
<event>
 7    1  0.8278507E-006  0.9607339E+02  0.7818608E-02  0.1444619E+00
          2   -1    0    0  502    0  0.00000000000E+00  0.00000000000E+00  0.13744778783E+04  0.13744778783E+04  0.00000000000E+00 0. -1.
          1   -1    0    0  501    0 -0.00000000000E+00 -0.00000000000E+00 -0.11482121546E+03  0.11482121546E+03  0.00000000000E+00 0. -1.
         25    2    1    2    0    0 -0.62622418005E+02 -0.62737376968E+02  0.50135237089E+02  0.16123032451E+03  0.12499651930E+03 0.  0.
          2    1    1    2  501    0 -0.21278957030E+02  0.15219702127E+02 -0.54458392592E+02  0.60416470178E+02  0.00000000000E+00 0. -1.
          1    1    1    2  502    0  0.83901375036E+02  0.47517674841E+02  0.12639798183E+04  0.12676522991E+04  0.00000000000E+00 0. -1.
         22    1    3    3    0    0 -0.60845519598E+02 -0.93162543197E+02  0.63316429377E+02  0.12802502466E+03  0.00000000000E+00 0.  1.
         22    1    3    3    0    0 -0.17768984077E+01  0.30425166229E+02 -0.13181192288E+02  0.33205299851E+02  0.00000000000E+00 0.  1.
</event>
<event>
 7    1  0.8278507E-006  0.9123074E+02  0.7818608E-02  0.1403774E+00
          2   -1    0    0  502    0  0.00000000000E+00  0.00000000000E+00  0.37988615287E+02  0.37988615287E+02  0.00000000000E+00 0. -1.
          1   -1    0    0  501    0 -0.00000000000E+00 -0.00000000000E+00 -0.79297886480E+03  0.79297886480E+03  0.00000000000E+00 0. -1.
         25    2    1    2    0    0  0.57288991332E+02  0.74193690983E+02 -0.18681364848E+03  0.24353794392E+03  0.12499863424E+03 0.  0.
          2    1    1    2  501    0 -0.34370535679E+02  0.15365341068E+02 -0.32670213056E+03  0.32886427222E+03  0.00000000000E+00 0. -1.
          1    1    1    2  502    0 -0.22918455653E+02 -0.89559032050E+02 -0.24147447048E+03  0.25856526395E+03  0.00000000000E+00 0. -1.
         22    1    3    3    0    0  0.13031127216E+02  0.78420017267E+02 -0.37783717785E+02  0.88017718184E+02  0.00000000000E+00 0.  1.
         22    1    3    3    0    0  0.44257864116E+02 -0.42263262845E+01 -0.14902993069E+03  0.15552022573E+03  0.00000000000E+00 0.  1.
</event>
<event>
 7    1  0.8278507E-006  0.6162050E+02  0.7818608E-02  0.1440862E+00
          2   -1    0    0  502    0  0.00000000000E+00  0.00000000000E+00  0.17010594530E+04  0.17010594530E+04  0.00000000000E+00 0. -1.
          1   -1    0    0  501    0 -0.00000000000E+00 -0.00000000000E+00 -0.17419194873E+03  0.17419194873E+03  0.00000000000E+00 0. -1.
         25    2    1    2    0    0  0.61788192244E+02  0.65835614601E+02  0.30918806433E+03  0.34550514337E+03  0.12499774446E+03 0.  0.
          2    1    1    2  501    0 -0.60526188179E+01 -0.41506885194E+02 -0.15252768856E+03  0.15819023829E+03  0.00000000000E+00 0. -1.
          1    1    1    2  502    0 -0.55735573426E+02 -0.24328729407E+02  0.13702071285E+04  0.13715560201E+04  0.00000000000E+00 0. -1.
         22    1    3    3    0    0  0.86691360923E+02  0.37890078834E+02  0.12082669947E+03  0.15346055336E+03  0.00000000000E+00 0. -1.
         22    1    3    3    0    0 -0.24903168678E+02  0.27945535767E+02  0.18836136486E+03  0.19204459001E+03  0.00000000000E+00 0. -1.
</event>
<event>
 7    1  0.8278507E-006  0.1347324E+03  0.7818608E-02  0.1255843E+00
          2   -1    0    0  502    0  0.00000000000E+00  0.00000000000E+00  0.15775361710E+03  0.15775361710E+03  0.00000000000E+00 0. -1.
          1   -1    0    0  501    0 -0.00000000000E+00 -0.00000000000E+00 -0.12335119717E+04  0.12335119717E+04  0.00000000000E+00 0. -1.
         25    2    1    2    0    0 -0.14077845701E+03 -0.27545974600E+02 -0.14750209960E+03  0.24074737467E+03  0.12500029740E+03 0.  0.
          2    1    1    2  501    0  0.87517893538E+02  0.10511113390E+03 -0.10140216821E+04  0.10232046247E+04  0.00000000000E+00 0. -1.
          1    1    1    2  502    0  0.53260563470E+02 -0.77565159303E+02  0.85765427141E+02  0.12731358942E+03  0.00000000000E+00 0. -1.
         22    1    3    3    0    0  0.22632127000E+01 -0.38637929174E+02 -0.58735613950E+01  0.39147291426E+02  0.00000000000E+00 0.  1.
         22    1    3    3    0    0 -0.14304166971E+03  0.11091954574E+02 -0.14162853820E+03  0.20160008324E+03  0.00000000000E+00 0.  1.
</event>
<event>
 7    1  0.8278507E-006  0.4689195E+02  0.7818608E-02  0.1579082E+00
          2   -1    0    0  502    0  0.00000000000E+00  0.00000000000E+00  0.92471316887E+02  0.92471316887E+02  0.00000000000E+00 0. -1.
          1   -1    0    0  501    0 -0.00000000000E+00 -0.00000000000E+00 -0.29540787673E+03  0.29540787673E+03  0.00000000000E+00 0. -1.
         25    2    1    2    0    0  0.39453752665E+02 -0.11163940641E+02 -0.19986684968E+03  0.23927645257E+03  0.12500092393E+03 0.  0.
          2    1    1    2  501    0 -0.48339247003E+01 -0.21005914020E+02 -0.66269742071E+02  0.69687114777E+02  0.00000000000E+00 0. -1.
          1    1    1    2  502    0 -0.34619827964E+02  0.32169854661E+02  0.63200031905E+02  0.78915626272E+02  0.00000000000E+00 0. -1.
         22    1    3    3    0    0 -0.19735762897E+02 -0.36144713423E+02 -0.15634447907E+03  0.16167726118E+03  0.00000000000E+00 0.  1.
         22    1    3    3    0    0  0.59189515561E+02  0.24980772782E+02 -0.43522370605E+02  0.77599191389E+02  0.00000000000E+00 0.  1.
</event>
<event>
 7    1  0.8278507E-006  0.1705667E+03  0.7818608E-02  0.1364272E+00
          2   -1    0    0  502    0  0.00000000000E+00  0.00000000000E+00  0.32646400306E+03  0.32646400306E+03  0.00000000000E+00 0. -1.
          1   -1    0    0  501    0 -0.00000000000E+00 -0.00000000000E+00 -0.14914073549E+04  0.14914073549E+04  0.00000000000E+00 0. -1.
         25    2    1    2    0    0 -0.18097789146E+02 -0.15254995034E+03 -0.48955250574E+03  0.52809478323E+03  0.12499370737E+03 0.  0.
          2    1    1    2  501    0  0.20343078990E+02 -0.18858699659E+02 -0.95845249182E+03  0.95885383166E+03  0.00000000000E+00 0. -1.
          1    1    1    2  502    0 -0.22452898443E+01  0.17140865000E+03  0.28306164570E+03  0.33092274308E+03  0.00000000000E+00 0. -1.
         22    1    3    3    0    0  0.21131359765E+02 -0.95892317466E+02 -0.13515375959E+03  0.16705810260E+03  0.00000000000E+00 0.  1.
         22    1    3    3    0    0 -0.39229148911E+02 -0.56657632876E+02 -0.35439874615E+03  0.36103668063E+03  0.00000000000E+00 0.  1.
</event>
<event>
 7    1  0.1401507E-005  0.1194773E+03  0.7818608E-02  0.1381884E+00
          2   -1    0    0  502    0  0.00000000000E+00  0.00000000000E+00  0.89380321841E+03  0.89380321841E+03  0.00000000000E+00 0. -1.
          1   -1    0    0  501    0 -0.00000000000E+00 -0.00000000000E+00 -0.19003530533E+04  0.19003530533E+04  0.00000000000E+00 0. -1.
         25    2    1    2    0    0 -0.11129651239E+03 -0.97271518648E+02 -0.43286959818E+03  0.47419555524E+03  0.12504668557E+03 0.  0.
          2    1    1    2  501    0  0.11292913050E+02  0.32336636210E+02 -0.14425455122E+04  0.14429520930E+04  0.00000000000E+00 0. -1.
          1    1    1    2  502    0  0.10000359934E+03  0.64934882438E+02  0.86886527545E+03  0.87700862351E+03  0.00000000000E+00 0. -1.
         22    1    3    3    0    0 -0.74322933028E+02 -0.43448610630E+02 -0.38155398958E+03  0.39114591537E+03  0.00000000000E+00 0.  1.
         22    1    3    3    0    0 -0.36973579358E+02 -0.53822908018E+02 -0.51315608598E+02  0.83049639878E+02  0.00000000000E+00 0.  1.
</event>
<event>
 7    1  0.8278507E-006  0.1059687E+03  0.7818608E-02  0.1360645E+00
          2   -1    0    0  502    0  0.00000000000E+00  0.00000000000E+00  0.56357082872E+03  0.56357082872E+03  0.00000000000E+00 0. -1.
          1   -1    0    0  501    0 -0.00000000000E+00 -0.00000000000E+00 -0.82070921315E+03  0.82070921315E+03  0.00000000000E+00 0. -1.
         25    2    1    2    0    0 -0.42314160708E+02 -0.11896439086E+03  0.58904372375E+02  0.18718471599E+03  0.12500151329E+03 0.  0.
          2    1    1    2  501    0  0.43752317844E+02  0.14288505524E+02 -0.74963391039E+03  0.75104555542E+03  0.00000000000E+00 0. -1.
          1    1    1    2  502    0 -0.14381571369E+01  0.10467588534E+03  0.43359115358E+03  0.44604977046E+03  0.00000000000E+00 0. -1.
         22    1    3    3    0    0 -0.53654345831E+02 -0.17101233647E+02  0.63140512405E+02  0.84604759474E+02  0.00000000000E+00 0.  1.
         22    1    3    3    0    0  0.11340185123E+02 -0.10186315722E+03 -0.42361400306E+01  0.10257995652E+03  0.00000000000E+00 0.  1.
</event>
<event>
 7    1  0.8278507E-006  0.1090930E+03  0.7818608E-02  0.1295500E+00
          2   -1    0    0  502    0  0.00000000000E+00  0.00000000000E+00  0.65741141294E+03  0.65741141294E+03  0.00000000000E+00 0. -1.
          1   -1    0    0  501    0 -0.00000000000E+00 -0.00000000000E+00 -0.10127681575E+03  0.10127681575E+03  0.00000000000E+00 0. -1.
         25    2    1    2    0    0 -0.12177469998E+03 -0.12102789227E+03  0.31543266736E+03  0.38026332545E+03  0.12500240312E+03 0.  0.
          2    1    1    2  501    0  0.64880667321E+02  0.45876683393E+02 -0.35168125504E+02  0.86896306727E+02  0.00000000000E+00 0. -1.
          1    1    1    2  502    0  0.56894032656E+02  0.75151208881E+02  0.27587005534E+03  0.29152859651E+03  0.00000000000E+00 0. -1.
         22    1    3    3    0    0 -0.13451149138E+02  0.10305141170E+01 -0.96031217477E+01  0.16559448052E+02  0.00000000000E+00 0. -1.
         22    1    3    3    0    0 -0.10832355084E+03 -0.12205840639E+03  0.32503578910E+03  0.36370387740E+03  0.00000000000E+00 0. -1.
</event>
<event>
 7    1  0.8278507E-006  0.1265096E+03  0.7818608E-02  0.1357210E+00
          2   -1    0    0  502    0  0.00000000000E+00  0.00000000000E+00  0.12553167216E+04  0.12553167216E+04  0.00000000000E+00 0. -1.
          1   -1    0    0  501    0 -0.00000000000E+00 -0.00000000000E+00 -0.23554113399E+03  0.23554113399E+03  0.00000000000E+00 0. -1.
         25    2    1    2    0    0 -0.88359263304E+02  0.11687567282E+03 -0.11581540278E+03  0.22473403908E+03  0.12499959397E+03 0.  0.
          2    1    1    2  501    0 -0.10399907089E+02 -0.38297032211E+02 -0.55575833702E+02  0.68289779874E+02  0.00000000000E+00 0. -1.
          1    1    1    2  502    0  0.98759170393E+02 -0.78578640611E+02  0.11911668241E+04  0.11978340367E+04  0.00000000000E+00 0. -1.
         22    1    3    3    0    0  0.10946846357E+02  0.21624213398E+02 -0.78506936070E+02  0.82163124705E+02  0.00000000000E+00 0.  1.
         22    1    3    3    0    0 -0.99306109661E+02  0.95251459423E+02 -0.37308466713E+02  0.14257091438E+03  0.00000000000E+00 0.  1.
</event>
<event>
 7    1  0.8278507E-006  0.1200497E+03  0.7818608E-02  0.1391539E+00
          2   -1    0    0  502    0  0.00000000000E+00  0.00000000000E+00  0.19167946717E+03  0.19167946717E+03  0.00000000000E+00 0. -1.
          1   -1    0    0  501    0 -0.00000000000E+00 -0.00000000000E+00 -0.98449968991E+03  0.98449968991E+03  0.00000000000E+00 0. -1.
         25    2    1    2    0    0  0.11729887611E+03  0.37674802376E+02  0.67450325015E+02  0.18802481289E+03  0.12500146737E+03 0.  0.
          2    1    1    2  501    0 -0.11991220786E+03 -0.62515096148E+01 -0.91615376448E+03  0.92398903626E+03  0.00000000000E+00 0. -1.
          1    1    1    2  502    0  0.26133317437E+01 -0.31423292761E+02  0.55883216725E+02  0.64165307934E+02  0.00000000000E+00 0. -1.
         22    1    3    3    0    0  0.14216764937E+02  0.51574796184E+02 -0.14699983302E+02  0.55481217685E+02  0.00000000000E+00 0. -1.
         22    1    3    3    0    0  0.10308211118E+03 -0.13899993809E+02  0.82150308317E+02  0.13254359520E+03  0.00000000000E+00 0. -1.
</event>
<event>
 7    1  0.8278507E-006  0.5605191E+02  0.7818608E-02  0.1528469E+00
          2   -1    0    0  502    0  0.00000000000E+00  0.00000000000E+00  0.28015762333E+04  0.28015762333E+04  0.00000000000E+00 0. -1.
          1   -1    0    0  501    0 -0.00000000000E+00 -0.00000000000E+00 -0.54538210694E+02  0.54538210694E+02  0.00000000000E+00 0. -1.
         25    2    1    2    0    0 -0.33100476830E+02 -0.57027172607E+01  0.23862003349E+03  0.27146368863E+03  0.12499940525E+03 0.  0.
          2    1    1    2  501    0 -0.23311270550E+02  0.88117771594E+01 -0.33695229937E+02  0.41909799234E+02  0.00000000000E+00 0. -1.
          1    1    1    2  502    0  0.56411747379E+02 -0.31090598987E+01  0.25421132190E+04  0.25427409561E+04  0.00000000000E+00 0. -1.
         22    1    3    3    0    0 -0.13322034249E+02  0.47691553692E+02  0.36607148723E+02  0.61579576385E+02  0.00000000000E+00 0. -1.
         22    1    3    3    0    0 -0.19778442580E+02 -0.53394270952E+02  0.20201288477E+03  0.20988411225E+03  0.00000000000E+00 0. -1.
</event>
<event>
 7    1  0.8278507E-006  0.1486677E+03  0.7818608E-02  0.1215464E+00
          2   -1    0    0  502    0  0.00000000000E+00  0.00000000000E+00  0.82981221342E+03  0.82981221342E+03  0.00000000000E+00 0. -1.
          1   -1    0    0  501    0 -0.00000000000E+00 -0.00000000000E+00 -0.11570753718E+03  0.11570753718E+03  0.00000000000E+00 0. -1.
         25    2    1    2    0    0  0.34887882098E+02  0.13482466143E+03  0.62417326288E+02  0.19727059622E+03  0.12499964746E+03 0.  0.
          2    1    1    2  501    0  0.87948827050E+02 -0.17385193881E+03  0.20279999544E+03  0.28122469834E+03  0.00000000000E+00 0. -1.
          1    1    1    2  502    0 -0.12283670915E+03  0.39027277381E+02  0.44888735452E+03  0.46702445604E+03  0.00000000000E+00 0. -1.
         22    1    3    3    0    0  0.44258743676E+02  0.72315109595E+02 -0.25911911966E+02  0.88655167076E+02  0.00000000000E+00 0.  1.
         22    1    3    3    0    0 -0.93708615781E+01  0.62509551832E+02  0.88329238254E+02  0.10861542914E+03  0.00000000000E+00 0.  1.
</event>
<event>
 7    1  0.8278507E-006  0.6052957E+02  0.7818608E-02  0.1464159E+00
          2   -1    0    0  502    0  0.00000000000E+00  0.00000000000E+00  0.36513619383E+02  0.36513619383E+02  0.00000000000E+00 0. -1.
          1   -1    0    0  501    0 -0.00000000000E+00 -0.00000000000E+00 -0.58695264854E+03  0.58695264854E+03  0.00000000000E+00 0. -1.
         25    2    1    2    0    0  0.15543724542E+02  0.33999462842E+02 -0.45171637676E+03  0.47018096267E+03  0.12499952711E+03 0.  0.
          2    1    1    2  501    0  0.35897916427E+02  0.25545818503E+01 -0.79579838647E+02  0.87339206610E+02  0.00000000000E+00 0. -1.
          1    1    1    2  502    0 -0.51441640968E+02 -0.36554044692E+02 -0.19142813758E+02  0.65946098652E+02  0.00000000000E+00 0. -1.
         22    1    3    3    0    0  0.26608545412E+02  0.84597134773E+01 -0.43846641858E+03  0.43935450568E+03  0.00000000000E+00 0. -1.
         22    1    3    3    0    0 -0.11064820870E+02  0.25539749364E+02 -0.13249958177E+02  0.30826456983E+02  0.00000000000E+00 0. -1.
</event>
<event>
 7    1  0.1388059E-005  0.5487882E+02  0.7818608E-02  0.1424029E+00
          2   -1    0    0  502    0  0.00000000000E+00  0.00000000000E+00  0.99724316315E+03  0.99724316315E+03  0.00000000000E+00 0. -1.
          1   -1    0    0  501    0 -0.00000000000E+00 -0.00000000000E+00 -0.10349516812E+04  0.10349516812E+04  0.00000000000E+00 0. -1.
         25    2    1    2    0    0  0.44531061482E+02  0.35373891657E+02 -0.31875660140E+03  0.34708237141E+03  0.12500429575E+03 0.  0.
          2    1    1    2  501    0  0.68042653678E+01 -0.54774122489E+02 -0.70017939487E+03  0.70235154127E+03  0.00000000000E+00 0. -1.
          1    1    1    2  502    0 -0.51335326850E+02  0.19400230832E+02  0.98122747824E+03  0.98276093166E+03  0.00000000000E+00 0. -1.
         22    1    3    3    0    0  0.60713361928E+02  0.27510647193E+00 -0.29614443555E+03  0.30230401041E+03  0.00000000000E+00 0. -1.
         22    1    3    3    0    0 -0.16182300446E+02  0.35098785185E+02 -0.22612165849E+02  0.44778360997E+02  0.00000000000E+00 0. -1.
</event>
<event>
 7    1  0.8278507E-006  0.1707238E+03  0.7818608E-02  0.1404360E+00
          2   -1    0    0  502    0  0.00000000000E+00  0.00000000000E+00  0.78975647763E+03  0.78975647763E+03  0.00000000000E+00 0. -1.
          1   -1    0    0  501    0 -0.00000000000E+00 -0.00000000000E+00 -0.34408078248E+03  0.34408078248E+03  0.00000000000E+00 0. -1.
         25    2    1    2    0    0 -0.91328730243E+02  0.14004148727E+03 -0.14704890793E+03  0.25535140459E+03  0.12501361277E+03 0.  0.
          2    1    1    2  501    0 -0.18054440770E+02 -0.86648091844E+01 -0.13218411412E+03  0.13369248960E+03  0.00000000000E+00 0. -1.
          1    1    1    2  502    0  0.10938317101E+03 -0.13137667809E+03  0.72490871720E+03  0.74479336592E+03  0.00000000000E+00 0. -1.
         22    1    3    3    0    0 -0.69106171963E+02  0.42327306222E+02 -0.13074709955E+03  0.15382479610E+03  0.00000000000E+00 0.  1.
         22    1    3    3    0    0 -0.22222558280E+02  0.97714181050E+02 -0.16301808377E+02  0.10152660849E+03  0.00000000000E+00 0.  1.
</event>
<event>
 7    1  0.8278507E-006  0.7987749E+02  0.7818608E-02  0.1504682E+00
          2   -1    0    0  502    0  0.00000000000E+00  0.00000000000E+00  0.90209450627E+03  0.90209450627E+03  0.00000000000E+00 0. -1.
          1   -1    0    0  501    0 -0.00000000000E+00 -0.00000000000E+00 -0.17670535265E+03  0.17670535265E+03  0.00000000000E+00 0. -1.
         25    2    1    2    0    0  0.49997439773E+02  0.75343686278E+02  0.64715173547E+02  0.16729580038E+03  0.12499366420E+03 0.  0.
          2    1    1    2  501    0 -0.55915127292E+02 -0.55697551218E+02 -0.11284930660E+03  0.13770869497E+03  0.00000000000E+00 0. -1.
          1    1    1    2  502    0  0.59176875184E+01 -0.19646135061E+02  0.77352328667E+03  0.77379536356E+03  0.00000000000E+00 0. -1.
         22    1    3    3    0    0 -0.42229511915E+02  0.22543750333E+02  0.23299029186E+02  0.53239056309E+02  0.00000000000E+00 0. -1.
         22    1    3    3    0    0  0.92226951689E+02  0.52799935946E+02  0.41416144362E+02  0.11405674407E+03  0.00000000000E+00 0. -1.
</event>
<event>
 7    1  0.1251267E-005  0.1271761E+03  0.7818608E-02  0.1306924E+00
          2   -1    0    0  502    0  0.00000000000E+00  0.00000000000E+00  0.22363806995E+04  0.22363806995E+04  0.00000000000E+00 0. -1.
          1   -1    0    0  501    0 -0.00000000000E+00 -0.00000000000E+00 -0.75051191730E+03  0.75051191730E+03  0.00000000000E+00 0. -1.
         25    2    1    2    0    0 -0.38999748108E+02 -0.79487840007E+02 -0.85864312537E+02  0.17560542499E+03  0.12500115222E+03 0.  0.
          2    1    1    2  501    0  0.37775836356E+02 -0.48356578081E+02 -0.61638766241E+03  0.61943451860E+03  0.00000000000E+00 0. -1.
          1    1    1    2  502    0  0.12239117523E+01  0.12784441809E+03  0.21881207572E+04  0.21918526732E+04  0.00000000000E+00 0. -1.
         22    1    3    3    0    0 -0.16076680809E+02  0.30818251170E+02 -0.13840811118E+01  0.34787065866E+02  0.00000000000E+00 0. -1.
         22    1    3    3    0    0 -0.22923067299E+02 -0.11030609118E+03 -0.84480231426E+02  0.14081835913E+03  0.00000000000E+00 0. -1.
</event>
<event>
 7    1  0.8278507E-006  0.1889563E+03  0.7818608E-02  0.1295252E+00
          2   -1    0    0  502    0  0.00000000000E+00  0.00000000000E+00  0.78632016387E+03  0.78632016387E+03  0.00000000000E+00 0. -1.
          1   -1    0    0  501    0 -0.00000000000E+00 -0.00000000000E+00 -0.32647833056E+03  0.32647833056E+03  0.00000000000E+00 0. -1.
         25    2    1    2    0    0 -0.28112236494E+01  0.23051915193E+03  0.24375899527E+03  0.35803714964E+03  0.12500068144E+03 0.  0.
          2    1    1    2  501    0  0.12137095348E+01 -0.18456429695E+03 -0.23641722935E+03  0.29993092394E+03  0.00000000000E+00 0. -1.
          1    1    1    2  502    0  0.15975141146E+01 -0.45954854978E+02  0.45250006739E+03  0.45483042085E+03  0.00000000000E+00 0. -1.
         22    1    3    3    0    0  0.29780640181E+02  0.95878730840E+02  0.32721809491E+02  0.10559514370E+03  0.00000000000E+00 0. -1.
         22    1    3    3    0    0 -0.32591863830E+02  0.13464042109E+03  0.21103718578E+03  0.25244200594E+03  0.00000000000E+00 0. -1.
</event>
<event>
 7    1  0.8278507E-006  0.8366472E+02  0.7818608E-02  0.1353419E+00
          2   -1    0    0  502    0  0.00000000000E+00  0.00000000000E+00  0.10807209628E+04  0.10807209628E+04  0.00000000000E+00 0. -1.
          1   -1    0    0  501    0 -0.00000000000E+00 -0.00000000000E+00 -0.47146868371E+03  0.47146868371E+03  0.00000000000E+00 0. -1.
         25    2    1    2    0    0 -0.37252035447E+02 -0.77753950171E+02 -0.22318783418E+03  0.26994682777E+03  0.12500035834E+03 0.  0.
          2    1    1    2  501    0  0.81767353523E+02  0.34652424298E+02 -0.21518328436E+03  0.23278860900E+03  0.00000000000E+00 0. -1.
          1    1    1    2  502    0 -0.44515318076E+02  0.43101525873E+02  0.10476233977E+04  0.10494542098E+04  0.00000000000E+00 0. -1.
         22    1    3    3    0    0 -0.24969748616E+02 -0.27385626215E+02 -0.21413478656E+03  0.21731812554E+03  0.00000000000E+00 0.  1.
         22    1    3    3    0    0 -0.12282286830E+02 -0.50368323956E+02 -0.90530476164E+01  0.52628702236E+02  0.00000000000E+00 0.  1.
</event>
<event>
 7    1  0.8278507E-006  0.1337062E+03  0.7818608E-02  0.1314089E+00
          2   -1    0    0  502    0  0.00000000000E+00  0.00000000000E+00  0.74525284566E+03  0.74525284566E+03  0.00000000000E+00 0. -1.
          1   -1    0    0  501    0 -0.00000000000E+00 -0.00000000000E+00 -0.22434749145E+04  0.22434749145E+04  0.00000000000E+00 0. -1.
         25    2    1    2    0    0  0.12315337337E+03  0.83862340965E+02 -0.16175376792E+03  0.25296125417E+03  0.12500187626E+03 0.  0.
          2    1    1    2  501    0 -0.13011536102E+03 -0.29613215203E+02 -0.20328576073E+04  0.20372326822E+04  0.00000000000E+00 0. -1.
          1    1    1    2  502    0  0.69619876518E+01 -0.54249125762E+02  0.69638930641E+03  0.69853382380E+03  0.00000000000E+00 0. -1.
         22    1    3    3    0    0  0.88130196559E+02  0.40496843043E+01 -0.26609518036E+02  0.92148781536E+02  0.00000000000E+00 0. -1.
         22    1    3    3    0    0  0.35023176811E+02  0.79812656660E+02 -0.13514424989E+03  0.16081247263E+03  0.00000000000E+00 0. -1.
</event>
<event>
 7    1  0.8278507E-006  0.4843020E+02  0.7818608E-02  0.1582918E+00
          2   -1    0    0  502    0  0.00000000000E+00  0.00000000000E+00  0.10917835114E+03  0.10917835114E+03  0.00000000000E+00 0. -1.
          1   -1    0    0  501    0 -0.00000000000E+00 -0.00000000000E+00 -0.61763574526E+03  0.61763574526E+03  0.00000000000E+00 0. -1.
         25    2    1    2    0    0 -0.45027093381E+02 -0.33854742965E+01 -0.11910941892E+02  0.13343811786E+03  0.12499984075E+03 0.  0.
          2    1    1    2  501    0  0.14505885272E+01 -0.20330766834E+02 -0.53200480115E+03  0.53239510960E+03  0.00000000000E+00 0. -1.
          1    1    1    2  502    0  0.43576504854E+02  0.23716241130E+02  0.35458348919E+02  0.60980868940E+02  0.00000000000E+00 0. -1.
         22    1    3    3    0    0  0.38975339319E+01  0.35530436774E+02 -0.49074166591E+02  0.60711420134E+02  0.00000000000E+00 0. -1.
         22    1    3    3    0    0 -0.48924627313E+02 -0.38915911071E+02  0.37163224698E+02  0.72726697726E+02  0.00000000000E+00 0. -1.
</event>
<event>
 7    1  0.8278507E-006  0.8474702E+02  0.7818608E-02  0.1421928E+00
          2   -1    0    0  502    0  0.00000000000E+00  0.00000000000E+00  0.28809208802E+03  0.28809208802E+03  0.00000000000E+00 0. -1.
          1   -1    0    0  501    0 -0.00000000000E+00 -0.00000000000E+00 -0.16139297985E+03  0.16139297985E+03  0.00000000000E+00 0. -1.
         25    2    1    2    0    0 -0.10746053758E+01 -0.68706571725E+02  0.43849765724E+02  0.14923160475E+03  0.12500208849E+03 0.  0.
          2    1    1    2  501    0  0.32100557235E+02 -0.14434328521E+02 -0.95100074183E+02  0.10140423918E+03  0.00000000000E+00 0. -1.
          1    1    1    2  502    0 -0.31025951859E+02  0.83140900246E+02  0.17794941663E+03  0.19884922394E+03  0.00000000000E+00 0. -1.
         22    1    3    3    0    0  0.16763649126E+02 -0.99917692743E+02  0.49636107579E+02  0.11281980513E+03  0.00000000000E+00 0. -1.
         22    1    3    3    0    0 -0.17838254502E+02  0.31211121018E+02 -0.57863418548E+01  0.36411799611E+02  0.00000000000E+00 0. -1.
</event>
<event>
 7    1  0.8278507E-006  0.1294184E+03  0.7818608E-02  0.1262139E+00
          2   -1    0    0  502    0  0.00000000000E+00  0.00000000000E+00  0.59049126776E+03  0.59049126776E+03  0.00000000000E+00 0. -1.
          1   -1    0    0  501    0 -0.00000000000E+00 -0.00000000000E+00 -0.23880007782E+03  0.23880007782E+03  0.00000000000E+00 0. -1.
         25    2    1    2    0    0  0.30749960382E+02  0.19944736399E+03  0.70654121401E+02  0.24767123392E+03  0.12499689667E+03 0.  0.
          2    1    1    2  501    0 -0.48048918311E+02 -0.10901928083E+03 -0.12062495643E+03  0.16954138803E+03  0.00000000000E+00 0. -1.
          1    1    1    2  502    0  0.17298957929E+02 -0.90428083159E+02  0.40166202496E+03  0.41207872362E+03  0.00000000000E+00 0. -1.
         22    1    3    3    0    0  0.79443410985E+02  0.12789555749E+03  0.39157677114E+02  0.15556944704E+03  0.00000000000E+00 0. -1.
         22    1    3    3    0    0 -0.48693450603E+02  0.71551806493E+02  0.31496444287E+02  0.92101786881E+02  0.00000000000E+00 0. -1.
</event>
<event>
 7    1  0.8278507E-006  0.1485669E+03  0.7818608E-02  0.1356854E+00
          2   -1    0    0  502    0  0.00000000000E+00  0.00000000000E+00  0.28303040618E+04  0.28303040618E+04  0.00000000000E+00 0. -1.
          1   -1    0    0  501    0 -0.00000000000E+00 -0.00000000000E+00 -0.15139728152E+03  0.15139728152E+03  0.00000000000E+00 0. -1.
         25    2    1    2    0    0 -0.14813589133E+03  0.87261368380E+02  0.45936544626E+03  0.50616344983E+03  0.12500414399E+03 0.  0.
          2    1    1    2  501    0  0.33652073106E+02  0.40428727992E+01 -0.12342790159E+03  0.12799708488E+03  0.00000000000E+00 0. -1.
          1    1    1    2  502    0  0.11448381823E+03 -0.91304241179E+02  0.23429692356E+04  0.23475408086E+04  0.00000000000E+00 0. -1.
         22    1    3    3    0    0 -0.10971395857E+03  0.11361978945E+03  0.28676818029E+03  0.32738753563E+03  0.00000000000E+00 0.  1.
         22    1    3    3    0    0 -0.38421932766E+02 -0.26358421066E+02  0.17259726597E+03  0.17877591420E+03  0.00000000000E+00 0.  1.
</event>
<event>
 7    1  0.8278507E-006  0.2070370E+03  0.7818608E-02  0.1272309E+00
          2   -1    0    0  502    0  0.00000000000E+00  0.00000000000E+00  0.31979213206E+04  0.31979213206E+04  0.00000000000E+00 0. -1.
          1   -1    0    0  501    0 -0.00000000000E+00 -0.00000000000E+00 -0.92663564587E+02  0.92663564587E+02  0.00000000000E+00 0. -1.
         25    2    1    2    0    0 -0.81435865075E+02 -0.18415700721E+03  0.39267328312E+03  0.45865359633E+03  0.12500084288E+03 0.  0.
          2    1    1    2  501    0  0.35332606485E+02  0.20850535310E+03  0.12878417356E+03  0.24760500542E+03  0.00000000000E+00 0. -1.
          1    1    1    2  502    0  0.46103258590E+02 -0.24348345891E+02  0.25838002993E+04  0.25843262834E+04  0.00000000000E+00 0. -1.
         22    1    3    3    0    0 -0.93922703395E+02 -0.77119815237E+02  0.26529952860E+03  0.29180949263E+03  0.00000000000E+00 0. -1.
         22    1    3    3    0    0  0.12486838320E+02 -0.10703719197E+03  0.12737375453E+03  0.16684410370E+03  0.00000000000E+00 0. -1.
</event>
<event>
 7    1  0.8278507E-006  0.8474934E+02  0.7818608E-02  0.1367817E+00
          2   -1    0    0  502    0  0.00000000000E+00  0.00000000000E+00  0.50716061725E+03  0.50716061725E+03  0.00000000000E+00 0. -1.
          1   -1    0    0  501    0 -0.00000000000E+00 -0.00000000000E+00 -0.48289888224E+03  0.48289888224E+03  0.00000000000E+00 0. -1.
         25    2    1    2    0    0  0.19861015982E+02  0.12718808554E+03  0.14528212893E+02  0.18002123539E+03  0.12500122863E+03 0.  0.
          2    1    1    2  501    0 -0.30111680093E+02 -0.45071769817E+02 -0.39410139381E+03  0.39781162165E+03  0.00000000000E+00 0. -1.
          1    1    1    2  502    0  0.10250664110E+02 -0.82116315725E+02  0.40383491593E+03  0.41222664246E+03  0.00000000000E+00 0. -1.
         22    1    3    3    0    0  0.17586951197E+02  0.13857798897E+03  0.45524331495E+02  0.14692047045E+03  0.00000000000E+00 0. -1.
         22    1    3    3    0    0  0.22740647853E+01 -0.11389903429E+02 -0.30996118602E+02  0.33100764933E+02  0.00000000000E+00 0. -1.
</event>
<event>
 7    1  0.8278507E-006  0.1160059E+03  0.7818608E-02  0.1367805E+00
          2   -1    0    0  502    0  0.00000000000E+00  0.00000000000E+00  0.10238489008E+03  0.10238489008E+03  0.00000000000E+00 0. -1.
          1   -1    0    0  501    0 -0.00000000000E+00 -0.00000000000E+00 -0.22625213567E+04  0.22625213567E+04  0.00000000000E+00 0. -1.
         25    2    1    2    0    0 -0.86697293684E+02  0.19618705231E+02 -0.33094650980E+03  0.36476251345E+03  0.12499913817E+03 0.  0.
          2    1    1    2  501    0 -0.32839960308E+02 -0.22136008443E+02 -0.18725438099E+04  0.18729625693E+04  0.00000000000E+00 0. -1.
          1    1    1    2  502    0  0.11953725399E+03  0.25173032120E+01  0.43353853109E+02  0.12718116404E+03  0.00000000000E+00 0. -1.
         22    1    3    3    0    0 -0.10037530194E+03 -0.25133824579E+02 -0.19141425642E+03  0.21759211368E+03  0.00000000000E+00 0. -1.
         22    1    3    3    0    0  0.13678008253E+02  0.44752529810E+02 -0.13953225338E+03  0.14717039977E+03  0.00000000000E+00 0. -1.
</event>
<event>
 7    1  0.8278507E-006  0.8439046E+02  0.7818608E-02  0.1458131E+00
          2   -1    0    0  502    0  0.00000000000E+00  0.00000000000E+00  0.82364920479E+02  0.82364920479E+02  0.00000000000E+00 0. -1.
          1   -1    0    0  501    0 -0.00000000000E+00 -0.00000000000E+00 -0.67502346933E+03  0.67502346933E+03  0.00000000000E+00 0. -1.
         25    2    1    2    0    0  0.30514702911E+02  0.60613541010E+02 -0.41839656528E+03  0.44191096517E+03  0.12499786740E+03 0.  0.
          2    1    1    2  501    0 -0.13663277877E+02  0.23248999616E+02 -0.21782269143E+03  0.21948559417E+03  0.00000000000E+00 0. -1.
          1    1    1    2  502    0 -0.16851425035E+02 -0.83862540626E+02  0.43560707864E+02  0.95991830463E+02  0.00000000000E+00 0. -1.
         22    1    3    3    0    0 -0.45663527494E+02  0.15969943775E+02 -0.94064499906E+02  0.10577488828E+03  0.00000000000E+00 0. -1.
         22    1    3    3    0    0  0.76178230405E+02  0.44643597236E+02 -0.32433206537E+03  0.33613607689E+03  0.00000000000E+00 0. -1.
</event>
<event>
 7    1  0.8278507E-006  0.9737688E+02  0.7818608E-02  0.1352662E+00
          2   -1    0    0  502    0  0.00000000000E+00  0.00000000000E+00  0.18293989190E+04  0.18293989190E+04  0.00000000000E+00 0. -1.
          1   -1    0    0  501    0 -0.00000000000E+00 -0.00000000000E+00 -0.23663228212E+02  0.23663228212E+02  0.00000000000E+00 0. -1.
         25    2    1    2    0    0 -0.45697241897E+02  0.78493648538E+02  0.57517379163E+03  0.59556337348E+03  0.12498540105E+03 0.  0.
          2    1    1    2  501    0  0.90727716716E+02 -0.49456952216E+02  0.19617747915E+03  0.22172756263E+03  0.00000000000E+00 0. -1.
          1    1    1    2  502    0 -0.45030474819E+02 -0.29036696322E+02  0.10343844200E+04  0.10357712111E+04  0.00000000000E+00 0. -1.
         22    1    3    3    0    0 -0.73595022620E+02  0.12212451794E+02  0.19783965046E+03  0.21143769443E+03  0.00000000000E+00 0.  1.
         22    1    3    3    0    0  0.27897780723E+02  0.66281196744E+02  0.37733414117E+03  0.38412567905E+03  0.00000000000E+00 0.  1.
</event>
<event>
 7    1  0.8278507E-006  0.3260853E+02  0.7818608E-02  0.1599357E+00
          2   -1    0    0  502    0  0.00000000000E+00  0.00000000000E+00  0.11166332922E+03  0.11166332922E+03  0.00000000000E+00 0. -1.
          1   -1    0    0  501    0 -0.00000000000E+00 -0.00000000000E+00 -0.30706013648E+03  0.30706013648E+03  0.00000000000E+00 0. -1.
         25    2    1    2    0    0  0.19904236916E+02  0.18080079634E+01 -0.13939230796E+03  0.18829222624E+03  0.12499719758E+03 0.  0.
          2    1    1    2  501    0 -0.23116353084E+02  0.25392993651E+02 -0.13892403655E+03  0.14310505874E+03  0.00000000000E+00 0. -1.
          1    1    1    2  502    0  0.32121161681E+01 -0.27201001614E+02  0.82919537255E+02  0.87326180712E+02  0.00000000000E+00 0. -1.
         22    1    3    3    0    0  0.16231191177E+02 -0.59616253542E+02 -0.48588076106E+02  0.78602483377E+02  0.00000000000E+00 0.  1.
         22    1    3    3    0    0  0.36730457395E+01  0.61424261506E+02 -0.90804231856E+02  0.10968974286E+03  0.00000000000E+00 0.  1.
</event>
<event>
 7    1  0.8278507E-006  0.5212393E+02  0.7818608E-02  0.1569127E+00
          2   -1    0    0  502    0  0.00000000000E+00  0.00000000000E+00  0.26459254314E+03  0.26459254314E+03  0.00000000000E+00 0. -1.
          1   -1    0    0  501    0 -0.00000000000E+00 -0.00000000000E+00 -0.94803030844E+02  0.94803030844E+02  0.00000000000E+00 0. -1.
         25    2    1    2    0    0  0.85964275274E+01  0.69732155327E+02  0.18367615524E+03  0.23302123568E+03  0.12500197688E+03 0.  0.
          2    1    1    2  501    0  0.67701266842E+00 -0.51303402222E+02 -0.58143864309E+02  0.77544866900E+02  0.00000000000E+00 0. -1.
          1    1    1    2  502    0 -0.92734401958E+01 -0.18428753105E+02  0.44257221366E+02  0.48829471399E+02  0.00000000000E+00 0. -1.
         22    1    3    3    0    0 -0.50908796636E+02  0.56174387821E+02  0.66236983339E+02  0.10067077721E+03  0.00000000000E+00 0.  1.
         22    1    3    3    0    0  0.59505224163E+02  0.13557767506E+02  0.11743917190E+03  0.13235045848E+03  0.00000000000E+00 0.  1.
</event>
<event>
 7    1  0.8278507E-006  0.1171308E+03  0.7818608E-02  0.1410711E+00
          2   -1    0    0  502    0  0.00000000000E+00  0.00000000000E+00  0.40303756809E+03  0.40303756809E+03  0.00000000000E+00 0. -1.
          1   -1    0    0  501    0 -0.00000000000E+00 -0.00000000000E+00 -0.77453853311E+03  0.77453853311E+03  0.00000000000E+00 0. -1.
         25    2    1    2    0    0  0.79702624260E+02 -0.10543591759E+03  0.20494112717E+03  0.27403408260E+03  0.12499828715E+03 0.  0.
          2    1    1    2  501    0 -0.26087083058E+01  0.27649856041E+02 -0.72136077019E+03  0.72189520062E+03  0.00000000000E+00 0. -1.
          1    1    1    2  502    0 -0.77093915954E+02  0.77786061544E+02  0.14491867801E+03  0.18164681798E+03  0.00000000000E+00 0. -1.
         22    1    3    3    0    0 -0.28316537756E+02 -0.24287177097E+01  0.14014439827E+02  0.31688002522E+02  0.00000000000E+00 0. -1.
         22    1    3    3    0    0  0.10801916202E+03 -0.10300719988E+03  0.19092668734E+03  0.24234608008E+03  0.00000000000E+00 0. -1.
</event>
<event>
 7    1  0.8278507E-006  0.9090685E+02  0.7818608E-02  0.1488808E+00
          2   -1    0    0  502    0  0.00000000000E+00  0.00000000000E+00  0.30111610757E+03  0.30111610757E+03  0.00000000000E+00 0. -1.
          1   -1    0    0  501    0 -0.00000000000E+00 -0.00000000000E+00 -0.15892205983E+03  0.15892205983E+03  0.00000000000E+00 0. -1.
         25    2    1    2    0    0 -0.75413685015E+02  0.56960097760E+02 -0.79883034566E+01  0.15690783051E+03  0.12499831062E+03 0.  0.
          2    1    1    2  501    0  0.58826596735E+02 -0.68341386054E+02 -0.49209518326E+02  0.10272628790E+03  0.00000000000E+00 0. -1.
          1    1    1    2  502    0  0.16587088280E+02  0.11381288295E+02  0.19939186952E+03  0.20040404899E+03  0.00000000000E+00 0. -1.
         22    1    3    3    0    0 -0.44794358867E+02  0.59155534298E+02 -0.60728168583E+02  0.95884421486E+02  0.00000000000E+00 0. -1.
         22    1    3    3    0    0 -0.30619326148E+02 -0.21954365379E+01  0.52739865126E+02  0.61023409023E+02  0.00000000000E+00 0. -1.
</event>
<event>
 7    1  0.8278507E-006  0.6764837E+02  0.7818608E-02  0.1374404E+00
          2   -1    0    0  502    0  0.00000000000E+00  0.00000000000E+00  0.19843959343E+04  0.19843959343E+04  0.00000000000E+00 0. -1.
          1   -1    0    0  501    0 -0.00000000000E+00 -0.00000000000E+00 -0.70952018279E+02  0.70952018279E+02  0.00000000000E+00 0. -1.
         25    2    1    2    0    0  0.25965405909E+02 -0.29338048851E+02  0.61144714729E+03  0.62532149619E+03  0.12499774498E+03 0.  0.
          2    1    1    2  501    0  0.40422607476E+02  0.54243103989E+02 -0.44946108889E+02  0.81218558408E+02  0.00000000000E+00 0. -1.
          1    1    1    2  502    0 -0.66388013385E+02 -0.24905055138E+02  0.13469428776E+04  0.13488078979E+04  0.00000000000E+00 0. -1.
         22    1    3    3    0    0 -0.52897271831E+00 -0.63866398156E+02  0.52151966664E+03  0.52541598693E+03  0.00000000000E+00 0. -1.
         22    1    3    3    0    0  0.26494378627E+02  0.34528349305E+02  0.89927480647E+02  0.99905509258E+02  0.00000000000E+00 0. -1.
</event>
<event>
 7    1  0.8278507E-006  0.2460856E+03  0.7818608E-02  0.1214800E+00
          2   -1    0    0  502    0  0.00000000000E+00  0.00000000000E+00  0.12326540337E+03  0.12326540337E+03  0.00000000000E+00 0. -1.
          1   -1    0    0  501    0 -0.00000000000E+00 -0.00000000000E+00 -0.14504262320E+04  0.14504262320E+04  0.00000000000E+00 0. -1.
         25    2    1    2    0    0  0.21907432844E+03  0.16668886388E+01 -0.56382049723E+03  0.61766781582E+03  0.12499455074E+03 0.  0.
          2    1    1    2  501    0 -0.26284666677E+03 -0.66726356172E+02 -0.81711661096E+03  0.86094153852E+03  0.00000000000E+00 0. -1.
          1    1    1    2  502    0  0.43772338329E+02  0.65059467533E+02  0.53776279575E+02  0.95082281017E+02  0.00000000000E+00 0. -1.
         22    1    3    3    0    0  0.41603362201E+02 -0.47756617779E+02 -0.20120963543E+03  0.21094276872E+03  0.00000000000E+00 0. -1.
         22    1    3    3    0    0  0.17747096624E+03  0.49423506418E+02 -0.36261086180E+03  0.40672504710E+03  0.00000000000E+00 0. -1.
</event>
<event>
 7    1  0.8278507E-006  0.6820424E+02  0.7818608E-02  0.1431801E+00
          2   -1    0    0  502    0  0.00000000000E+00  0.00000000000E+00  0.16419274392E+04  0.16419274392E+04  0.00000000000E+00 0. -1.
          1   -1    0    0  501    0 -0.00000000000E+00 -0.00000000000E+00 -0.11315299493E+04  0.11315299493E+04  0.00000000000E+00 0. -1.
         25    2    1    2    0    0  0.95658140090E+02 -0.92358250102E+01 -0.19587803242E+02  0.15888546908E+03  0.12500052008E+03 0.  0.
          2    1    1    2  501    0 -0.65466741589E+02 -0.17858007615E+02 -0.10409267056E+04  0.10431362371E+04  0.00000000000E+00 0. -1.
          1    1    1    2  502    0 -0.30191398501E+02  0.27093832625E+02  0.15709119987E+04  0.15714356824E+04  0.00000000000E+00 0. -1.
         22    1    3    3    0    0  0.78224028712E+02  0.88188108970E+01  0.44240862523E+02  0.90299634607E+02  0.00000000000E+00 0.  1.
         22    1    3    3    0    0  0.17434111378E+02 -0.18054635907E+02 -0.63828665765E+02  0.68585834475E+02  0.00000000000E+00 0.  1.
</event>
<event>
 7    1  0.8278507E-006  0.7397888E+02  0.7818608E-02  0.1384376E+00
          2   -1    0    0  502    0  0.00000000000E+00  0.00000000000E+00  0.79809304561E+03  0.79809304561E+03  0.00000000000E+00 0. -1.
          1   -1    0    0  501    0 -0.00000000000E+00 -0.00000000000E+00 -0.66706825418E+02  0.66706825418E+02  0.00000000000E+00 0. -1.
         25    2    1    2    0    0 -0.27182886263E+02 -0.29232342937E+02  0.10420237071E+03  0.16756025628E+03  0.12499946497E+03 0.  0.
          2    1    1    2  501    0 -0.49650979346E+02  0.21758989255E+02 -0.10231564341E+02  0.55166640937E+02  0.00000000000E+00 0. -1.
          1    1    1    2  502    0  0.76833865609E+02  0.74733536815E+01  0.63741541383E+03  0.64207297381E+03  0.00000000000E+00 0. -1.
         22    1    3    3    0    0  0.69794085304E+01  0.23800517969E+02  0.10142700744E+03  0.10441558618E+03  0.00000000000E+00 0. -1.
         22    1    3    3    0    0 -0.34162294793E+02 -0.53032860906E+02  0.27753632756E+01  0.63144670105E+02  0.00000000000E+00 0. -1.
</event>
<event>
 7    1  0.8278507E-006  0.1141055E+03  0.7818608E-02  0.1268866E+00
          2   -1    0    0  502    0  0.00000000000E+00  0.00000000000E+00  0.62357099343E+03  0.62357099343E+03  0.00000000000E+00 0. -1.
          1   -1    0    0  501    0 -0.00000000000E+00 -0.00000000000E+00 -0.23155551051E+04  0.23155551051E+04  0.00000000000E+00 0. -1.
         25    2    1    2    0    0  0.94374161829E+02 -0.60146008882E+02  0.21095199909E+03  0.26953546596E+03  0.12499838673E+03 0.  0.
          2    1    1    2  501    0 -0.12526266467E+02  0.11367881590E+03 -0.22785677221E+04  0.22814360926E+04  0.00000000000E+00 0. -1.
          1    1    1    2  502    0 -0.81847895362E+02 -0.53532807021E+02  0.37563161137E+03  0.38815453993E+03  0.00000000000E+00 0. -1.
         22    1    3    3    0    0  0.55196301222E+02 -0.75020905298E+02  0.55250560374E+02  0.10829308529E+03  0.00000000000E+00 0.  1.
         22    1    3    3    0    0  0.39177860607E+02  0.14874896416E+02  0.15570143871E+03  0.16124238066E+03  0.00000000000E+00 0.  1.
</event>
<event>
 7    1  0.8278507E-006  0.1911860E+03  0.7818608E-02  0.1208784E+00
          2   -1    0    0  502    0  0.00000000000E+00  0.00000000000E+00  0.10160623243E+04  0.10160623243E+04  0.00000000000E+00 0. -1.
          1   -1    0    0  501    0 -0.00000000000E+00 -0.00000000000E+00 -0.27569642511E+04  0.27569642511E+04  0.00000000000E+00 0. -1.
         25    2    1    2    0    0 -0.81137989039E+02  0.47692713776E+02  0.43142897221E+02  0.16231196807E+03  0.12500358869E+03 0.  0.
          2    1    1    2  501    0  0.13333391886E+03 -0.14179182889E+03 -0.26906827994E+04  0.26977132508E+04  0.00000000000E+00 0. -1.
          1    1    1    2  502    0 -0.52195929821E+02  0.94099115115E+02  0.90663797542E+03  0.91300135654E+03  0.00000000000E+00 0. -1.
         22    1    3    3    0    0 -0.94571201583E+00  0.60045551096E+02 -0.15713661235E+02  0.62074807507E+02  0.00000000000E+00 0.  1.
         22    1    3    3    0    0 -0.80192277023E+02 -0.12352837320E+02  0.58856558456E+02  0.10023716056E+03  0.00000000000E+00 0.  1.
</event>
<event>
 7    1  0.8278507E-006  0.1934221E+03  0.7818608E-02  0.1304748E+00
          2   -1    0    0  502    0  0.00000000000E+00  0.00000000000E+00  0.24589567666E+04  0.24589567666E+04  0.00000000000E+00 0. -1.
          1   -1    0    0  501    0 -0.00000000000E+00 -0.00000000000E+00 -0.18623358521E+04  0.18623358521E+04  0.00000000000E+00 0. -1.
         25    2    1    2    0    0  0.10452836223E+03  0.11855708682E+03  0.79155252219E+03  0.81679899814E+03  0.12499298630E+03 0.  0.
          2    1    1    2  501    0 -0.11005327988E+03 -0.15934041777E+03 -0.18443867261E+04  0.18545251383E+04  0.00000000000E+00 0. -1.
          1    1    1    2  502    0  0.55249176514E+01  0.40783330942E+02  0.16494551185E+04  0.16499684823E+04  0.00000000000E+00 0. -1.
         22    1    3    3    0    0  0.35764851419E+02  0.63935029043E+02  0.12817032965E+03  0.14762942098E+03  0.00000000000E+00 0. -1.
         22    1    3    3    0    0  0.68763510808E+02  0.54622057781E+02  0.66338219254E+03  0.66916957716E+03  0.00000000000E+00 0. -1.
</event>
<event>
 7    1  0.8278507E-006  0.5981158E+02  0.7818608E-02  0.1468005E+00
          2   -1    0    0  502    0  0.00000000000E+00  0.00000000000E+00  0.10633886086E+04  0.10633886086E+04  0.00000000000E+00 0. -1.
          1   -1    0    0  501    0 -0.00000000000E+00 -0.00000000000E+00 -0.33333309239E+03  0.33333309239E+03  0.00000000000E+00 0. -1.
         25    2    1    2    0    0  0.44610044322E+02  0.77665064648E+02  0.26039868268E+03  0.30241345597E+03  0.12499802434E+03 0.  0.
          2    1    1    2  501    0 -0.41855236692E+02 -0.42346581537E+02 -0.30908170282E+03  0.31476434491E+03  0.00000000000E+00 0. -1.
          1    1    1    2  502    0 -0.27548076298E+01 -0.35318483111E+02  0.77873853636E+03  0.77954390013E+03  0.00000000000E+00 0. -1.
         22    1    3    3    0    0 -0.89418319742E+01  0.60953284912E+02  0.36527850150E+02  0.71620828934E+02  0.00000000000E+00 0. -1.
         22    1    3    3    0    0  0.53551876296E+02  0.16711779736E+02  0.22387083253E+03  0.23079262704E+03  0.00000000000E+00 0. -1.
</event>
<event>
 7    1  0.8278507E-006  0.2115328E+03  0.7818608E-02  0.1208910E+00
          2   -1    0    0  502    0  0.00000000000E+00  0.00000000000E+00  0.77560042954E+03  0.77560042954E+03  0.00000000000E+00 0. -1.
          1   -1    0    0  501    0 -0.00000000000E+00 -0.00000000000E+00 -0.40652418605E+03  0.40652418605E+03  0.00000000000E+00 0. -1.
         25    2    1    2    0    0 -0.17404556057E+03  0.71617631926E+02  0.38857390943E+03  0.44947313697E+03  0.12496189585E+03 0.  0.
          2    1    1    2  501    0  0.14015904374E+03 -0.16263917476E+03 -0.33758049566E+03  0.40007080593E+03  0.00000000000E+00 0. -1.
          1    1    1    2  502    0  0.33886516832E+02  0.91021542829E+02  0.31808282973E+03  0.33258067269E+03  0.00000000000E+00 0. -1.
         22    1    3    3    0    0 -0.24122950617E+02 -0.21294339865E+02  0.14629888464E+03  0.14979562511E+03  0.00000000000E+00 0. -1.
         22    1    3    3    0    0 -0.14992260995E+03  0.92911971791E+02  0.24227502479E+03  0.29967751186E+03  0.00000000000E+00 0. -1.
</event>
<event>
 7    1  0.8278507E-006  0.4197646E+02  0.7818608E-02  0.1540460E+00
          2   -1    0    0  502    0  0.00000000000E+00  0.00000000000E+00  0.24991758030E+04  0.24991758030E+04  0.00000000000E+00 0. -1.
          1   -1    0    0  501    0 -0.00000000000E+00 -0.00000000000E+00 -0.33037339256E+03  0.33037339256E+03  0.00000000000E+00 0. -1.
         25    2    1    2    0    0 -0.14137452469E+02 -0.68934857177E+02  0.24289940706E+03  0.28209432803E+03  0.12500082345E+03 0.  0.
          2    1    1    2  501    0  0.16841495421E+02  0.38292607879E+02 -0.30926188545E+03  0.31207831321E+03  0.00000000000E+00 0. -1.
          1    1    1    2  502    0 -0.27040429517E+01  0.30642249298E+02  0.22351648889E+04  0.22353765543E+04  0.00000000000E+00 0. -1.
         22    1    3    3    0    0 -0.56137602327E+02 -0.16339376276E+02  0.18258120777E+03  0.19171411801E+03  0.00000000000E+00 0.  1.
         22    1    3    3    0    0  0.42000149858E+02 -0.52595480901E+02  0.60318199285E+02  0.90380210026E+02  0.00000000000E+00 0.  1.
</event>
<event>
 7    1  0.8278507E-006  0.5829597E+02  0.7818608E-02  0.1445068E+00
          2   -1    0    0  502    0  0.00000000000E+00  0.00000000000E+00  0.47285497474E+03  0.47285497474E+03  0.00000000000E+00 0. -1.
          1   -1    0    0  501    0 -0.00000000000E+00 -0.00000000000E+00 -0.14419512406E+03  0.14419512406E+03  0.00000000000E+00 0. -1.
         25    2    1    2    0    0 -0.65579625543E+02  0.46725027555E+02  0.65662090386E+01  0.14883303292E+03  0.12499696436E+03 0.  0.
          2    1    1    2  501    0  0.56265479745E+02 -0.47748018660E+01 -0.60766556984E+02  0.82952862467E+02  0.00000000000E+00 0. -1.
          1    1    1    2  502    0  0.93141457981E+01 -0.41950225689E+02  0.38286019862E+03  0.38526420341E+03  0.00000000000E+00 0. -1.
         22    1    3    3    0    0 -0.80272374974E+02  0.72187020429E+02  0.29080696564E+02  0.11180477188E+03  0.00000000000E+00 0.  1.
         22    1    3    3    0    0  0.14692749431E+02 -0.25461992874E+02 -0.22514487526E+02  0.37028261038E+02  0.00000000000E+00 0.  1.
</event>
<event>
 7    1  0.8278507E-006  0.2906369E+03  0.7818608E-02  0.1268361E+00
          2   -1    0    0  502    0  0.00000000000E+00  0.00000000000E+00  0.16192339279E+03  0.16192339279E+03  0.00000000000E+00 0. -1.
          1   -1    0    0  501    0 -0.00000000000E+00 -0.00000000000E+00 -0.29917810005E+04  0.29917810005E+04  0.00000000000E+00 0. -1.
         25    2    1    2    0    0 -0.24783300142E+03  0.13728632754E+03 -0.14366516145E+03  0.34136890151E+03  0.12499726390E+03 0.  0.
          2    1    1    2  501    0 -0.31972012935E+02 -0.21601530941E+02 -0.23848340904E+04  0.23851462165E+04  0.00000000000E+00 0. -1.
          1    1    1    2  502    0  0.27980501435E+03 -0.11568479660E+03 -0.30135835593E+03  0.42718927528E+03  0.00000000000E+00 0. -1.
         22    1    3    3    0    0  0.13362660133E+02  0.16210860741E+02 -0.39976080832E+01  0.21385358593E+02  0.00000000000E+00 0.  1.
         22    1    3    3    0    0 -0.26119566155E+03  0.12107546680E+03 -0.13966755337E+03  0.31998354292E+03  0.00000000000E+00 0.  1.
</event>
<event>
 7    1  0.8278507E-006  0.6967986E+02  0.7818608E-02  0.1518539E+00
          2   -1    0    0  502    0  0.00000000000E+00  0.00000000000E+00  0.26154307528E+04  0.26154307528E+04  0.00000000000E+00 0. -1.
          1   -1    0    0  501    0 -0.00000000000E+00 -0.00000000000E+00 -0.81753601880E+01  0.81753601880E+01  0.00000000000E+00 0. -1.
         25    2    1    2    0    0 -0.58791739265E+02 -0.38583461229E+02  0.79112838391E+03  0.80402216804E+03  0.12498949870E+03 0.  0.
          2    1    1    2  501    0  0.14626405860E+02 -0.15644165502E+02  0.11240407447E+03  0.11442616668E+03  0.00000000000E+00 0. -1.
          1    1    1    2  502    0  0.44165333405E+02  0.54227626731E+02  0.17037229342E+04  0.17051577783E+04  0.00000000000E+00 0. -1.
         22    1    3    3    0    0 -0.87308051537E+02 -0.99865048081E+01  0.68241517676E+03  0.68805007058E+03  0.00000000000E+00 0. -1.
         22    1    3    3    0    0  0.28516312273E+02 -0.28596956421E+02  0.10871320714E+03  0.11597209746E+03  0.00000000000E+00 0. -1.
</event>
<event>
 7    1  0.8278507E-006  0.5529860E+02  0.7818608E-02  0.1425802E+00
          2   -1    0    0  502    0  0.00000000000E+00  0.00000000000E+00  0.17291681490E+04  0.17291681490E+04  0.00000000000E+00 0. -1.
          1   -1    0    0  501    0 -0.00000000000E+00 -0.00000000000E+00 -0.20417688347E+02  0.20417688347E+02  0.00000000000E+00 0. -1.
         25    2    1    2    0    0  0.92680607203E+02 -0.27411622074E+01  0.62297510557E+03  0.64212110382E+03  0.12499728352E+03 0.  0.
          2    1    1    2  501    0 -0.45047987923E+02  0.26698832019E+02  0.57359383136E+02  0.77667545865E+02  0.00000000000E+00 0. -1.
          1    1    1    2  502    0 -0.47632619280E+02 -0.23957669811E+02  0.10284159720E+04  0.10297971877E+04  0.00000000000E+00 0. -1.
         22    1    3    3    0    0  0.74280117655E+02 -0.19491811986E+01  0.13747069458E+03  0.15626748560E+03  0.00000000000E+00 0. -1.
         22    1    3    3    0    0  0.18400489548E+02 -0.79198100874E+00  0.48550441099E+03  0.48585361822E+03  0.00000000000E+00 0. -1.
</event>
<event>
 7    1  0.8278507E-006  0.1131511E+03  0.7818608E-02  0.1381385E+00
          2   -1    0    0  502    0  0.00000000000E+00  0.00000000000E+00  0.45175961588E+02  0.45175961588E+02  0.00000000000E+00 0. -1.
          1   -1    0    0  501    0 -0.00000000000E+00 -0.00000000000E+00 -0.85352462048E+03  0.85352462048E+03  0.00000000000E+00 0. -1.
         25    2    1    2    0    0  0.87727490944E+02  0.56322404880E+01 -0.35074566287E+03  0.38259082604E+03  0.12500154136E+03 0.  0.
          2    1    1    2  501    0  0.32841660816E+02  0.15495608900E+02 -0.35367604983E+03  0.35553542271E+03  0.00000000000E+00 0. -1.
          1    1    1    2  502    0 -0.12056915176E+03 -0.21127849388E+02 -0.10392694619E+03  0.16057433332E+03  0.00000000000E+00 0. -1.
         22    1    3    3    0    0  0.66395309051E+02 -0.44132518761E+02 -0.29204956517E+03  0.30273580032E+03  0.00000000000E+00 0.  1.
         22    1    3    3    0    0  0.21332181893E+02  0.49764759249E+02 -0.58696097699E+02  0.79855025719E+02  0.00000000000E+00 0.  1.
</event>
<event>
 7    1  0.8278507E-006  0.8544472E+02  0.7818608E-02  0.1356047E+00
          2   -1    0    0  502    0  0.00000000000E+00  0.00000000000E+00  0.81468196854E+03  0.81468196854E+03  0.00000000000E+00 0. -1.
          1   -1    0    0  501    0 -0.00000000000E+00 -0.00000000000E+00 -0.10906493315E+04  0.10906493315E+04  0.00000000000E+00 0. -1.
         25    2    1    2    0    0 -0.49252183960E+02 -0.53590272236E+02 -0.43977776843E+02  0.15119239801E+03  0.12500960546E+03 0.  0.
          2    1    1    2  501    0  0.49546838300E+02 -0.32647789258E+02 -0.98972990430E+03  0.99150695953E+03  0.00000000000E+00 0. -1.
          1    1    1    2  502    0 -0.29465433987E+00  0.86238061494E+02  0.75774031813E+03  0.76263194255E+03  0.00000000000E+00 0. -1.
         22    1    3    3    0    0 -0.72715811584E+02 -0.26310494962E+02  0.18119021258E+02  0.79423739089E+02  0.00000000000E+00 0.  1.
         22    1    3    3    0    0  0.23463627624E+02 -0.27279777275E+02 -0.62096798101E+02  0.71768658924E+02  0.00000000000E+00 0.  1.
</event>
<event>
 7    1  0.8278507E-006  0.4380708E+02  0.7818608E-02  0.1486028E+00
          2   -1    0    0  502    0  0.00000000000E+00  0.00000000000E+00  0.69186821663E+03  0.69186821663E+03  0.00000000000E+00 0. -1.
          1   -1    0    0  501    0 -0.00000000000E+00 -0.00000000000E+00 -0.97196279534E+02  0.97196279534E+02  0.00000000000E+00 0. -1.
         25    2    1    2    0    0 -0.81539826143E+02 -0.22733628842E+02  0.19898259975E+03  0.24977000111E+03  0.12500166928E+03 0.  0.
          2    1    1    2  501    0  0.39495069184E+02  0.16107213731E+02 -0.64398005133E+02  0.77242513483E+02  0.00000000000E+00 0. -1.
          1    1    1    2  502    0  0.42044756959E+02  0.66264151111E+01  0.46008734247E+03  0.46205198157E+03  0.00000000000E+00 0. -1.
         22    1    3    3    0    0 -0.76012592735E+02 -0.67819214550E+02  0.11038653113E+03  0.15020834322E+03  0.00000000000E+00 0.  1.
         22    1    3    3    0    0 -0.55272334078E+01  0.45085585708E+02  0.88596068615E+02  0.99561657890E+02  0.00000000000E+00 0.  1.
</event>
<event>
 7    1  0.8278507E-006  0.8653805E+02  0.7818608E-02  0.1405918E+00
          2   -1    0    0  502    0  0.00000000000E+00  0.00000000000E+00  0.22635052935E+03  0.22635052935E+03  0.00000000000E+00 0. -1.
          1   -1    0    0  501    0 -0.00000000000E+00 -0.00000000000E+00 -0.65521233548E+03  0.65521233548E+03  0.00000000000E+00 0. -1.
         25    2    1    2    0    0  0.80577272940E+02  0.44952829955E+02 -0.35235934514E+03  0.38509165039E+03  0.12500006902E+03 0.  0.
          2    1    1    2  501    0 -0.29798967199E+02  0.25201752692E+02 -0.27612657228E+03  0.27887092122E+03  0.00000000000E+00 0. -1.
          1    1    1    2  502    0 -0.50778305741E+02 -0.70154582647E+02  0.19962411129E+03  0.21760029322E+03  0.00000000000E+00 0. -1.
         22    1    3    3    0    0  0.92653814982E+01  0.62319842384E+01 -0.26730345845E+03  0.26753658408E+03  0.00000000000E+00 0.  1.
         22    1    3    3    0    0  0.71311891442E+02  0.38720845717E+02 -0.85055886686E+02  0.11755506631E+03  0.00000000000E+00 0.  1.
</event>
<event>
 7    1  0.8278507E-006  0.5231151E+02  0.7818608E-02  0.1455299E+00
          2   -1    0    0  502    0  0.00000000000E+00  0.00000000000E+00  0.20292976380E+04  0.20292976380E+04  0.00000000000E+00 0. -1.
          1   -1    0    0  501    0 -0.00000000000E+00 -0.00000000000E+00 -0.44311225348E+02  0.44311225348E+02  0.00000000000E+00 0. -1.
         25    2    1    2    0    0  0.39518985482E+02  0.68712330928E+02  0.94840774911E+03  0.95988814747E+03  0.12499944977E+03 0.  0.
          2    1    1    2  501    0 -0.45764212692E+02 -0.24741919540E+02 -0.20347521111E+02  0.55861859629E+02  0.00000000000E+00 0. -1.
          1    1    1    2  502    0  0.62452272105E+01 -0.43970411388E+02  0.10569261847E+04  0.10578588563E+04  0.00000000000E+00 0. -1.
         22    1    3    3    0    0  0.11864770184E+02 -0.35383339983E+02  0.33765031332E+03  0.33970647271E+03  0.00000000000E+00 0.  1.
         22    1    3    3    0    0  0.27654215297E+02  0.10409567091E+03  0.61075743579E+03  0.62018167476E+03  0.00000000000E+00 0.  1.
</event>
<event>
 7    1  0.8278507E-006  0.8215101E+02  0.7818608E-02  0.1454919E+00
          2   -1    0    0  502    0  0.00000000000E+00  0.00000000000E+00  0.22370466277E+03  0.22370466277E+03  0.00000000000E+00 0. -1.
          1   -1    0    0  501    0 -0.00000000000E+00 -0.00000000000E+00 -0.12694739709E+03  0.12694739709E+03  0.00000000000E+00 0. -1.
         25    2    1    2    0    0  0.70087790037E+02 -0.62421602692E+02  0.31969224689E+02  0.15954749859E+03  0.12499847272E+03 0.  0.
          2    1    1    2  501    0 -0.27734372062E+02 -0.59185863717E+01 -0.46107147488E+02  0.54130343688E+02  0.00000000000E+00 0. -1.
          1    1    1    2  502    0 -0.42353417975E+02  0.68340189064E+02  0.11089518848E+03  0.13697421759E+03  0.00000000000E+00 0. -1.
         22    1    3    3    0    0  0.62600906007E+02 -0.18137137148E+02  0.73598766214E+02  0.98308735955E+02  0.00000000000E+00 0. -1.
         22    1    3    3    0    0  0.74868840296E+01 -0.44284465544E+02 -0.41629541525E+02  0.61238762631E+02  0.00000000000E+00 0. -1.
</event>
<event>
 7    1  0.8278507E-006  0.9145514E+02  0.7818608E-02  0.1343072E+00
          2   -1    0    0  502    0  0.00000000000E+00  0.00000000000E+00  0.48265006620E+03  0.48265006620E+03  0.00000000000E+00 0. -1.
          1   -1    0    0  501    0 -0.00000000000E+00 -0.00000000000E+00 -0.21260092033E+04  0.21260092033E+04  0.00000000000E+00 0. -1.
         25    2    1    2    0    0  0.26516975749E+02  0.36648828884E+02 -0.21866381147E+03  0.25590129756E+03  0.12500129992E+03 0.  0.
          2    1    1    2  501    0 -0.50301738606E+01 -0.94732584980E+02 -0.18854624450E+04  0.18878475036E+04  0.00000000000E+00 0. -1.
          1    1    1    2  502    0 -0.21486801888E+02  0.58083756097E+02  0.46076711932E+03  0.46491046840E+03  0.00000000000E+00 0. -1.
         22    1    3    3    0    0  0.23856687875E+02  0.69636389418E+02 -0.63398215304E+02  0.97147835752E+02  0.00000000000E+00 0.  1.
         22    1    3    3    0    0  0.26602878739E+01 -0.32987560535E+02 -0.15526559617E+03  0.15875346181E+03  0.00000000000E+00 0.  1.
</event>
<event>
 7    1  0.8278507E-006  0.5611987E+02  0.7818608E-02  0.1510140E+00
          2   -1    0    0  502    0  0.00000000000E+00  0.00000000000E+00  0.10190273088E+04  0.10190273088E+04  0.00000000000E+00 0. -1.
          1   -1    0    0  501    0 -0.00000000000E+00 -0.00000000000E+00 -0.76267225938E+02  0.76267225938E+02  0.00000000000E+00 0. -1.
         25    2    1    2    0    0 -0.42587950105E+02 -0.49866340686E+01  0.26977631661E+03  0.30039829884E+03  0.12498510683E+03 0.  0.
          2    1    1    2  501    0  0.52886118345E+02 -0.21200944809E+02 -0.47306666034E+02  0.74056344938E+02  0.00000000000E+00 0. -1.
          1    1    1    2  502    0 -0.10298168240E+02  0.26187578878E+02  0.72029043226E+03  0.72083989093E+03  0.00000000000E+00 0. -1.
         22    1    3    3    0    0 -0.21527681397E+01  0.26529873297E+02  0.23926089491E+03  0.24073687798E+03  0.00000000000E+00 0.  1.
         22    1    3    3    0    0 -0.40435181965E+02 -0.31516507366E+02  0.30515421700E+02  0.59661420856E+02  0.00000000000E+00 0.  1.
</event>
<event>
 7    1  0.8278507E-006  0.1384494E+03  0.7818608E-02  0.1263498E+00
          2   -1    0    0  502    0  0.00000000000E+00  0.00000000000E+00  0.33040256469E+04  0.33040256469E+04  0.00000000000E+00 0. -1.
          1   -1    0    0  501    0 -0.00000000000E+00 -0.00000000000E+00 -0.13153948789E+04  0.13153948789E+04  0.00000000000E+00 0. -1.
         25    2    1    2    0    0 -0.79323119440E+02  0.20465006969E+02  0.64676102057E+02  0.16285123995E+03  0.12500621740E+03 0.  0.
          2    1    1    2  501    0 -0.15385788637E+02  0.83520384025E+02 -0.12633307273E+04  0.12661820183E+04  0.00000000000E+00 0. -1.
          1    1    1    2  502    0  0.94708908077E+02 -0.10398539099E+03  0.31872853933E+04  0.31903872676E+04  0.00000000000E+00 0. -1.
         22    1    3    3    0    0 -0.10903421041E+03 -0.78163944634E-01  0.30729834060E+02  0.11328189551E+03  0.00000000000E+00 0.  1.
         22    1    3    3    0    0  0.29711090968E+02  0.20543170914E+02  0.33946267997E+02  0.49569344444E+02  0.00000000000E+00 0.  1.
</event>
<event>
 7    1  0.8278507E-006  0.4847308E+02  0.7818608E-02  0.1457805E+00
          2   -1    0    0  502    0  0.00000000000E+00  0.00000000000E+00  0.59812715628E+03  0.59812715628E+03  0.00000000000E+00 0. -1.
          1   -1    0    0  501    0 -0.00000000000E+00 -0.00000000000E+00 -0.45942245287E+03  0.45942245287E+03  0.00000000000E+00 0. -1.
         25    2    1    2    0    0  0.83986985797E+02  0.61873395392E+01  0.32025579322E+03  0.35394884456E+03  0.12499565800E+03 0.  0.
          2    1    1    2  501    0 -0.41085101693E+02 -0.25527660424E+02 -0.43911599449E+03  0.44177200414E+03  0.00000000000E+00 0. -1.
          1    1    1    2  502    0 -0.42901884103E+02  0.19340320884E+02  0.25756490468E+03  0.26182876044E+03  0.00000000000E+00 0. -1.
         22    1    3    3    0    0  0.43010564598E+02 -0.57195200270E+02  0.19493478302E+03  0.20765540983E+03  0.00000000000E+00 0. -1.
         22    1    3    3    0    0  0.40976421199E+02  0.63382539809E+02  0.12532101020E+03  0.14629343473E+03  0.00000000000E+00 0. -1.
</event>
<event>
 7    1  0.8278507E-006  0.6777108E+02  0.7818608E-02  0.1395879E+00
          2   -1    0    0  502    0  0.00000000000E+00  0.00000000000E+00  0.39741986067E+04  0.39741986067E+04  0.00000000000E+00 0. -1.
          1   -1    0    0  501    0 -0.00000000000E+00 -0.00000000000E+00 -0.15263747052E+02  0.15263747052E+02  0.00000000000E+00 0. -1.
         25    2    1    2    0    0  0.32218266879E+02 -0.51551124041E+02  0.19895184835E+04  0.19943678538E+04  0.12499521920E+03 0.  0.
          2    1    1    2  501    0  0.40407252466E+02  0.35749240621E+02  0.47916741186E+02  0.72157940262E+02  0.00000000000E+00 0. -1.
          1    1    1    2  502    0 -0.72625519345E+02  0.15801883420E+02  0.19214996349E+04  0.19229365597E+04  0.00000000000E+00 0. -1.
         22    1    3    3    0    0 -0.79054526419E+01  0.21301290150E+01  0.71592425846E+01  0.10876046408E+02  0.00000000000E+00 0.  1.
         22    1    3    3    0    0  0.40123719521E+02 -0.53681253056E+02  0.19823592409E+04  0.19834918074E+04  0.00000000000E+00 0.  1.
</event>
<event>
 7    1  0.8278507E-006  0.3425481E+02  0.7818608E-02  0.1565046E+00
          2   -1    0    0  502    0  0.00000000000E+00  0.00000000000E+00  0.11670608845E+04  0.11670608845E+04  0.00000000000E+00 0. -1.
          1   -1    0    0  501    0 -0.00000000000E+00 -0.00000000000E+00 -0.56139165530E+03  0.56139165530E+03  0.00000000000E+00 0. -1.
         25    2    1    2    0    0 -0.27910395987E+02 -0.32495961495E+02  0.31617160948E+02  0.13586826458E+03  0.12500225093E+03 0.  0.
          2    1    1    2  501    0  0.32171335536E+02 -0.15211625042E+01 -0.50848525535E+03  0.50950423323E+03  0.00000000000E+00 0. -1.
          1    1    1    2  502    0 -0.42609395485E+01  0.34017124000E+02  0.10825373236E+04  0.10830800420E+04  0.00000000000E+00 0. -1.
         22    1    3    3    0    0  0.97404288999E+01 -0.58929351532E+02  0.57647765792E+02  0.83010898850E+02  0.00000000000E+00 0.  1.
         22    1    3    3    0    0 -0.37650824887E+02  0.26433390037E+02 -0.26030604844E+02  0.52857365731E+02  0.00000000000E+00 0.  1.
</event>
<event>
 7    1  0.8278507E-006  0.2618722E+03  0.7818608E-02  0.1198789E+00
          2   -1    0    0  502    0  0.00000000000E+00  0.00000000000E+00  0.59565853392E+03  0.59565853392E+03  0.00000000000E+00 0. -1.
          1   -1    0    0  501    0 -0.00000000000E+00 -0.00000000000E+00 -0.30625943670E+03  0.30625943670E+03  0.00000000000E+00 0. -1.
         25    2    1    2    0    0  0.18969042583E+03  0.59599780584E+02 -0.46246268269E+02  0.23938006278E+03  0.12501802123E+03 0.  0.
          2    1    1    2  501    0  0.86583493455E+02 -0.12673186205E+02 -0.10725867894E+03  0.13842591952E+03  0.00000000000E+00 0. -1.
          1    1    1    2  502    0 -0.27627391928E+03 -0.46926594378E+02  0.44290404442E+03  0.52411198832E+03  0.00000000000E+00 0. -1.
         22    1    3    3    0    0  0.51810426313E+02 -0.95143773296E+01  0.36754746847E+02  0.64232040809E+02  0.00000000000E+00 0. -1.
         22    1    3    3    0    0  0.13787999951E+03  0.69114157913E+02 -0.83001015116E+02  0.17514802197E+03  0.00000000000E+00 0. -1.
</event>
<event>
 7    1  0.8278507E-006  0.1120699E+03  0.7818608E-02  0.1347524E+00
          2   -1    0    0  502    0  0.00000000000E+00  0.00000000000E+00  0.10953662838E+04  0.10953662838E+04  0.00000000000E+00 0. -1.
          1   -1    0    0  501    0 -0.00000000000E+00 -0.00000000000E+00 -0.86751052068E+03  0.86751052068E+03  0.00000000000E+00 0. -1.
         25    2    1    2    0    0  0.14816714349E+03 -0.21329019966E+01 -0.43167161077E+03  0.47320509445E+03  0.12499852077E+03 0.  0.
          2    1    1    2  501    0 -0.40246349810E+02 -0.27317960572E+02 -0.41072174205E+03  0.41359205630E+03  0.00000000000E+00 0. -1.
          1    1    1    2  502    0 -0.10792079368E+03  0.29450862569E+02  0.10702491159E+04  0.10760796537E+04  0.00000000000E+00 0. -1.
         22    1    3    3    0    0  0.10310527649E+03  0.57541545515E+02 -0.24027501670E+03  0.26771965029E+03  0.00000000000E+00 0. -1.
         22    1    3    3    0    0  0.45061866999E+02 -0.59674447511E+02 -0.19139659406E+03  0.20548544416E+03  0.00000000000E+00 0. -1.
</event>
<event>
 7    1  0.8278507E-006  0.1204306E+03  0.7818608E-02  0.1352464E+00
          2   -1    0    0  502    0  0.00000000000E+00  0.00000000000E+00  0.12675559904E+04  0.12675559904E+04  0.00000000000E+00 0. -1.
          1   -1    0    0  501    0 -0.00000000000E+00 -0.00000000000E+00 -0.50330554947E+03  0.50330554947E+03  0.00000000000E+00 0. -1.
         25    2    1    2    0    0  0.15131604892E+03  0.23599047967E+02 -0.21727951833E+03  0.29374837070E+03  0.12499701786E+03 0.  0.
          2    1    1    2  501    0 -0.10801093192E+03 -0.20779814519E+02 -0.23517969625E+03  0.25962983579E+03  0.00000000000E+00 0. -1.
          1    1    1    2  502    0 -0.43305116997E+02 -0.28192334474E+01  0.12167096555E+04  0.12174833334E+04  0.00000000000E+00 0. -1.
         22    1    3    3    0    0  0.56530272027E+02 -0.46600049031E+02 -0.12118571053E+03  0.14160936643E+03  0.00000000000E+00 0.  1.
         22    1    3    3    0    0  0.94785776893E+02  0.70199096998E+02 -0.96093807805E+02  0.15213900427E+03  0.00000000000E+00 0.  1.
</event>
<event>
 7    1  0.8278507E-006  0.1477925E+03  0.7818608E-02  0.1219904E+00
          2   -1    0    0  502    0  0.00000000000E+00  0.00000000000E+00  0.13915654408E+03  0.13915654408E+03  0.00000000000E+00 0. -1.
          1   -1    0    0  501    0 -0.00000000000E+00 -0.00000000000E+00 -0.26225584796E+04  0.26225584796E+04  0.00000000000E+00 0. -1.
         25    2    1    2    0    0  0.47231467824E+02  0.15686860919E+02 -0.22312075284E+03  0.26054918259E+03  0.12500446809E+03 0.  0.
          2    1    1    2  501    0  0.11581958609E+03  0.43512870718E+02 -0.23157460763E+04  0.23190488215E+04  0.00000000000E+00 0. -1.
          1    1    1    2  502    0 -0.16305105391E+03 -0.59199731638E+02  0.55464893624E+02  0.18211701961E+03  0.00000000000E+00 0. -1.
         22    1    3    3    0    0 -0.26605073172E+01 -0.50701243624E+02 -0.71782221560E+02  0.87922589454E+02  0.00000000000E+00 0. -1.
         22    1    3    3    0    0  0.49891975141E+02  0.66388104543E+02 -0.15133853128E+03  0.17262659314E+03  0.00000000000E+00 0. -1.
</event>
<event>
 7    1  0.8278507E-006  0.3106126E+02  0.7818608E-02  0.1597707E+00
          2   -1    0    0  502    0  0.00000000000E+00  0.00000000000E+00  0.18118558102E+04  0.18118558102E+04  0.00000000000E+00 0. -1.
          1   -1    0    0  501    0 -0.00000000000E+00 -0.00000000000E+00 -0.83331857166E+02  0.83331857166E+02  0.00000000000E+00 0. -1.
         25    2    1    2    0    0 -0.23649671426E+02 -0.98607323366E+01  0.11523928067E+03  0.17193592650E+03  0.12500132004E+03 0.  0.
          2    1    1    2  501    0  0.25183145361E+02 -0.19140535590E+02 -0.50296964322E+02  0.59416626738E+02  0.00000000000E+00 0. -1.
          1    1    1    2  502    0 -0.15334739353E+01  0.29001267927E+02  0.16635816367E+04  0.16638351142E+04  0.00000000000E+00 0. -1.
         22    1    3    3    0    0 -0.30117597937E+02 -0.60130758792E+02  0.31992571710E+02  0.74473502020E+02  0.00000000000E+00 0.  1.
         22    1    3    3    0    0  0.64679265105E+01  0.50270026456E+02  0.83246708958E+02  0.97462424480E+02  0.00000000000E+00 0.  1.
</event>
<event>
 7    1  0.8278507E-006  0.1097437E+03  0.7818608E-02  0.1437906E+00
          2   -1    0    0  502    0  0.00000000000E+00  0.00000000000E+00  0.28132935204E+03  0.28132935204E+03  0.00000000000E+00 0. -1.
          1   -1    0    0  501    0 -0.00000000000E+00 -0.00000000000E+00 -0.24633199831E+03  0.24633199831E+03  0.00000000000E+00 0. -1.
         25    2    1    2    0    0 -0.46360652283E+02 -0.80452433635E+02 -0.14719832486E+03  0.21427654605E+03  0.12500074875E+03 0.  0.
          2    1    1    2  501    0  0.65742988829E+01 -0.23163993801E+02 -0.50293252707E+02  0.55760230294E+02  0.00000000000E+00 0. -1.
          1    1    1    2  502    0  0.39786353400E+02  0.10361642744E+03  0.23248893130E+03  0.25762457400E+03  0.00000000000E+00 0. -1.
         22    1    3    3    0    0 -0.85180657394E+02 -0.65874048942E+02 -0.75711654412E+02  0.13163354182E+03  0.00000000000E+00 0.  1.
         22    1    3    3    0    0  0.38820005111E+02 -0.14578384693E+02 -0.71486670449E+02  0.82643004235E+02  0.00000000000E+00 0.  1.
</event>
<event>
 7    1  0.8278507E-006  0.8988917E+02  0.7818608E-02  0.1479666E+00
          2   -1    0    0  502    0  0.00000000000E+00  0.00000000000E+00  0.12669527866E+03  0.12669527866E+03  0.00000000000E+00 0. -1.
          1   -1    0    0  501    0 -0.00000000000E+00 -0.00000000000E+00 -0.27178701009E+04  0.27178701009E+04  0.00000000000E+00 0. -1.
         25    2    1    2    0    0 -0.99164736047E+02  0.48308768847E+02 -0.36263840825E+03  0.39912254308E+03  0.12499922892E+03 0.  0.
          2    1    1    2  501    0  0.81389854255E+02 -0.35873613775E+02 -0.23350496363E+04  0.23367430387E+04  0.00000000000E+00 0. -1.
          1    1    1    2  502    0  0.17774881792E+02 -0.12435155072E+02  0.10651322237E+03  0.10869979781E+03  0.00000000000E+00 0. -1.
         22    1    3    3    0    0 -0.70262998996E+02 -0.19755141024E+02 -0.86124279512E+02  0.11289174525E+03  0.00000000000E+00 0.  1.
         22    1    3    3    0    0 -0.28901737051E+02  0.68063909871E+02 -0.27651412874E+03  0.28623079783E+03  0.00000000000E+00 0.  1.
</event>
<event>
 7    1  0.8278507E-006  0.1247554E+03  0.7818608E-02  0.1256782E+00
          2   -1    0    0  502    0  0.00000000000E+00  0.00000000000E+00  0.79685218490E+03  0.79685218490E+03  0.00000000000E+00 0. -1.
          1   -1    0    0  501    0 -0.00000000000E+00 -0.00000000000E+00 -0.79795041662E+03  0.79795041662E+03  0.00000000000E+00 0. -1.
         25    2    1    2    0    0 -0.57299307437E+02  0.31105607090E+02  0.45764027287E+02  0.14822493274E+03  0.12500206026E+03 0.  0.
          2    1    1    2  501    0  0.20685168929E+02  0.98528904548E+02 -0.73678286656E+03  0.74362948684E+03  0.00000000000E+00 0. -1.
          1    1    1    2  502    0  0.36614138508E+02 -0.12963451164E+03  0.68992060756E+03  0.70294818193E+03  0.00000000000E+00 0. -1.
         22    1    3    3    0    0  0.13535463585E+02  0.36866375474E+02  0.63786258229E+02  0.74906776422E+02  0.00000000000E+00 0.  1.
         22    1    3    3    0    0 -0.70834771022E+02 -0.57607683846E+01 -0.18022230942E+02  0.73318156321E+02  0.00000000000E+00 0.  1.
</event>
<event>
 7    1  0.8278507E-006  0.8904420E+02  0.7818608E-02  0.1329752E+00
          2   -1    0    0  502    0  0.00000000000E+00  0.00000000000E+00  0.99598428807E+02  0.99598428807E+02  0.00000000000E+00 0. -1.
          1   -1    0    0  501    0 -0.00000000000E+00 -0.00000000000E+00 -0.23801512129E+04  0.23801512129E+04  0.00000000000E+00 0. -1.
         25    2    1    2    0    0  0.88625930387E+01  0.18755396291E+02 -0.52715864158E+03  0.54217272576E+03  0.12499888291E+03 0.  0.
          2    1    1    2  501    0  0.20886312513E+02  0.68310508082E+02 -0.18216283364E+04  0.18230283485E+04  0.00000000000E+00 0. -1.
          1    1    1    2  502    0 -0.29748905552E+02 -0.87065904373E+02  0.68234193872E+02  0.11454856743E+03  0.00000000000E+00 0. -1.
         22    1    3    3    0    0 -0.13673758033E+02 -0.46356621024E+02 -0.32548299831E+03  0.32905180468E+03  0.00000000000E+00 0. -1.
         22    1    3    3    0    0  0.22536351072E+02  0.65112017315E+02 -0.20167564326E+03  0.21312092109E+03  0.00000000000E+00 0. -1.
</event>
<event>
 7    1  0.8278507E-006  0.9794748E+02  0.7818608E-02  0.1381953E+00
          2   -1    0    0  502    0  0.00000000000E+00  0.00000000000E+00  0.10655823846E+04  0.10655823846E+04  0.00000000000E+00 0. -1.
          1   -1    0    0  501    0 -0.00000000000E+00 -0.00000000000E+00 -0.40823557346E+03  0.40823557346E+03  0.00000000000E+00 0. -1.
         25    2    1    2    0    0  0.61204098628E+02  0.20054737133E+02  0.55638911164E+03  0.57388355762E+03  0.12500143994E+03 0.  0.
          2    1    1    2  501    0 -0.98334963029E+02 -0.95047233661E+00 -0.39254130784E+03  0.40467190008E+03  0.00000000000E+00 0. -1.
          1    1    1    2  502    0  0.37130864401E+02 -0.19104264796E+02  0.49349900730E+03  0.49526250033E+03  0.00000000000E+00 0. -1.
         22    1    3    3    0    0  0.79586234305E+02  0.28096118503E+01  0.53479918440E+03  0.54069587593E+03  0.00000000000E+00 0. -1.
         22    1    3    3    0    0 -0.18382135676E+02  0.17245125283E+02  0.21589927239E+02  0.33187681694E+02  0.00000000000E+00 0. -1.
</event>
<event>
 7    1  0.8278507E-006  0.2990784E+03  0.7818608E-02  0.1248626E+00
          2   -1    0    0  502    0  0.00000000000E+00  0.00000000000E+00  0.18301549661E+04  0.18301549661E+04  0.00000000000E+00 0. -1.
          1   -1    0    0  501    0 -0.00000000000E+00 -0.00000000000E+00 -0.88253601045E+03  0.88253601045E+03  0.00000000000E+00 0. -1.
         25    2    1    2    0    0  0.12009334736E+03  0.27420569567E+03 -0.18139282998E+03  0.37166927453E+03  0.12499406083E+03 0.  0.
          2    1    1    2  501    0  0.40145209329E+02 -0.21507503132E+02 -0.59222329020E+03  0.59397191514E+03  0.00000000000E+00 0. -1.
          1    1    1    2  502    0 -0.16023855669E+03 -0.25269819254E+03  0.17212350759E+04  0.17470497869E+04  0.00000000000E+00 0. -1.
         22    1    3    3    0    0 -0.20198194505E+02  0.63547238766E+01 -0.19021058101E+02  0.28463138058E+02  0.00000000000E+00 0.  1.
         22    1    3    3    0    0  0.14029154186E+03  0.26785097179E+03 -0.16237177188E+03  0.34320613647E+03  0.00000000000E+00 0.  1.
</event>
<event>
 7    1  0.8278507E-006  0.6961092E+02  0.7818608E-02  0.1421793E+00
          2   -1    0    0  502    0  0.00000000000E+00  0.00000000000E+00  0.77945540449E+03  0.77945540449E+03  0.00000000000E+00 0. -1.
          1   -1    0    0  501    0 -0.00000000000E+00 -0.00000000000E+00 -0.14001256576E+03  0.14001256576E+03  0.00000000000E+00 0. -1.
         25    2    1    2    0    0  0.45345721494E+02 -0.11979889910E+02  0.54005232715E+01  0.13361823234E+03  0.12499965657E+03 0.  0.
          2    1    1    2  501    0  0.20227262771E+02  0.37825431258E+02 -0.67934678645E+02  0.80343176261E+02  0.00000000000E+00 0. -1.
          1    1    1    2  502    0 -0.65572984265E+02 -0.25845541349E+02  0.70197699410E+03  0.70550656164E+03  0.00000000000E+00 0. -1.
         22    1    3    3    0    0  0.37600528670E+02  0.23094530873E+02 -0.50568676354E+02  0.67114440628E+02  0.00000000000E+00 0.  1.
         22    1    3    3    0    0  0.77451928235E+01 -0.35074420783E+02  0.55969199626E+02  0.66503791710E+02  0.00000000000E+00 0.  1.
</event>
<event>
 7    1  0.8278507E-006  0.5384155E+02  0.7818608E-02  0.1482401E+00
          2   -1    0    0  502    0  0.00000000000E+00  0.00000000000E+00  0.23776847670E+04  0.23776847670E+04  0.00000000000E+00 0. -1.
          1   -1    0    0  501    0 -0.00000000000E+00 -0.00000000000E+00 -0.15998010557E+04  0.15998010557E+04  0.00000000000E+00 0. -1.
         25    2    1    2    0    0 -0.14322966636E+02 -0.69998496459E+02  0.20551080112E+03  0.25092860050E+03  0.12500214516E+03 0.  0.
          2    1    1    2  501    0 -0.20438876450E+02  0.29055782819E+02 -0.15765565199E+04  0.15769567041E+04  0.00000000000E+00 0. -1.
          1    1    1    2  502    0  0.34761843085E+02  0.40942713640E+02  0.21489294301E+04  0.21496005181E+04  0.00000000000E+00 0. -1.
         22    1    3    3    0    0 -0.50866926244E+01 -0.10475805974E+03  0.12801106625E+03  0.16549005591E+03  0.00000000000E+00 0.  1.
         22    1    3    3    0    0 -0.92362740111E+01  0.34759563283E+02  0.77499734871E+02  0.85438544593E+02  0.00000000000E+00 0.  1.
</event>
<event>
 7    1  0.8278507E-006  0.2532440E+03  0.7818608E-02  0.1162168E+00
          2   -1    0    0  502    0  0.00000000000E+00  0.00000000000E+00  0.25064881295E+04  0.25064881295E+04  0.00000000000E+00 0. -1.
          1   -1    0    0  501    0 -0.00000000000E+00 -0.00000000000E+00 -0.15620175838E+03  0.15620175838E+03  0.00000000000E+00 0. -1.
         25    2    1    2    0    0  0.17443398227E+03  0.11477354029E+03  0.60168872941E+03  0.64904068769E+03  0.12499722981E+03 0.  0.
          2    1    1    2  501    0 -0.12017783809E+03 -0.24006442868E+03  0.89111451797E+01  0.26861319996E+03  0.00000000000E+00 0. -1.
          1    1    1    2  502    0 -0.54256144181E+02  0.12529088839E+03  0.17396864965E+04  0.17450360003E+04  0.00000000000E+00 0. -1.
         22    1    3    3    0    0 -0.14698195459E+01 -0.27054205264E+01  0.15258285128E+03  0.15261391213E+03  0.00000000000E+00 0. -1.
         22    1    3    3    0    0  0.17590380182E+03  0.11747896082E+03  0.44910587813E+03  0.49642677556E+03  0.00000000000E+00 0. -1.
</event>
<event>
 7    1  0.8278507E-006  0.4087125E+02  0.7818608E-02  0.1542355E+00
          2   -1    0    0  502    0  0.00000000000E+00  0.00000000000E+00  0.27651360086E+03  0.27651360086E+03  0.00000000000E+00 0. -1.
          1   -1    0    0  501    0 -0.00000000000E+00 -0.00000000000E+00 -0.12429217448E+04  0.12429217448E+04  0.00000000000E+00 0. -1.
         25    2    1    2    0    0  0.25734214350E+02 -0.33262783968E+02 -0.18089956291E+03  0.22387242195E+03  0.12500218744E+03 0.  0.
          2    1    1    2  501    0 -0.40649800288E+02  0.58516545538E+01 -0.10391739754E+04  0.10399851919E+04  0.00000000000E+00 0. -1.
          1    1    1    2  502    0  0.14915585938E+02  0.27411129415E+02  0.25366539437E+03  0.25557773186E+03  0.00000000000E+00 0. -1.
         22    1    3    3    0    0 -0.27907346149E+02  0.32792766277E+02 -0.87508364812E+02  0.97528966985E+02  0.00000000000E+00 0. -1.
         22    1    3    3    0    0  0.53641560499E+02 -0.66055550245E+02 -0.93391198101E+02  0.12634345497E+03  0.00000000000E+00 0. -1.
</event>
<event>
 7    1  0.8278507E-006  0.3460444E+02  0.7818608E-02  0.1593107E+00
          2   -1    0    0  502    0  0.00000000000E+00  0.00000000000E+00  0.17217801297E+04  0.17217801297E+04  0.00000000000E+00 0. -1.
          1   -1    0    0  501    0 -0.00000000000E+00 -0.00000000000E+00 -0.21567985295E+04  0.21567985295E+04  0.00000000000E+00 0. -1.
         25    2    1    2    0    0  0.13337813986E+02  0.41615466728E+02  0.24106409962E+02  0.13458262183E+03  0.12498647424E+03 0.  0.
          2    1    1    2  501    0 -0.28553725923E+02 -0.19548932784E+02 -0.21013085976E+04  0.21015935140E+04  0.00000000000E+00 0. -1.
          1    1    1    2  502    0  0.15215911936E+02 -0.22066533944E+02  0.16421837878E+04  0.16424025233E+04  0.00000000000E+00 0. -1.
         22    1    3    3    0    0  0.24602188980E+02  0.27952776047E+02 -0.47763279436E+02  0.60563654562E+02  0.00000000000E+00 0. -1.
         22    1    3    3    0    0 -0.11264374994E+02  0.13662690680E+02  0.71869689398E+02  0.74018967264E+02  0.00000000000E+00 0. -1.
</event>
<event>
 7    1  0.8278507E-006  0.8152361E+02  0.7818608E-02  0.1470489E+00
          2   -1    0    0  502    0  0.00000000000E+00  0.00000000000E+00  0.13451424141E+04  0.13451424141E+04  0.00000000000E+00 0. -1.
          1   -1    0    0  501    0 -0.00000000000E+00 -0.00000000000E+00 -0.77166441076E+02  0.77166441076E+02  0.00000000000E+00 0. -1.
         25    2    1    2    0    0 -0.77108700728E+01  0.78317275737E+02  0.92491545433E+03  0.93663593445E+03  0.12500089136E+03 0.  0.
          2    1    1    2  501    0  0.32990244062E+02 -0.74734703336E+02 -0.47353789612E+02  0.94424644434E+02  0.00000000000E+00 0. -1.
          1    1    1    2  502    0 -0.25279373989E+02 -0.35825724016E+01  0.39041430831E+03  0.39124827630E+03  0.00000000000E+00 0. -1.
         22    1    3    3    0    0  0.54737799178E+02  0.57611616382E+02  0.58913447451E+03  0.59447014564E+03  0.00000000000E+00 0. -1.
         22    1    3    3    0    0 -0.62448669250E+02  0.20705659356E+02  0.33578097982E+03  0.34216578881E+03  0.00000000000E+00 0. -1.
</event>
<event>
 7    1  0.8278507E-006  0.5378659E+02  0.7818608E-02  0.1512371E+00
          2   -1    0    0  502    0  0.00000000000E+00  0.00000000000E+00  0.12622441206E+03  0.12622441206E+03  0.00000000000E+00 0. -1.
          1   -1    0    0  501    0 -0.00000000000E+00 -0.00000000000E+00 -0.14834927762E+04  0.14834927762E+04  0.00000000000E+00 0. -1.
         25    2    1    2    0    0  0.15453657650E+02  0.78660600911E+02 -0.25996606005E+03  0.29938929408E+03  0.12500116544E+03 0.  0.
          2    1    1    2  501    0 -0.18066289770E+02 -0.49858335838E+02 -0.12012561352E+04  0.12024261087E+04  0.00000000000E+00 0. -1.
          1    1    1    2  502    0  0.26126321198E+01 -0.28802265072E+02  0.10395383109E+03  0.10790178552E+03  0.00000000000E+00 0. -1.
         22    1    3    3    0    0 -0.86766664576E+01  0.62355290553E+02 -0.26270007235E+03  0.27013847340E+03  0.00000000000E+00 0. -1.
         22    1    3    3    0    0  0.24130324108E+02  0.16305310358E+02  0.27340122917E+01  0.29250820683E+02  0.00000000000E+00 0. -1.
</event>
<event>
 7    1  0.8278507E-006  0.6325760E+02  0.7818608E-02  0.1443716E+00
          2   -1    0    0  502    0  0.00000000000E+00  0.00000000000E+00  0.36277465501E+03  0.36277465501E+03  0.00000000000E+00 0. -1.
          1   -1    0    0  501    0 -0.00000000000E+00 -0.00000000000E+00 -0.26034610425E+03  0.26034610425E+03  0.00000000000E+00 0. -1.
         25    2    1    2    0    0  0.62087873869E+02 -0.67481907861E+02 -0.17186829191E+03  0.23145802084E+03  0.12500157470E+03 0.  0.
          2    1    1    2  501    0 -0.56858540373E+01  0.39594777501E+02 -0.48456291035E+02  0.62833808435E+02  0.00000000000E+00 0. -1.
          1    1    1    2  502    0 -0.56402019831E+02  0.27887130360E+02  0.32275313370E+03  0.32882892999E+03  0.00000000000E+00 0. -1.
         22    1    3    3    0    0  0.91663273843E+02 -0.52476729664E+02 -0.16748139469E+03  0.19800500119E+03  0.00000000000E+00 0.  1.
         22    1    3    3    0    0 -0.29575399974E+02 -0.15005178197E+02 -0.43868972110E+01  0.33453019647E+02  0.00000000000E+00 0.  1.
</event>
<event>
 7    1  0.8278507E-006  0.1806714E+03  0.7818608E-02  0.1321777E+00
          2   -1    0    0  502    0  0.00000000000E+00  0.00000000000E+00  0.10945417914E+04  0.10945417914E+04  0.00000000000E+00 0. -1.
          1   -1    0    0  501    0 -0.00000000000E+00 -0.00000000000E+00 -0.26947185619E+03  0.26947185619E+03  0.00000000000E+00 0. -1.
         25    2    1    2    0    0  0.14084888388E+03 -0.71838223890E+02 -0.18705135865E+02  0.20242073817E+03  0.12500053852E+03 0.  0.
          2    1    1    2  501    0 -0.17136105630E+03  0.94119418163E+02 -0.98252988825E+02  0.21880750971E+03  0.00000000000E+00 0. -1.
          1    1    1    2  502    0  0.30512172423E+02 -0.22281194273E+02  0.94202805993E+03  0.94278539975E+03  0.00000000000E+00 0. -1.
         22    1    3    3    0    0  0.74347266861E+02  0.22887086203E+02 -0.35432714546E+02  0.85479892751E+02  0.00000000000E+00 0.  1.
         22    1    3    3    0    0  0.66501617018E+02 -0.94725310093E+02  0.16727578680E+02  0.11694084542E+03  0.00000000000E+00 0.  1.
</event>
<event>
 7    1  0.8278507E-006  0.4079323E+02  0.7818608E-02  0.1576187E+00
          2   -1    0    0  502    0  0.00000000000E+00  0.00000000000E+00  0.19382050001E+03  0.19382050001E+03  0.00000000000E+00 0. -1.
          1   -1    0    0  501    0 -0.00000000000E+00 -0.00000000000E+00 -0.93839572814E+03  0.93839572814E+03  0.00000000000E+00 0. -1.
         25    2    1    2    0    0 -0.28855537352E+02 -0.69293279143E+01 -0.56585399440E+03  0.58025567170E+03  0.12500097575E+03 0.  0.
          2    1    1    2  501    0  0.33588294349E+01 -0.25001075032E+02 -0.36266082500E+03  0.36353708130E+03  0.00000000000E+00 0. -1.
          1    1    1    2  502    0  0.25496707917E+02  0.31930402946E+02  0.18393959128E+03  0.18842347515E+03  0.00000000000E+00 0. -1.
         22    1    3    3    0    0 -0.56108033840E+02 -0.33746958116E+02 -0.16400223178E+03  0.17658907291E+03  0.00000000000E+00 0.  1.
         22    1    3    3    0    0  0.27252496488E+02  0.26817630201E+02 -0.40185176262E+03  0.40366659878E+03  0.00000000000E+00 0.  1.
</event>
<event>
 7    1  0.8278507E-006  0.1212552E+03  0.7818608E-02  0.1260606E+00
          2   -1    0    0  502    0  0.00000000000E+00  0.00000000000E+00  0.16269954717E+04  0.16269954717E+04  0.00000000000E+00 0. -1.
          1   -1    0    0  501    0 -0.00000000000E+00 -0.00000000000E+00 -0.73478078036E+02  0.73478078036E+02  0.00000000000E+00 0. -1.
         25    2    1    2    0    0  0.62575065249E+02  0.53281931008E+02  0.20686129132E+03  0.25528680297E+03  0.12500061984E+03 0.  0.
          2    1    1    2  501    0 -0.14844750183E+03 -0.25186699097E+01  0.69133800104E+02  0.16377572108E+03  0.00000000000E+00 0. -1.
          1    1    1    2  502    0  0.85872436578E+02 -0.50763261098E+02  0.12775223023E+04  0.12814110257E+04  0.00000000000E+00 0. -1.
         22    1    3    3    0    0  0.85716478676E+02  0.19306727407E+02  0.69862119983E+02  0.11225319705E+03  0.00000000000E+00 0. -1.
         22    1    3    3    0    0 -0.23141413427E+02  0.33975203600E+02  0.13699917134E+03  0.14303360592E+03  0.00000000000E+00 0. -1.
</event>
<event>
 7    1  0.8278507E-006  0.2076453E+03  0.7818608E-02  0.1228943E+00
          2   -1    0    0  502    0  0.00000000000E+00  0.00000000000E+00  0.13363603106E+04  0.13363603106E+04  0.00000000000E+00 0. -1.
          1   -1    0    0  501    0 -0.00000000000E+00 -0.00000000000E+00 -0.65191530218E+03  0.65191530218E+03  0.00000000000E+00 0. -1.
         25    2    1    2    0    0  0.14302119999E+03  0.27458447097E+02  0.40691490862E+02  0.19618980978E+03  0.12500245625E+03 0.  0.
          2    1    1    2  501    0  0.54792840740E+02  0.58489364892E+02 -0.56175106295E+03  0.56743943988E+03  0.00000000000E+00 0. -1.
          1    1    1    2  502    0 -0.19781404073E+03 -0.85947811989E+02  0.12055045805E+04  0.12246463631E+04  0.00000000000E+00 0. -1.
         22    1    3    3    0    0  0.44726996162E+02  0.71095110879E+02  0.24013152618E+02  0.87359318193E+02  0.00000000000E+00 0.  1.
         22    1    3    3    0    0  0.98294203832E+02 -0.43636663781E+02  0.16678338244E+02  0.10883049159E+03  0.00000000000E+00 0.  1.
</event>
<event>
 7    1  0.8278507E-006  0.8666740E+02  0.7818608E-02  0.1345944E+00
          2   -1    0    0  502    0  0.00000000000E+00  0.00000000000E+00  0.58663479195E+03  0.58663479195E+03  0.00000000000E+00 0. -1.
          1   -1    0    0  501    0 -0.00000000000E+00 -0.00000000000E+00 -0.15048667204E+03  0.15048667204E+03  0.00000000000E+00 0. -1.
         25    2    1    2    0    0 -0.13997551447E+03 -0.34023466560E+02  0.10583928352E+03  0.21812341237E+03  0.12500051265E+03 0.  0.
          2    1    1    2  501    0  0.77344083124E+02  0.22096875892E+02 -0.74236317427E+02  0.10945962700E+03  0.00000000000E+00 0. -1.
          1    1    1    2  502    0  0.62631431342E+02  0.11926590668E+02  0.40454515381E+03  0.40953842461E+03  0.00000000000E+00 0. -1.
         22    1    3    3    0    0 -0.15436182166E+03 -0.17545594911E+02  0.58554732132E+02  0.16602432516E+03  0.00000000000E+00 0. -1.
         22    1    3    3    0    0  0.14386307199E+02 -0.16477871649E+02  0.47284551389E+02  0.52099087218E+02  0.00000000000E+00 0. -1.
</event>
<event>
 7    1  0.8278507E-006  0.1371013E+03  0.7818608E-02  0.1249484E+00
          2   -1    0    0  502    0  0.00000000000E+00  0.00000000000E+00  0.19451820668E+04  0.19451820668E+04  0.00000000000E+00 0. -1.
          1   -1    0    0  501    0 -0.00000000000E+00 -0.00000000000E+00 -0.12584180542E+04  0.12584180542E+04  0.00000000000E+00 0. -1.
         25    2    1    2    0    0 -0.69580992306E+02  0.76244788794E+02 -0.27702210708E+02  0.16446754186E+03  0.12500950980E+03 0.  0.
          2    1    1    2  501    0 -0.69093732696E+02 -0.70204211528E+02 -0.11576723238E+04  0.11618553200E+04  0.00000000000E+00 0. -1.
          1    1    1    2  502    0  0.13867472500E+03 -0.60405772662E+01  0.18721385472E+04  0.18772772592E+04  0.00000000000E+00 0. -1.
         22    1    3    3    0    0  0.15454500241E+02  0.39560582359E+02 -0.53520553352E+02  0.68325184854E+02  0.00000000000E+00 0. -1.
         22    1    3    3    0    0 -0.85035492547E+02  0.36684206435E+02  0.25818342644E+02  0.96142357010E+02  0.00000000000E+00 0. -1.
</event>
<event>
 7    1  0.8278507E-006  0.1129253E+03  0.7818608E-02  0.1319536E+00
          2   -1    0    0  502    0  0.00000000000E+00  0.00000000000E+00  0.12782944026E+04  0.12782944026E+04  0.00000000000E+00 0. -1.
          1   -1    0    0  501    0 -0.00000000000E+00 -0.00000000000E+00 -0.22610931901E+03  0.22610931901E+03  0.00000000000E+00 0. -1.
         25    2    1    2    0    0 -0.45492050981E+02 -0.37922828287E+02  0.39134381280E+03  0.41506966353E+03  0.12500071265E+03 0.  0.
          2    1    1    2  501    0  0.10699408281E+03  0.42448084505E+02 -0.19759938724E+03  0.22868120052E+03  0.00000000000E+00 0. -1.
          1    1    1    2  502    0 -0.61502031826E+02 -0.45252562187E+01  0.85844065801E+03  0.86065285754E+03  0.00000000000E+00 0. -1.
         22    1    3    3    0    0 -0.45100361199E+02 -0.80368832455E+02  0.30868944482E+03  0.32215270472E+03  0.00000000000E+00 0. -1.
         22    1    3    3    0    0 -0.39168978172E+00  0.42446004168E+02  0.82654367972E+02  0.92916958815E+02  0.00000000000E+00 0. -1.
</event>
<event>
 7    1  0.8278507E-006  0.6064359E+02  0.7818608E-02  0.1422981E+00
          2   -1    0    0  502    0  0.00000000000E+00  0.00000000000E+00  0.18465587474E+04  0.18465587474E+04  0.00000000000E+00 0. -1.
          1   -1    0    0  501    0 -0.00000000000E+00 -0.00000000000E+00 -0.25351191457E+03  0.25351191457E+03  0.00000000000E+00 0. -1.
         25    2    1    2    0    0  0.10633135993E+03 -0.14436302507E+02  0.47557759740E+03  0.50330255092E+03  0.12499856672E+03 0.  0.
          2    1    1    2  501    0 -0.48346142338E+02  0.65697621566E+01 -0.23652760716E+03  0.24150739161E+03  0.00000000000E+00 0. -1.
          1    1    1    2  502    0 -0.57985217590E+02  0.78665403499E+01  0.13539968426E+04  0.13552607194E+04  0.00000000000E+00 0. -1.
         22    1    3    3    0    0  0.79102880122E+02 -0.54955759404E+02  0.18419345568E+03  0.20785723526E+03  0.00000000000E+00 0.  1.
         22    1    3    3    0    0  0.27228479806E+02  0.40519456897E+02  0.29138414172E+03  0.29544531566E+03  0.00000000000E+00 0.  1.
</event>
<event>
 7    1  0.1019012E-005  0.8385972E+02  0.7818608E-02  0.1367170E+00
          2   -1    0    0  502    0  0.00000000000E+00  0.00000000000E+00  0.25791003660E+04  0.25791003660E+04  0.00000000000E+00 0. -1.
          1   -1    0    0  501    0 -0.00000000000E+00 -0.00000000000E+00 -0.15170017886E+04  0.15170017886E+04  0.00000000000E+00 0. -1.
         25    2    1    2    0    0 -0.10564974349E+03  0.48117474602E+02 -0.17947537142E+03  0.24761596338E+03  0.12500038685E+03 0.  0.
          2    1    1    2  501    0  0.52495467968E+02  0.16659247530E+02 -0.13021841574E+04  0.13033483358E+04  0.00000000000E+00 0. -1.
          1    1    1    2  502    0  0.53154275521E+02 -0.64776722132E+02  0.25437581061E+04  0.25451378554E+04  0.00000000000E+00 0. -1.
         22    1    3    3    0    0 -0.24248401973E+02 -0.39858435081E+02 -0.27837614041E+02  0.54328745622E+02  0.00000000000E+00 0. -1.
         22    1    3    3    0    0 -0.81401341515E+02  0.87975909683E+02 -0.15163775738E+03  0.19328721776E+03  0.00000000000E+00 0. -1.
</event>
<event>
 7    1  0.8278507E-006  0.4210311E+02  0.7818608E-02  0.1530619E+00
          2   -1    0    0  502    0  0.00000000000E+00  0.00000000000E+00  0.28695107730E+03  0.28695107730E+03  0.00000000000E+00 0. -1.
          1   -1    0    0  501    0 -0.00000000000E+00 -0.00000000000E+00 -0.70660699413E+03  0.70660699413E+03  0.00000000000E+00 0. -1.
         25    2    1    2    0    0  0.11949580111E+01  0.72178051618E+02 -0.80652416157E+02  0.16535092242E+03  0.12500006501E+03 0.  0.
          2    1    1    2  501    0  0.80806343240E+01 -0.40810632326E+02 -0.58176560535E+03  0.58325125284E+03  0.00000000000E+00 0. -1.
          1    1    1    2  502    0 -0.92755923351E+01 -0.31367419291E+02  0.24276210468E+03  0.24495589618E+03  0.00000000000E+00 0. -1.
         22    1    3    3    0    0 -0.50382529900E+02  0.77153823180E+02 -0.57342560819E+02  0.10853239623E+03  0.00000000000E+00 0. -1.
         22    1    3    3    0    0  0.51577487912E+02 -0.49757715620E+01 -0.23309855338E+02  0.56818526184E+02  0.00000000000E+00 0. -1.
</event>
<event>
 7    1  0.8278507E-006  0.6904140E+02  0.7818608E-02  0.1417516E+00
          2   -1    0    0  502    0  0.00000000000E+00  0.00000000000E+00  0.11122909639E+03  0.11122909639E+03  0.00000000000E+00 0. -1.
          1   -1    0    0  501    0 -0.00000000000E+00 -0.00000000000E+00 -0.13349903663E+04  0.13349903663E+04  0.00000000000E+00 0. -1.
         25    2    1    2    0    0  0.10104417092E+03 -0.47293759639E+02 -0.23426103418E+03  0.28800038160E+03  0.12497745194E+03 0.  0.
          2    1    1    2  501    0 -0.40348580310E+02  0.19225616988E+02 -0.10600622141E+04  0.10610040198E+04  0.00000000000E+00 0. -1.
          1    1    1    2  502    0 -0.60695590609E+02  0.28068142650E+02  0.70561978357E+02  0.97215061286E+02  0.00000000000E+00 0. -1.
         22    1    3    3    0    0  0.77512317964E+02  0.14780875859E+02 -0.53238431123E+02  0.95189097463E+02  0.00000000000E+00 0. -1.
         22    1    3    3    0    0  0.23531852956E+02 -0.62074635497E+02 -0.18102260305E+03  0.19281128414E+03  0.00000000000E+00 0. -1.
</event>
<event>
 7    1  0.8278507E-006  0.6046990E+02  0.7818608E-02  0.1493452E+00
          2   -1    0    0  502    0  0.00000000000E+00  0.00000000000E+00  0.25700023525E+03  0.25700023525E+03  0.00000000000E+00 0. -1.
          1   -1    0    0  501    0 -0.00000000000E+00 -0.00000000000E+00 -0.53500419195E+03  0.53500419195E+03  0.00000000000E+00 0. -1.
         25    2    1    2    0    0  0.36771184714E+02 -0.42175026769E+02  0.88011735025E+02  0.16279402254E+03  0.12499990146E+03 0.  0.
          2    1    1    2  501    0 -0.22559796178E+02 -0.18665347782E+02 -0.48973542123E+03  0.49060994937E+03  0.00000000000E+00 0. -1.
          1    1    1    2  502    0 -0.14211388536E+02  0.60840374551E+02  0.12371972950E+03  0.13860045530E+03  0.00000000000E+00 0. -1.
         22    1    3    3    0    0 -0.30807590020E+02 -0.26601610592E+01 -0.14217437328E+02  0.34034094433E+02  0.00000000000E+00 0. -1.
         22    1    3    3    0    0  0.67578774734E+02 -0.39514865710E+02  0.10222917235E+03  0.12875992811E+03  0.00000000000E+00 0. -1.
</event>
<event>
 7    1  0.8278507E-006  0.5850685E+02  0.7818608E-02  0.1428214E+00
          2   -1    0    0  502    0  0.00000000000E+00  0.00000000000E+00  0.15270780698E+04  0.15270780698E+04  0.00000000000E+00 0. -1.
          1   -1    0    0  501    0 -0.00000000000E+00 -0.00000000000E+00 -0.11894384477E+03  0.11894384477E+03  0.00000000000E+00 0. -1.
         25    2    1    2    0    0 -0.44937678285E+02  0.19598120567E+02  0.85118245564E+03  0.86170647877E+03  0.12499200580E+03 0.  0.
          2    1    1    2  501    0 -0.14879397701E+02 -0.46259325190E+02 -0.10680285250E+03  0.11733784959E+03  0.00000000000E+00 0. -1.
          1    1    1    2  502    0  0.59817075987E+02  0.26661204624E+02  0.66375462187E+03  0.66697758618E+03  0.00000000000E+00 0. -1.
         22    1    3    3    0    0 -0.63742956630E+02  0.54809293531E+02  0.39869002113E+03  0.40745669233E+03  0.00000000000E+00 0.  1.
         22    1    3    3    0    0  0.18805278345E+02 -0.35211172964E+02  0.45249243451E+03  0.45424978644E+03  0.00000000000E+00 0.  1.
</event>
<event>
 7    1  0.8278507E-006  0.3476264E+02  0.7818608E-02  0.1604255E+00
          2   -1    0    0  502    0  0.00000000000E+00  0.00000000000E+00  0.71322353221E+03  0.71322353221E+03  0.00000000000E+00 0. -1.
          1   -1    0    0  501    0 -0.00000000000E+00 -0.00000000000E+00 -0.98763354704E+02  0.98763354704E+02  0.00000000000E+00 0. -1.
         25    2    1    2    0    0 -0.52224240743E+01  0.31330607809E+02  0.16400578387E+03  0.20863868871E+03  0.12499329816E+03 0.  0.
          2    1    1    2  501    0 -0.22765527283E+02 -0.10205490627E+02 -0.73810029018E+02  0.77912397313E+02  0.00000000000E+00 0. -1.
          1    1    1    2  502    0  0.27987951357E+02 -0.21125117182E+02  0.52426442266E+03  0.52543580090E+03  0.00000000000E+00 0. -1.
         22    1    3    3    0    0 -0.34765772486E+02  0.41085468787E+02  0.14236252208E+02  0.55671766264E+02  0.00000000000E+00 0.  1.
         22    1    3    3    0    0  0.29543348412E+02 -0.97548609784E+01  0.14976953166E+03  0.15296692244E+03  0.00000000000E+00 0.  1.
</event>
<event>
 7    1  0.8278507E-006  0.7008830E+02  0.7818608E-02  0.1447838E+00
          2   -1    0    0  502    0  0.00000000000E+00  0.00000000000E+00  0.17694524794E+03  0.17694524794E+03  0.00000000000E+00 0. -1.
          1   -1    0    0  501    0 -0.00000000000E+00 -0.00000000000E+00 -0.61679209313E+03  0.61679209313E+03  0.00000000000E+00 0. -1.
         25    2    1    2    0    0  0.71553129947E+02  0.58436118556E+02 -0.23744379045E+03  0.28379287074E+03  0.12499683797E+03 0.  0.
          2    1    1    2  501    0 -0.35008221823E+02  0.75004183212E+00 -0.34738181988E+03  0.34914218728E+03  0.00000000000E+00 0. -1.
          1    1    1    2  502    0 -0.36544908123E+02 -0.59186160388E+02  0.14497876514E+03  0.16080228305E+03  0.00000000000E+00 0. -1.
         22    1    3    3    0    0  0.85450240676E+01  0.78967950267E+02 -0.17739089905E+03  0.19436173922E+03  0.00000000000E+00 0. -1.
         22    1    3    3    0    0  0.63008105879E+02 -0.20531831712E+02 -0.60052891402E+02  0.89431131524E+02  0.00000000000E+00 0. -1.
</event>
<event>
 7    1  0.8278507E-006  0.1441896E+03  0.7818608E-02  0.1218873E+00
          2   -1    0    0  502    0  0.00000000000E+00  0.00000000000E+00  0.22940149539E+03  0.22940149539E+03  0.00000000000E+00 0. -1.
          1   -1    0    0  501    0 -0.00000000000E+00 -0.00000000000E+00 -0.51045154001E+03  0.51045154001E+03  0.00000000000E+00 0. -1.
         25    2    1    2    0    0  0.12110376109E+03  0.72206168110E+02  0.11937084283E+03  0.22305693336E+03  0.12500058295E+03 0.  0.
          2    1    1    2  501    0  0.74375995144E+02 -0.10441606754E+03 -0.16990503796E+03  0.21284319519E+03  0.00000000000E+00 0. -1.
          1    1    1    2  502    0 -0.19547975624E+03  0.32209899426E+02 -0.23051584949E+03  0.30395290686E+03  0.00000000000E+00 0. -1.
         22    1    3    3    0    0  0.43943034985E+02  0.47059766250E+02 -0.14972071285E+02  0.66104272492E+02  0.00000000000E+00 0. -1.
         22    1    3    3    0    0  0.77160726109E+02  0.25146401860E+02  0.13434291411E+03  0.15695266087E+03  0.00000000000E+00 0. -1.
</event>
<event>
 7    1  0.8278507E-006  0.5103914E+02  0.7818608E-02  0.1448243E+00
          2   -1    0    0  502    0  0.00000000000E+00  0.00000000000E+00  0.53554672123E+03  0.53554672123E+03  0.00000000000E+00 0. -1.
          1   -1    0    0  501    0 -0.00000000000E+00 -0.00000000000E+00 -0.73120707517E+03  0.73120707517E+03  0.00000000000E+00 0. -1.
         25    2    1    2    0    0 -0.61892989551E+02  0.56347644877E+02 -0.16897494836E+03  0.22623754868E+03  0.12500038409E+03 0.  0.
          2    1    1    2  501    0  0.47340262276E+02 -0.75676263620E+01 -0.53124072756E+03  0.53339955008E+03  0.00000000000E+00 0. -1.
          1    1    1    2  502    0  0.14552727275E+02 -0.48780018515E+02  0.50455532199E+03  0.50711669764E+03  0.00000000000E+00 0. -1.
         22    1    3    3    0    0  0.22657274535E+02  0.32539023624E+02 -0.46667858613E+01  0.39923915615E+02  0.00000000000E+00 0.  1.
         22    1    3    3    0    0 -0.84550264086E+02  0.23808621253E+02 -0.16430816250E+03  0.18631363307E+03  0.00000000000E+00 0.  1.
</event>
<event>
 7    1  0.8278507E-006  0.3980281E+02  0.7818608E-02  0.1523028E+00
          2   -1    0    0  502    0  0.00000000000E+00  0.00000000000E+00  0.61369948614E+02  0.61369948614E+02  0.00000000000E+00 0. -1.
          1   -1    0    0  501    0 -0.00000000000E+00 -0.00000000000E+00 -0.23827158236E+03  0.23827158236E+03  0.00000000000E+00 0. -1.
         25    2    1    2    0    0 -0.32138929694E+02 -0.16984721661E+02 -0.92245923524E+02  0.15956555045E+03  0.12502184974E+03 0.  0.
          2    1    1    2  501    0  0.37633010401E+02 -0.18983065711E+02 -0.93560998835E+02  0.10261705881E+03  0.00000000000E+00 0. -1.
          1    1    1    2  502    0 -0.54940807067E+01  0.35967787371E+02  0.89052886081E+01  0.37458921719E+02  0.00000000000E+00 0. -1.
         22    1    3    3    0    0 -0.11583271492E+02  0.52358748417E+02 -0.19709093574E+02  0.57131944512E+02  0.00000000000E+00 0.  1.
         22    1    3    3    0    0 -0.20555658203E+02 -0.69343470077E+02 -0.72536829950E+02  0.10243360594E+03  0.00000000000E+00 0.  1.
</event>
<event>
 7    1  0.8278507E-006  0.1163094E+03  0.7818608E-02  0.1298304E+00
          2   -1    0    0  502    0  0.00000000000E+00  0.00000000000E+00  0.13234051760E+04  0.13234051760E+04  0.00000000000E+00 0. -1.
          1   -1    0    0  501    0 -0.00000000000E+00 -0.00000000000E+00 -0.85032528429E+03  0.85032528429E+03  0.00000000000E+00 0. -1.
         25    2    1    2    0    0  0.59481333765E+02  0.52216438066E+02  0.37385712466E+02  0.15260019407E+03  0.12499816904E+03 0.  0.
          2    1    1    2  501    0 -0.11836510697E+03 -0.97146321841E+01 -0.78718660910E+03  0.79609511377E+03  0.00000000000E+00 0. -1.
          1    1    1    2  502    0  0.58883773202E+02 -0.42501805882E+02  0.12228807884E+04  0.12250351525E+04  0.00000000000E+00 0. -1.
         22    1    3    3    0    0 -0.30577811749E+02 -0.70746252438E+01  0.31726303457E+02  0.44627471638E+02  0.00000000000E+00 0. -1.
         22    1    3    3    0    0  0.90059145514E+02  0.59291063310E+02  0.56594090083E+01  0.10797272243E+03  0.00000000000E+00 0. -1.
</event>
<event>
 7    1  0.8278507E-006  0.1039301E+03  0.7818608E-02  0.1360925E+00
          2   -1    0    0  502    0  0.00000000000E+00  0.00000000000E+00  0.10941840358E+04  0.10941840358E+04  0.00000000000E+00 0. -1.
          1   -1    0    0  501    0 -0.00000000000E+00 -0.00000000000E+00 -0.95049240156E+03  0.95049240156E+03  0.00000000000E+00 0. -1.
         25    2    1    2    0    0 -0.61145531221E+02 -0.60011653377E+02 -0.15386479093E+02  0.15231912324E+03  0.12499678811E+03 0.  0.
          2    1    1    2  501    0  0.99705305261E+02  0.33457192472E+02 -0.86291106140E+03  0.86929628523E+03  0.00000000000E+00 0. -1.
          1    1    1    2  502    0 -0.38559774040E+02  0.26554460905E+02  0.10219891747E+04  0.10230610289E+04  0.00000000000E+00 0. -1.
         22    1    3    3    0    0 -0.23499170521E+02 -0.96000720143E+02 -0.34908613733E+01  0.98896589407E+02  0.00000000000E+00 0.  1.
         22    1    3    3    0    0 -0.37646360700E+02  0.35989066766E+02 -0.11895617720E+02  0.53422533837E+02  0.00000000000E+00 0.  1.
</event>
<event>
 7    1  0.8278507E-006  0.1570965E+03  0.7818608E-02  0.1265546E+00
          2   -1    0    0  502    0  0.00000000000E+00  0.00000000000E+00  0.70474418436E+03  0.70474418436E+03  0.00000000000E+00 0. -1.
          1   -1    0    0  501    0 -0.00000000000E+00 -0.00000000000E+00 -0.37919836069E+03  0.37919836069E+03  0.00000000000E+00 0. -1.
         25    2    1    2    0    0 -0.15432314410E+02 -0.16519506763E+03  0.21634335605E+03  0.29992653603E+03  0.12499565036E+03 0.  0.
          2    1    1    2  501    0 -0.66965864984E+02  0.29965740042E+02 -0.31907471734E+03  0.32740043967E+03  0.00000000000E+00 0. -1.
          1    1    1    2  502    0  0.82398179394E+02  0.13522932759E+03  0.42827718497E+03  0.45661556935E+03  0.00000000000E+00 0. -1.
         22    1    3    3    0    0  0.18212656592E+02 -0.17024005438E+03  0.19615889081E+03  0.26036836870E+03  0.00000000000E+00 0.  1.
         22    1    3    3    0    0 -0.33644971002E+02  0.50449867555E+01  0.20184465239E+02  0.39558167325E+02  0.00000000000E+00 0.  1.
</event>
<event>
 7    1  0.8278507E-006  0.9253746E+02  0.7818608E-02  0.1362354E+00
          2   -1    0    0  502    0  0.00000000000E+00  0.00000000000E+00  0.15198403388E+04  0.15198403388E+04  0.00000000000E+00 0. -1.
          1   -1    0    0  501    0 -0.00000000000E+00 -0.00000000000E+00 -0.24861047313E+03  0.24861047313E+03  0.00000000000E+00 0. -1.
         25    2    1    2    0    0 -0.49562005413E+02  0.24199420330E+02  0.16211898561E+03  0.21200850049E+03  0.12499213760E+03 0.  0.
          2    1    1    2  501    0  0.57339630638E+02 -0.75570762933E+02 -0.21307420555E+03  0.23323676923E+03  0.00000000000E+00 0. -1.
          1    1    1    2  502    0 -0.77776252247E+01  0.51371342603E+02  0.13221850856E+04  0.13232055422E+04  0.00000000000E+00 0. -1.
         22    1    3    3    0    0  0.41725912413E+02  0.16606231594E+02  0.49418620054E+02  0.66775884139E+02  0.00000000000E+00 0.  1.
         22    1    3    3    0    0 -0.91287917827E+02  0.75931887360E+01  0.11270036556E+03  0.14523261635E+03  0.00000000000E+00 0.  1.
</event>
<event>
 7    1  0.8278507E-006  0.4141244E+02  0.7818608E-02  0.1532332E+00
          2   -1    0    0  502    0  0.00000000000E+00  0.00000000000E+00  0.10811666711E+04  0.10811666711E+04  0.00000000000E+00 0. -1.
          1   -1    0    0  501    0 -0.00000000000E+00 -0.00000000000E+00 -0.26380097864E+03  0.26380097864E+03  0.00000000000E+00 0. -1.
         25    2    1    2    0    0 -0.20648275055E+01  0.13716418436E+02 -0.92163958417E+02  0.15592038256E+03  0.12499826726E+03 0.  0.
          2    1    1    2  501    0 -0.13982061032E+02 -0.42417712437E+02 -0.13592547694E+03  0.14307513984E+03  0.00000000000E+00 0. -1.
          1    1    1    2  502    0  0.16046888537E+02  0.28701294001E+02  0.10454551278E+04  0.10459721274E+04  0.00000000000E+00 0. -1.
         22    1    3    3    0    0 -0.50494643077E+02  0.44734993251E+02 -0.58419205138E+02  0.89239745235E+02  0.00000000000E+00 0.  1.
         22    1    3    3    0    0  0.48429815571E+02 -0.31018574815E+02 -0.33744753279E+02  0.66680637322E+02  0.00000000000E+00 0.  1.
</event>
<event>
 7    1  0.8278507E-006  0.6512890E+02  0.7818608E-02  0.1398009E+00
          2   -1    0    0  502    0  0.00000000000E+00  0.00000000000E+00  0.29292940401E+03  0.29292940401E+03  0.00000000000E+00 0. -1.
          1   -1    0    0  501    0 -0.00000000000E+00 -0.00000000000E+00 -0.22212474352E+03  0.22212474352E+03  0.00000000000E+00 0. -1.
         25    2    1    2    0    0  0.28001659553E+02 -0.71063751471E+02  0.46646552998E+02  0.15373596449E+03  0.12499878463E+03 0.  0.
          2    1    1    2  501    0 -0.54209100473E+02  0.10398108653E+02 -0.15809507164E+03  0.16745387101E+03  0.00000000000E+00 0. -1.
          1    1    1    2  502    0  0.26207440920E+02  0.60665642818E+02  0.18225317913E+03  0.19386431203E+03  0.00000000000E+00 0. -1.
         22    1    3    3    0    0  0.33089808163E+02 -0.70298691160E+02 -0.25218236439E+02  0.81687213394E+02  0.00000000000E+00 0.  1.
         22    1    3    3    0    0 -0.50881486096E+01 -0.76506031084E+00  0.71864789437E+02  0.72048751095E+02  0.00000000000E+00 0.  1.
</event>
<event>
 7    1  0.8278507E-006  0.5284183E+02  0.7818608E-02  0.1474429E+00
          2   -1    0    0  502    0  0.00000000000E+00  0.00000000000E+00  0.25913525079E+04  0.25913525079E+04  0.00000000000E+00 0. -1.
          1   -1    0    0  501    0 -0.00000000000E+00 -0.00000000000E+00 -0.15093172775E+02  0.15093172775E+02  0.00000000000E+00 0. -1.
         25    2    1    2    0    0 -0.51518036647E+02  0.23822035119E+02  0.10926932660E+04  0.11012829765E+04  0.12499609393E+03 0.  0.
          2    1    1    2  501    0  0.22258997023E+02 -0.48533382275E+02  0.57072490637E+02  0.78155110715E+02  0.00000000000E+00 0. -1.
          1    1    1    2  502    0  0.29259039624E+02  0.24711347156E+02  0.14264935785E+04  0.14270075934E+04  0.00000000000E+00 0. -1.
         22    1    3    3    0    0  0.33974424021E+02  0.23805915926E+02  0.58258865232E+03  0.58406379869E+03  0.00000000000E+00 0. -1.
         22    1    3    3    0    0 -0.85492460668E+02  0.16119193146E-01  0.51010461363E+03  0.51721917785E+03  0.00000000000E+00 0. -1.
</event>
<event>
 7    1  0.8278507E-006  0.1412707E+03  0.7818608E-02  0.1351298E+00
          2   -1    0    0  502    0  0.00000000000E+00  0.00000000000E+00  0.30221806486E+04  0.30221806486E+04  0.00000000000E+00 0. -1.
          1   -1    0    0  501    0 -0.00000000000E+00 -0.00000000000E+00 -0.48176528032E+02  0.48176528032E+02  0.00000000000E+00 0. -1.
         25    2    1    2    0    0 -0.11043244764E+03  0.13580023052E+02  0.13591739659E+04  0.13694373235E+04  0.12499988335E+03 0.  0.
          2    1    1    2  501    0  0.13902395664E+03 -0.37633835227E+02  0.78300092740E+02  0.16393556843E+03  0.00000000000E+00 0. -1.
          1    1    1    2  502    0 -0.28591509004E+02  0.24053812174E+02  0.15365300619E+04  0.15369842847E+04  0.00000000000E+00 0. -1.
         22    1    3    3    0    0 -0.79077005124E+02  0.67546520813E+01  0.12974048653E+04  0.12998300591E+04  0.00000000000E+00 0. -1.
         22    1    3    3    0    0 -0.31355442515E+02  0.68253709710E+01  0.61769100626E+02  0.69607264393E+02  0.00000000000E+00 0. -1.
</event>
<event>
 7    1  0.8278507E-006  0.4750558E+02  0.7818608E-02  0.1572949E+00
          2   -1    0    0  502    0  0.00000000000E+00  0.00000000000E+00  0.30153592026E+04  0.30153592026E+04  0.00000000000E+00 0. -1.
          1   -1    0    0  501    0 -0.00000000000E+00 -0.00000000000E+00 -0.44149804982E+03  0.44149804982E+03  0.00000000000E+00 0. -1.
         25    2    1    2    0    0  0.37836603739E+02  0.95635333232E+00 -0.28456903086E+03  0.31311030429E+03  0.12500402447E+03 0.  0.
          2    1    1    2  501    0  0.49921210525E+01 -0.21530765674E+02 -0.14161307501E+03  0.14332745081E+03  0.00000000000E+00 0. -1.
          1    1    1    2  502    0 -0.42828724792E+02  0.20574412342E+02  0.30000432586E+04  0.30004194973E+04  0.00000000000E+00 0. -1.
         22    1    3    3    0    0 -0.16054053182E+02 -0.25064923036E+02 -0.89683919036E+01  0.31087216725E+02  0.00000000000E+00 0. -1.
         22    1    3    3    0    0  0.53890656921E+02  0.26021276369E+02 -0.27560063896E+03  0.28202308757E+03  0.00000000000E+00 0. -1.
</event>
<event>
 7    1  0.8278507E-006  0.7516751E+02  0.7818608E-02  0.1350168E+00
          2   -1    0    0  502    0  0.00000000000E+00  0.00000000000E+00  0.66649871126E+03  0.66649871126E+03  0.00000000000E+00 0. -1.
          1   -1    0    0  501    0 -0.00000000000E+00 -0.00000000000E+00 -0.23331996933E+03  0.23331996933E+03  0.00000000000E+00 0. -1.
         25    2    1    2    0    0 -0.68331927516E+02  0.72643478321E+02  0.23289564978E+03  0.28251008915E+03  0.12500095809E+03 0.  0.
          2    1    1    2  501    0 -0.25222644677E+01 -0.75231948914E+02 -0.19848867544E+03  0.21228274125E+03  0.00000000000E+00 0. -1.
          1    1    1    2  502    0  0.70854191984E+02  0.25884705934E+01  0.39877176759E+03  0.40502585020E+03  0.00000000000E+00 0. -1.
         22    1    3    3    0    0  0.10621130730E+02  0.55523992342E+02  0.29730994187E+02  0.63872170457E+02  0.00000000000E+00 0.  1.
         22    1    3    3    0    0 -0.78953058246E+02  0.17119485979E+02  0.20316465559E+03  0.21863791869E+03  0.00000000000E+00 0.  1.
</event>
<event>
 7    1  0.8278507E-006  0.1170847E+03  0.7818608E-02  0.1364445E+00
          2   -1    0    0  502    0  0.00000000000E+00  0.00000000000E+00  0.20603470309E+04  0.20603470309E+04  0.00000000000E+00 0. -1.
          1   -1    0    0  501    0 -0.00000000000E+00 -0.00000000000E+00 -0.16958872115E+04  0.16958872115E+04  0.00000000000E+00 0. -1.
         25    2    1    2    0    0 -0.45134122530E+02  0.11382681802E+03  0.97849105402E+03  0.99401375534E+03  0.12499987790E+03 0.  0.
          2    1    1    2  501    0 -0.31316842656E+02 -0.25447107639E+02 -0.16847051241E+04  0.16851883144E+04  0.00000000000E+00 0. -1.
          1    1    1    2  502    0  0.76450965185E+02 -0.88379710384E+02  0.10706738894E+04  0.10770321726E+04  0.00000000000E+00 0. -1.
         22    1    3    3    0    0 -0.59641166993E+02  0.25890571540E+02  0.19688912851E+03  0.20734685776E+03  0.00000000000E+00 0. -1.
         22    1    3    3    0    0  0.14507044464E+02  0.87936246484E+02  0.78160192551E+03  0.78666689758E+03  0.00000000000E+00 0. -1.
</event>
<event>
 7    1  0.8278507E-006  0.1297937E+03  0.7818608E-02  0.1367095E+00
          2   -1    0    0  502    0  0.00000000000E+00  0.00000000000E+00  0.70802908681E+03  0.70802908681E+03  0.00000000000E+00 0. -1.
          1   -1    0    0  501    0 -0.00000000000E+00 -0.00000000000E+00 -0.31107669747E+03  0.31107669747E+03  0.00000000000E+00 0. -1.
         25    2    1    2    0    0 -0.72677155995E+02 -0.73909718059E+02  0.81685918106E+02  0.18177541547E+03  0.12500038811E+03 0.  0.
          2    1    1    2  501    0 -0.51594900635E+01 -0.35230600617E+02 -0.25196777744E+03  0.25447117012E+03  0.00000000000E+00 0. -1.
          1    1    1    2  502    0  0.77836646059E+02  0.10914031868E+03  0.56723424866E+03  0.58285919868E+03  0.00000000000E+00 0. -1.
         22    1    3    3    0    0  0.93106326972E+01 -0.45879465553E+01 -0.27045121039E+02  0.28968529594E+02  0.00000000000E+00 0. -1.
         22    1    3    3    0    0 -0.81987788692E+02 -0.69321771503E+02  0.10873103915E+03  0.15280688588E+03  0.00000000000E+00 0. -1.
</event>
<event>
 7    1  0.8278507E-006  0.1027796E+03  0.7818608E-02  0.1359669E+00
          2   -1    0    0  502    0  0.00000000000E+00  0.00000000000E+00  0.40970705967E+03  0.40970705967E+03  0.00000000000E+00 0. -1.
          1   -1    0    0  501    0 -0.00000000000E+00 -0.00000000000E+00 -0.16861032319E+04  0.16861032319E+04  0.00000000000E+00 0. -1.
         25    2    1    2    0    0 -0.42607154436E+02  0.12606455205E+03 -0.93367045838E+02  0.20506033627E+03  0.12499878148E+03 0.  0.
          2    1    1    2  501    0  0.60927493869E+02 -0.81865876899E+02 -0.15335686499E+04  0.15369603070E+04  0.00000000000E+00 0. -1.
          1    1    1    2  502    0 -0.18320339433E+02 -0.44198675152E+02  0.35053952349E+03  0.35378964831E+03  0.00000000000E+00 0. -1.
         22    1    3    3    0    0  0.47811682079E+01  0.70205071736E+02 -0.10939710300E+03  0.13007435494E+03  0.00000000000E+00 0.  1.
         22    1    3    3    0    0 -0.47388322644E+02  0.55859480315E+02  0.16030057166E+02  0.74985981335E+02  0.00000000000E+00 0.  1.
</event>
<event>
 7    1  0.8278507E-006  0.6963941E+02  0.7818608E-02  0.1422680E+00
          2   -1    0    0  502    0  0.00000000000E+00  0.00000000000E+00  0.77940893491E+03  0.77940893491E+03  0.00000000000E+00 0. -1.
          1   -1    0    0  501    0 -0.00000000000E+00 -0.00000000000E+00 -0.72873186348E+02  0.72873186348E+02  0.00000000000E+00 0. -1.
         25    2    1    2    0    0  0.10355541739E+03 -0.34717113578E+02  0.15637767032E+03  0.22805326046E+03  0.12500124553E+03 0.  0.
          2    1    1    2  501    0 -0.37782594370E+02  0.19648071700E+02 -0.22118795440E+02  0.47987626224E+02  0.00000000000E+00 0. -1.
          1    1    1    2  502    0 -0.65772823022E+02  0.15069041878E+02  0.57227687368E+03  0.57624123457E+03  0.00000000000E+00 0. -1.
         22    1    3    3    0    0  0.12401643579E+03 -0.42191208112E+00  0.10193058719E+03  0.16053067919E+03  0.00000000000E+00 0. -1.
         22    1    3    3    0    0 -0.20461018401E+02 -0.34295201497E+02  0.54447083129E+02  0.67522581267E+02  0.00000000000E+00 0. -1.
</event>
<event>
 7    1  0.1006614E-005  0.6127197E+02  0.7818608E-02  0.1501331E+00
          2   -1    0    0  502    0  0.00000000000E+00  0.00000000000E+00  0.20768504397E+04  0.20768504397E+04  0.00000000000E+00 0. -1.
          1   -1    0    0  501    0 -0.00000000000E+00 -0.00000000000E+00 -0.24404019191E+04  0.24404019191E+04  0.00000000000E+00 0. -1.
         25    2    1    2    0    0 -0.48121067918E+02 -0.87873662708E+01 -0.15515072050E+04  0.15573029530E+04  0.12500010145E+03 0.  0.
          2    1    1    2  501    0 -0.13774539694E+01 -0.27334172624E+02 -0.88533270431E+03  0.88575563882E+03  0.00000000000E+00 0. -1.
          1    1    1    2  502    0  0.49498521887E+02  0.36121538894E+02  0.20732884299E+04  0.20741937669E+04  0.00000000000E+00 0. -1.
         22    1    3    3    0    0 -0.32784890175E+02  0.37869224123E+02 -0.13044600588E+04  0.13054213772E+04  0.00000000000E+00 0.  1.
         22    1    3    3    0    0 -0.15336177743E+02 -0.46656590394E+02 -0.24704714620E+03  0.25188157579E+03  0.00000000000E+00 0.  1.
</event>
<event>
 7    1  0.8278507E-006  0.1132577E+03  0.7818608E-02  0.1370409E+00
          2   -1    0    0  502    0  0.00000000000E+00  0.00000000000E+00  0.12473873149E+04  0.12473873149E+04  0.00000000000E+00 0. -1.
          1   -1    0    0  501    0 -0.00000000000E+00 -0.00000000000E+00 -0.13498011559E+03  0.13498011559E+03  0.00000000000E+00 0. -1.
         25    2    1    2    0    0 -0.79676186202E+02 -0.39007354280E+02  0.64496672351E+00  0.15328213806E+03  0.12500051812E+03 0.  0.
          2    1    1    2  501    0 -0.33492656385E+01 -0.39557154406E+02 -0.48799757020E+02  0.62907887663E+02  0.00000000000E+00 0. -1.
          1    1    1    2  502    0  0.83025451840E+02  0.78564508686E+02  0.11605619896E+04  0.11661774048E+04  0.00000000000E+00 0. -1.
         22    1    3    3    0    0 -0.29175608490E+02 -0.32112390857E+02 -0.60012495209E+02  0.74053503351E+02  0.00000000000E+00 0.  1.
         22    1    3    3    0    0 -0.50500577712E+02 -0.68949634230E+01  0.60657461933E+02  0.79228634710E+02  0.00000000000E+00 0.  1.
</event>
<event>
 7    1  0.8278507E-006  0.8753013E+02  0.7818608E-02  0.1398775E+00
          2   -1    0    0  502    0  0.00000000000E+00  0.00000000000E+00  0.12922136640E+04  0.12922136640E+04  0.00000000000E+00 0. -1.
          1   -1    0    0  501    0 -0.00000000000E+00 -0.00000000000E+00 -0.41550703864E+03  0.41550703864E+03  0.00000000000E+00 0. -1.
         25    2    1    2    0    0  0.58123984302E+02  0.35760306071E+02  0.79354035929E+02  0.16299338881E+03  0.12495032907E+03 0.  0.
          2    1    1    2  501    0  0.30078134522E+02 -0.27599571497E+02 -0.37089082602E+03  0.37313058753E+03  0.00000000000E+00 0. -1.
          1    1    1    2  502    0 -0.88202118824E+02 -0.81607345738E+01  0.11682434154E+04  0.11715967263E+04  0.00000000000E+00 0. -1.
         22    1    3    3    0    0  0.91236657240E+02 -0.29731470963E+01  0.54229005285E+02  0.10617792728E+03  0.00000000000E+00 0. -1.
         22    1    3    3    0    0 -0.33112672939E+02  0.38733453167E+02  0.25125030643E+02  0.56815461525E+02  0.00000000000E+00 0. -1.
</event>
<event>
 7    1  0.8278507E-006  0.3499217E+02  0.7818608E-02  0.1634619E+00
          2   -1    0    0  502    0  0.00000000000E+00  0.00000000000E+00  0.36340163812E+03  0.36340163812E+03  0.00000000000E+00 0. -1.
          1   -1    0    0  501    0 -0.00000000000E+00 -0.00000000000E+00 -0.14888318241E+04  0.14888318241E+04  0.00000000000E+00 0. -1.
         25    2    1    2    0    0  0.30117634809E+02 -0.61361514171E+01 -0.13330950684E+03  0.18531225680E+03  0.12499793448E+03 0.  0.
          2    1    1    2  501    0 -0.23707004440E+02  0.25859539532E+02 -0.13289705501E+04  0.13294335112E+04  0.00000000000E+00 0. -1.
          1    1    1    2  502    0 -0.64106303688E+01 -0.19723388115E+02  0.33684987090E+03  0.33748769422E+03  0.00000000000E+00 0. -1.
         22    1    3    3    0    0 -0.47518671212E+01 -0.21261447469E+02  0.18645685267E+02  0.28675616274E+02  0.00000000000E+00 0. -1.
         22    1    3    3    0    0  0.34869501930E+02  0.15125296052E+02 -0.15195519211E+03  0.15663664052E+03  0.00000000000E+00 0. -1.
</event>
<event>
 7    1  0.8278507E-006  0.1735881E+03  0.7818608E-02  0.1307931E+00
          2   -1    0    0  502    0  0.00000000000E+00  0.00000000000E+00  0.29153396068E+04  0.29153396068E+04  0.00000000000E+00 0. -1.
          1   -1    0    0  501    0 -0.00000000000E+00 -0.00000000000E+00 -0.10118302914E+03  0.10118302914E+03  0.00000000000E+00 0. -1.
         25    2    1    2    0    0 -0.11100363852E+02 -0.16458594327E+03  0.78902369183E+03  0.81571811956E+03  0.12500365403E+03 0.  0.
          2    1    1    2  501    0 -0.44396416811E+02 -0.36418302646E+01 -0.78214816370E+02  0.90010345257E+02  0.00000000000E+00 0. -1.
          1    1    1    2  502    0  0.55496780664E+02  0.16822777354E+03  0.21033477022E+04  0.21107941711E+04  0.00000000000E+00 0. -1.
         22    1    3    3    0    0 -0.10009099908E+02  0.56579129893E+00  0.28802515510E+03  0.28819957004E+03  0.00000000000E+00 0.  1.
         22    1    3    3    0    0 -0.10912639447E+01 -0.16515173457E+03  0.50099853673E+03  0.52751854952E+03  0.00000000000E+00 0.  1.
</event>
<event>
 7    1  0.8278507E-006  0.2682716E+03  0.7818608E-02  0.1189717E+00
          2   -1    0    0  502    0  0.00000000000E+00  0.00000000000E+00  0.39950171901E+03  0.39950171901E+03  0.00000000000E+00 0. -1.
          1   -1    0    0  501    0 -0.00000000000E+00 -0.00000000000E+00 -0.47631644860E+03  0.47631644860E+03  0.00000000000E+00 0. -1.
         25    2    1    2    0    0 -0.29008138322E+03 -0.12942739485E+02  0.46789715259E+02  0.31957641605E+03  0.12500033938E+03 0.  0.
          2    1    1    2  501    0  0.24693954700E+03  0.96856966028E+02 -0.27229645131E+03  0.38013914444E+03  0.00000000000E+00 0. -1.
          1    1    1    2  502    0  0.43141836219E+02 -0.83914226543E+02  0.14869200646E+03  0.17610260712E+03  0.00000000000E+00 0. -1.
         22    1    3    3    0    0 -0.19832374294E+03  0.16434726087E+02 -0.23399908304E+02  0.20037455663E+03  0.00000000000E+00 0.  1.
         22    1    3    3    0    0 -0.91757640282E+02 -0.29377465573E+02  0.70189623564E+02  0.11920185942E+03  0.00000000000E+00 0.  1.
</event>
<event>
 7    1  0.8278507E-006  0.7020907E+02  0.7818608E-02  0.1454895E+00
          2   -1    0    0  502    0  0.00000000000E+00  0.00000000000E+00  0.76746331072E+02  0.76746331072E+02  0.00000000000E+00 0. -1.
          1   -1    0    0  501    0 -0.00000000000E+00 -0.00000000000E+00 -0.19327907074E+04  0.19327907074E+04  0.00000000000E+00 0. -1.
         25    2    1    2    0    0  0.85863580418E+02  0.74089117725E+01 -0.30934462181E+03  0.34459699345E+03  0.12500218571E+03 0.  0.
          2    1    1    2  501    0 -0.19156764426E+02 -0.27101423195E+02 -0.15851292954E+04  0.15854766955E+04  0.00000000000E+00 0. -1.
          1    1    1    2  502    0 -0.66706815992E+02  0.19692511422E+02  0.38429540896E+02  0.79463349536E+02  0.00000000000E+00 0. -1.
         22    1    3    3    0    0  0.40687980572E+02  0.41448661262E+02 -0.26879716112E+03  0.27500075838E+03  0.00000000000E+00 0. -1.
         22    1    3    3    0    0  0.45175599847E+02 -0.34039749490E+02 -0.40547460688E+02  0.69596235064E+02  0.00000000000E+00 0. -1.
</event>
<event>
 7    1  0.8278507E-006  0.1418478E+03  0.7818608E-02  0.1259590E+00
          2   -1    0    0  502    0  0.00000000000E+00  0.00000000000E+00  0.40620074451E+03  0.40620074451E+03  0.00000000000E+00 0. -1.
          1   -1    0    0  501    0 -0.00000000000E+00 -0.00000000000E+00 -0.18017541726E+04  0.18017541726E+04  0.00000000000E+00 0. -1.
         25    2    1    2    0    0  0.19346741123E+03  0.18149457269E+02 -0.84069871532E+03  0.87187071583E+03  0.12500069270E+03 0.  0.
          2    1    1    2  501    0 -0.11636002432E+03 -0.56523110290E+02 -0.93621956421E+03  0.94511459076E+03  0.00000000000E+00 0. -1.
          1    1    1    2  502    0 -0.77107386902E+02  0.38373653021E+02  0.38136485149E+03  0.39096961047E+03  0.00000000000E+00 0. -1.
         22    1    3    3    0    0  0.47971660328E+02 -0.49373700352E+02 -0.30506285294E+03  0.31273373135E+03  0.00000000000E+00 0. -1.
         22    1    3    3    0    0  0.14549575090E+03  0.67523157621E+02 -0.53563586238E+03  0.55913698448E+03  0.00000000000E+00 0. -1.
</event>
<event>
 7    1  0.8278507E-006  0.1148748E+03  0.7818608E-02  0.1255783E+00
          2   -1    0    0  502    0  0.00000000000E+00  0.00000000000E+00  0.18137220625E+04  0.18137220625E+04  0.00000000000E+00 0. -1.
          1   -1    0    0  501    0 -0.00000000000E+00 -0.00000000000E+00 -0.14977646287E+03  0.14977646287E+03  0.00000000000E+00 0. -1.
         25    2    1    2    0    0 -0.34340020651E+02  0.39767375646E+02  0.33707162130E+03  0.36332166838E+03  0.12499870258E+03 0.  0.
          2    1    1    2  501    0  0.82446101745E+02  0.79992904484E+02 -0.10909287528E+03  0.15842184161E+03  0.00000000000E+00 0. -1.
          1    1    1    2  502    0 -0.48106081094E+02 -0.11976028013E+03  0.14359668536E+04  0.14417550154E+04  0.00000000000E+00 0. -1.
         22    1    3    3    0    0  0.37652150471E+02  0.48007220574E+02  0.18640250677E+03  0.19613330210E+03  0.00000000000E+00 0. -1.
         22    1    3    3    0    0 -0.71992171122E+02 -0.82398449275E+01  0.15066911452E+03  0.16718836628E+03  0.00000000000E+00 0. -1.
</event>
<event>
 7    1  0.8278507E-006  0.4394573E+02  0.7818608E-02  0.1483740E+00
          2   -1    0    0  502    0  0.00000000000E+00  0.00000000000E+00  0.16921523693E+04  0.16921523693E+04  0.00000000000E+00 0. -1.
          1   -1    0    0  501    0 -0.00000000000E+00 -0.00000000000E+00 -0.53474696148E+02  0.53474696148E+02  0.00000000000E+00 0. -1.
         25    2    1    2    0    0  0.22813109445E+02  0.16438896328E+02  0.23611315768E+03  0.26863608451E+03  0.12500098959E+03 0.  0.
          2    1    1    2  501    0  0.97345773906E+01 -0.44716916539E+02 -0.22692850183E+02  0.51081602081E+02  0.00000000000E+00 0. -1.
          1    1    1    2  502    0 -0.32547686836E+02  0.28278020211E+02  0.14252573657E+04  0.14259093789E+04  0.00000000000E+00 0. -1.
         22    1    3    3    0    0 -0.11670317539E+02  0.64021980593E+02  0.89280696525E+02  0.11048100779E+03  0.00000000000E+00 0. -1.
         22    1    3    3    0    0  0.34483426984E+02 -0.47583084265E+02  0.14683246115E+03  0.15815507672E+03  0.00000000000E+00 0. -1.
</event>
<event>
 7    1  0.8278507E-006  0.6533893E+02  0.7818608E-02  0.1463300E+00
          2   -1    0    0  502    0  0.00000000000E+00  0.00000000000E+00  0.62455244735E+03  0.62455244735E+03  0.00000000000E+00 0. -1.
          1   -1    0    0  501    0 -0.00000000000E+00 -0.00000000000E+00 -0.94450750955E+03  0.94450750955E+03  0.00000000000E+00 0. -1.
         25    2    1    2    0    0 -0.73928610557E+02 -0.40412220787E+02 -0.43960870718E+03  0.46473572382E+03  0.12499956206E+03 0.  0.
          2    1    1    2  501    0  0.91490819614E+01  0.32275658046E+02 -0.49001887229E+03  0.49116587728E+03  0.00000000000E+00 0. -1.
          1    1    1    2  502    0  0.64779528595E+02  0.81365627408E+01  0.60967251727E+03  0.61315835580E+03  0.00000000000E+00 0. -1.
         22    1    3    3    0    0 -0.59575735403E+01  0.42409258604E+02 -0.14778940728E+03  0.15386925230E+03  0.00000000000E+00 0. -1.
         22    1    3    3    0    0 -0.67971037016E+02 -0.82821479390E+02 -0.29181929990E+03  0.31086647152E+03  0.00000000000E+00 0. -1.
</event>
<event>
 7    1  0.8278507E-006  0.3381845E+03  0.7818608E-02  0.1092033E+00
          2   -1    0    0  502    0  0.00000000000E+00  0.00000000000E+00  0.28959873142E+04  0.28959873142E+04  0.00000000000E+00 0. -1.
          1   -1    0    0  501    0 -0.00000000000E+00 -0.00000000000E+00 -0.38072490322E+03  0.38072490322E+03  0.00000000000E+00 0. -1.
         25    2    1    2    0    0  0.19409477113E+03  0.16954166993E+02  0.35868341704E+03  0.42689520213E+03  0.12500198392E+03 0.  0.
          2    1    1    2  501    0  0.18509308824E+03  0.15778505423E+03 -0.28392517695E+03  0.37385703251E+03  0.00000000000E+00 0. -1.
          1    1    1    2  502    0 -0.37918785937E+03 -0.17473922122E+03  0.24405041709E+04  0.24759599828E+04  0.00000000000E+00 0. -1.
         22    1    3    3    0    0  0.15376361236E+03  0.63067158434E+02  0.22387900794E+03  0.27882346593E+03  0.00000000000E+00 0. -1.
         22    1    3    3    0    0  0.40331158773E+02 -0.46112991441E+02  0.13480440910E+03  0.14807173620E+03  0.00000000000E+00 0. -1.
</event>
<event>
 7    1  0.8278507E-006  0.6838387E+02  0.7818608E-02  0.1476907E+00
          2   -1    0    0  502    0  0.00000000000E+00  0.00000000000E+00  0.92022484544E+02  0.92022484544E+02  0.00000000000E+00 0. -1.
          1   -1    0    0  501    0 -0.00000000000E+00 -0.00000000000E+00 -0.45764161593E+03  0.45764161593E+03  0.00000000000E+00 0. -1.
         25    2    1    2    0    0 -0.87906898184E+02  0.21879987005E+02 -0.63756868754E+02  0.16702524480E+03  0.12500454994E+03 0.  0.
          2    1    1    2  501    0  0.24589033483E+02 -0.15519774551E+02 -0.31609547753E+03  0.31743004723E+03  0.00000000000E+00 0. -1.
          1    1    1    2  502    0  0.63317864700E+02 -0.63602124538E+01  0.14233214898E+02  0.65208808446E+02  0.00000000000E+00 0. -1.
         22    1    3    3    0    0 -0.10415759269E+03  0.54530623595E+02 -0.53287050722E+02  0.12908099317E+03  0.00000000000E+00 0.  1.
         22    1    3    3    0    0  0.16250694504E+02 -0.32650636591E+02 -0.10469818032E+02  0.37944251624E+02  0.00000000000E+00 0.  1.
</event>
<event>
 7    1  0.8278507E-006  0.4840501E+02  0.7818608E-02  0.1465666E+00
          2   -1    0    0  502    0  0.00000000000E+00  0.00000000000E+00  0.50411495693E+03  0.50411495693E+03  0.00000000000E+00 0. -1.
          1   -1    0    0  501    0 -0.00000000000E+00 -0.00000000000E+00 -0.41255716743E+03  0.41255716743E+03  0.00000000000E+00 0. -1.
         25    2    1    2    0    0  0.32128269142E+02 -0.47384162249E+02  0.16365280310E+03  0.21373754511E+03  0.12499605480E+03 0.  0.
          2    1    1    2  501    0 -0.44516414419E+02 -0.14534279342E+00 -0.38430997124E+03  0.38687967932E+03  0.00000000000E+00 0. -1.
          1    1    1    2  502    0  0.12388145277E+02  0.47529505042E+02  0.31221495764E+03  0.31605489992E+03  0.00000000000E+00 0. -1.
         22    1    3    3    0    0 -0.13570449339E+02  0.29708868195E+02  0.96131913006E+02  0.10152890546E+03  0.00000000000E+00 0. -1.
         22    1    3    3    0    0  0.45698718481E+02 -0.77093030444E+02  0.67520890095E+02  0.11220863965E+03  0.00000000000E+00 0. -1.
</event>
<event>
 7    1  0.8278507E-006  0.1108795E+03  0.7818608E-02  0.1268912E+00
          2   -1    0    0  502    0  0.00000000000E+00  0.00000000000E+00  0.18950357839E+03  0.18950357839E+03  0.00000000000E+00 0. -1.
          1   -1    0    0  501    0 -0.00000000000E+00 -0.00000000000E+00 -0.27279279097E+04  0.27279279097E+04  0.00000000000E+00 0. -1.
         25    2    1    2    0    0  0.79042336700E+02 -0.51675372820E+02  0.12166890165E+02  0.15713389444E+03  0.12499996967E+03 0.  0.
          2    1    1    2  501    0  0.16840868713E+01  0.11170749679E+03 -0.26298519393E+04  0.26322238931E+04  0.00000000000E+00 0. -1.
          1    1    1    2  502    0 -0.80726423571E+02 -0.60032123974E+02  0.79260717822E+02  0.12807370051E+03  0.00000000000E+00 0. -1.
         22    1    3    3    0    0  0.28403319346E+01 -0.56651097190E+02  0.46557794205E+02  0.73382848811E+02  0.00000000000E+00 0.  1.
         22    1    3    3    0    0  0.76202004765E+02  0.49757243694E+01 -0.34390904041E+02  0.83751045629E+02  0.00000000000E+00 0.  1.
</event>
<event>
 7    1  0.8278507E-006  0.1984268E+03  0.7818608E-02  0.1371659E+00
          2   -1    0    0  502    0  0.00000000000E+00  0.00000000000E+00  0.85821467901E+03  0.85821467901E+03  0.00000000000E+00 0. -1.
          1   -1    0    0  501    0 -0.00000000000E+00 -0.00000000000E+00 -0.64987526133E+03  0.64987526133E+03  0.00000000000E+00 0. -1.
         25    2    1    2    0    0  0.19016127762E+03 -0.10876632784E+03 -0.27866776705E+03  0.37586146283E+03  0.12499875707E+03 0.  0.
          2    1    1    2  501    0 -0.21827615062E+02  0.51470483951E+01 -0.31013440450E+03  0.31094418429E+03  0.00000000000E+00 0. -1.
          1    1    1    2  502    0 -0.16833366255E+03  0.10361927944E+03  0.79714158923E+03  0.82128429323E+03  0.00000000000E+00 0. -1.
         22    1    3    3    0    0  0.11284324920E+03 -0.11100638803E+03 -0.11763792737E+03  0.19721739028E+03  0.00000000000E+00 0. -1.
         22    1    3    3    0    0  0.77318028413E+02  0.22400601929E+01 -0.16102983968E+03  0.17864407254E+03  0.00000000000E+00 0. -1.
</event>
<event>
 7    1  0.8278507E-006  0.2718385E+03  0.7818608E-02  0.1205444E+00
          2   -1    0    0  502    0  0.00000000000E+00  0.00000000000E+00  0.26673715499E+03  0.26673715499E+03  0.00000000000E+00 0. -1.
          1   -1    0    0  501    0 -0.00000000000E+00 -0.00000000000E+00 -0.19216413961E+04  0.19216413961E+04  0.00000000000E+00 0. -1.
         25    2    1    2    0    0  0.13691784683E+03  0.30164477810E+03 -0.70352572034E+03  0.78759681599E+03  0.12499694577E+03 0.  0.
          2    1    1    2  501    0  0.70328323847E+01 -0.78125774081E+02 -0.10955434879E+04  0.10983481375E+04  0.00000000000E+00 0. -1.
          1    1    1    2  502    0 -0.14395067922E+03 -0.22351900402E+03  0.14416496712E+03  0.30243359759E+03  0.00000000000E+00 0. -1.
         22    1    3    3    0    0  0.10921708102E+03  0.29352399454E+03 -0.68526147048E+03  0.75343744869E+03  0.00000000000E+00 0.  1.
         22    1    3    3    0    0  0.27700765810E+02  0.81207835567E+01 -0.18264249859E+02  0.34159367308E+02  0.00000000000E+00 0.  1.
</event>
<event>
 7    1  0.8278507E-006  0.1915357E+03  0.7818608E-02  0.1292687E+00
          2   -1    0    0  502    0  0.00000000000E+00  0.00000000000E+00  0.50965356548E+03  0.50965356548E+03  0.00000000000E+00 0. -1.
          1   -1    0    0  501    0 -0.00000000000E+00 -0.00000000000E+00 -0.10749817627E+04  0.10749817627E+04  0.00000000000E+00 0. -1.
         25    2    1    2    0    0 -0.13719967967E+03  0.13524756113E+03 -0.32264098364E+03  0.39602688389E+03  0.12499773415E+03 0.  0.
          2    1    1    2  501    0  0.16555107563E+03 -0.98441833533E+02 -0.70149385029E+03  0.72745554862E+03  0.00000000000E+00 0. -1.
          1    1    1    2  502    0 -0.28351395961E+02 -0.36805727599E+02  0.45880663674E+03  0.46115289563E+03  0.00000000000E+00 0. -1.
         22    1    3    3    0    0 -0.37447177765E+01  0.48246011404E+02 -0.16482921839E+03  0.17178583109E+03  0.00000000000E+00 0.  1.
         22    1    3    3    0    0 -0.13345496190E+03  0.87001549728E+02 -0.15781176525E+03  0.22424105280E+03  0.00000000000E+00 0.  1.
</event>
<event>
 7    1  0.8278507E-006  0.1468278E+03  0.7818608E-02  0.1219791E+00
          2   -1    0    0  502    0  0.00000000000E+00  0.00000000000E+00  0.43282917810E+03  0.43282917810E+03  0.00000000000E+00 0. -1.
          1   -1    0    0  501    0 -0.00000000000E+00 -0.00000000000E+00 -0.79902020435E+03  0.79902020435E+03  0.00000000000E+00 0. -1.
         25    2    1    2    0    0  0.10221499886E+03  0.23910853297E+03 -0.57314209706E+02  0.29416086172E+03  0.12499958962E+03 0.  0.
          2    1    1    2  501    0 -0.34729617801E+02 -0.11974984753E+03 -0.60163088380E+03  0.61441508175E+03  0.00000000000E+00 0. -1.
          1    1    1    2  502    0 -0.67485381056E+02 -0.11935868544E+03  0.29275406726E+03  0.32327343897E+03  0.00000000000E+00 0. -1.
         22    1    3    3    0    0  0.32510010472E+01  0.43928877482E+02  0.35384758138E+02  0.56501295499E+02  0.00000000000E+00 0.  1.
         22    1    3    3    0    0  0.98963997810E+02  0.19517965549E+03 -0.92698967844E+02  0.23765956623E+03  0.00000000000E+00 0.  1.
</event>
<event>
 7    1  0.8278507E-006  0.8387385E+02  0.7818608E-02  0.1330248E+00
          2   -1    0    0  502    0  0.00000000000E+00  0.00000000000E+00  0.65005819381E+03  0.65005819381E+03  0.00000000000E+00 0. -1.
          1   -1    0    0  501    0 -0.00000000000E+00 -0.00000000000E+00 -0.54266226704E+03  0.54266226704E+03  0.00000000000E+00 0. -1.
         25    2    1    2    0    0 -0.50635926214E+02  0.73899860574E+02 -0.29631124817E+03  0.33384328899E+03  0.12500319754E+03 0.  0.
          2    1    1    2  501    0  0.75220756716E+02  0.65506095817E+01 -0.21841264262E+03  0.23109555422E+03  0.00000000000E+00 0. -1.
          1    1    1    2  502    0 -0.24584830502E+02 -0.80450470156E+02  0.62211981756E+03  0.62778161764E+03  0.00000000000E+00 0. -1.
         22    1    3    3    0    0  0.25970079878E+02  0.53455089827E+02 -0.20236418603E+03  0.21091030194E+03  0.00000000000E+00 0.  1.
         22    1    3    3    0    0 -0.76606006092E+02  0.20444770748E+02 -0.93947062138E+02  0.12293298705E+03  0.00000000000E+00 0.  1.
</event>
<event>
 7    1  0.9364063E-006  0.7366882E+02  0.7818608E-02  0.1360604E+00
          2   -1    0    0  502    0  0.00000000000E+00  0.00000000000E+00  0.98435986782E+03  0.98435986782E+03  0.00000000000E+00 0. -1.
          1   -1    0    0  501    0 -0.00000000000E+00 -0.00000000000E+00 -0.32833318243E+04  0.32833318243E+04  0.00000000000E+00 0. -1.
         25    2    1    2    0    0  0.11698403486E+03 -0.34916695247E+02 -0.12940331926E+04  0.13057762283E+04  0.12500085898E+03 0.  0.
          2    1    1    2  501    0 -0.68856795802E+02 -0.10581213551E+02 -0.19816936644E+04  0.19829177996E+04  0.00000000000E+00 0. -1.
          1    1    1    2  502    0 -0.48127239055E+02  0.45497908798E+02  0.97675490055E+03  0.97899766424E+03  0.00000000000E+00 0. -1.
         22    1    3    3    0    0  0.66524156397E+02 -0.13333496465E+02 -0.21730869267E+03  0.22765393346E+03  0.00000000000E+00 0.  1.
         22    1    3    3    0    0  0.50459878461E+02 -0.21583198782E+02 -0.10767244999E+04  0.10781222948E+04  0.00000000000E+00 0.  1.
</event>
<event>
 7    1  0.8278507E-006  0.1449836E+03  0.7818608E-02  0.1274382E+00
          2   -1    0    0  502    0  0.00000000000E+00  0.00000000000E+00  0.89456710148E+02  0.89456710148E+02  0.00000000000E+00 0. -1.
          1   -1    0    0  501    0 -0.00000000000E+00 -0.00000000000E+00 -0.14012219090E+04  0.14012219090E+04  0.00000000000E+00 0. -1.
         25    2    1    2    0    0  0.30866524729E+02  0.17356846394E+03 -0.27883723014E+03  0.35278070094E+03  0.12500107209E+03 0.  0.
          2    1    1    2  501    0  0.33218173645E+02 -0.13864405329E+03 -0.10526789306E+04  0.10622892975E+04  0.00000000000E+00 0. -1.
          1    1    1    2  502    0 -0.64084698374E+02 -0.34924410642E+02  0.19750961943E+02  0.75608620686E+02  0.00000000000E+00 0. -1.
         22    1    3    3    0    0  0.71328403615E+02  0.14160301261E+03 -0.17068426808E+03  0.23296410392E+03  0.00000000000E+00 0. -1.
         22    1    3    3    0    0 -0.40461878886E+02  0.31965451322E+02 -0.10815296205E+03  0.11981659702E+03  0.00000000000E+00 0. -1.
</event>
<event>
 7    1  0.8278507E-006  0.8493206E+02  0.7818608E-02  0.1449484E+00
          2   -1    0    0  502    0  0.00000000000E+00  0.00000000000E+00  0.55941245329E+03  0.55941245329E+03  0.00000000000E+00 0. -1.
          1   -1    0    0  501    0 -0.00000000000E+00 -0.00000000000E+00 -0.29948250554E+03  0.29948250554E+03  0.00000000000E+00 0. -1.
         25    2    1    2    0    0 -0.32701590697E+02 -0.84405482616E+02 -0.11668246239E+03  0.19346622283E+03  0.12498281009E+03 0.  0.
          2    1    1    2  501    0  0.53617821483E+02  0.64977007067E+02 -0.13168733363E+03  0.15632797596E+03  0.00000000000E+00 0. -1.
          1    1    1    2  502    0 -0.20916230786E+02  0.19428475549E+02  0.50829974376E+03  0.50910076005E+03  0.00000000000E+00 0. -1.
         22    1    3    3    0    0 -0.58204278650E+02 -0.10446765825E+03 -0.77114953474E+02  0.14229527653E+03  0.00000000000E+00 0. -1.
         22    1    3    3    0    0  0.25502687952E+02  0.20062175630E+02 -0.39567508912E+02  0.51170946301E+02  0.00000000000E+00 0. -1.
</event>
<event>
 7    1  0.8278507E-006  0.4807625E+02  0.7818608E-02  0.1483249E+00
          2   -1    0    0  502    0  0.00000000000E+00  0.00000000000E+00  0.47133484061E+03  0.47133484061E+03  0.00000000000E+00 0. -1.
          1   -1    0    0  501    0 -0.00000000000E+00 -0.00000000000E+00 -0.43889049230E+03  0.43889049230E+03  0.00000000000E+00 0. -1.
         25    2    1    2    0    0  0.22666752128E+02  0.83605561234E+02 -0.11581041863E+01  0.15208671143E+03  0.12500142026E+03 0.  0.
          2    1    1    2  501    0 -0.13716381323E+02 -0.37093058006E+02 -0.35976378329E+03  0.36193095175E+03  0.00000000000E+00 0. -1.
          1    1    1    2  502    0 -0.89503708052E+01 -0.46512503228E+02  0.39336623578E+03  0.39620766972E+03  0.00000000000E+00 0. -1.
         22    1    3    3    0    0  0.69603721469E+02  0.19286677429E+02 -0.47427696740E+01  0.72381957923E+02  0.00000000000E+00 0.  1.
         22    1    3    3    0    0 -0.46936969341E+02  0.64318883805E+02  0.35846654876E+01  0.79704753506E+02  0.00000000000E+00 0.  1.
</event>
<event>
 7    1  0.8278507E-006  0.6725799E+02  0.7818608E-02  0.1463886E+00
          2   -1    0    0  502    0  0.00000000000E+00  0.00000000000E+00  0.13242455236E+03  0.13242455236E+03  0.00000000000E+00 0. -1.
          1   -1    0    0  501    0 -0.00000000000E+00 -0.00000000000E+00 -0.24165176395E+03  0.24165176395E+03  0.00000000000E+00 0. -1.
         25    2    1    2    0    0  0.57030453869E+02  0.59495262578E+02 -0.49361487851E+02  0.15765083087E+03  0.12500027622E+03 0.  0.
          2    1    1    2  501    0 -0.24611627453E+02 -0.60968670192E+02 -0.12635582510E+03  0.14243842700E+03  0.00000000000E+00 0. -1.
          1    1    1    2  502    0 -0.32418826416E+02  0.14734076142E+01  0.66490101365E+02  0.73987058434E+02  0.00000000000E+00 0. -1.
         22    1    3    3    0    0  0.94977659813E+02  0.32966346712E+02 -0.19090795029E+02  0.10233276276E+03  0.00000000000E+00 0. -1.
         22    1    3    3    0    0 -0.37947205944E+02  0.26528915866E+02 -0.30270692823E+02  0.55318068114E+02  0.00000000000E+00 0. -1.
</event>
<event>
 7    1  0.8278507E-006  0.7853937E+02  0.7818608E-02  0.1429587E+00
          2   -1    0    0  502    0  0.00000000000E+00  0.00000000000E+00  0.38534140341E+03  0.38534140341E+03  0.00000000000E+00 0. -1.
          1   -1    0    0  501    0 -0.00000000000E+00 -0.00000000000E+00 -0.61975134964E+03  0.61975134964E+03  0.00000000000E+00 0. -1.
         25    2    1    2    0    0  0.35866608739E+02  0.40023155731E+02 -0.82142077424E+01  0.13630326815E+03  0.12499136403E+03 0.  0.
          2    1    1    2  501    0 -0.71424505295E+02 -0.35667779677E+02 -0.54356916098E+03  0.54940065820E+03  0.00000000000E+00 0. -1.
          1    1    1    2  502    0  0.35557896556E+02 -0.43553760540E+01  0.31737342250E+03  0.31938882669E+03  0.00000000000E+00 0. -1.
         22    1    3    3    0    0 -0.25804581655E+02  0.27789205638E+02 -0.48548981386E+02  0.61604545109E+02  0.00000000000E+00 0. -1.
         22    1    3    3    0    0  0.61671190394E+02  0.12233950093E+02  0.40334773644E+02  0.74698723044E+02  0.00000000000E+00 0. -1.
</event>
<event>
 7    1  0.8278507E-006  0.1548402E+03  0.7818608E-02  0.1220911E+00
          2   -1    0    0  502    0  0.00000000000E+00  0.00000000000E+00  0.18537454321E+04  0.18537454321E+04  0.00000000000E+00 0. -1.
          1   -1    0    0  501    0 -0.00000000000E+00 -0.00000000000E+00 -0.21389991108E+04  0.21389991108E+04  0.00000000000E+00 0. -1.
         25    2    1    2    0    0  0.81179103336E+02  0.25754908190E+02  0.32092049199E+03  0.35477887148E+03  0.12499889340E+03 0.  0.
          2    1    1    2  501    0  0.93944727054E+02 -0.69488261755E+02 -0.21150782934E+04  0.21183036651E+04  0.00000000000E+00 0. -1.
          1    1    1    2  502    0 -0.17512383039E+03  0.43733353564E+02  0.15089041227E+04  0.15196620064E+04  0.00000000000E+00 0. -1.
         22    1    3    3    0    0  0.50774517589E+02  0.53181311438E+02  0.29984093714E+03  0.30872462018E+03  0.00000000000E+00 0.  1.
         22    1    3    3    0    0  0.30404585747E+02 -0.27426403248E+02  0.21079554854E+02  0.46054251296E+02  0.00000000000E+00 0.  1.
</event>
<event>
 7    1  0.8278507E-006  0.1035729E+03  0.7818608E-02  0.1448554E+00
          2   -1    0    0  502    0  0.00000000000E+00  0.00000000000E+00  0.16536776790E+04  0.16536776790E+04  0.00000000000E+00 0. -1.
          1   -1    0    0  501    0 -0.00000000000E+00 -0.00000000000E+00 -0.54680973050E+02  0.54680973050E+02  0.00000000000E+00 0. -1.
         25    2    1    2    0    0  0.12397637807E+02  0.81700575180E+02  0.80930382802E+03  0.82305862459E+03  0.12499651223E+03 0.  0.
          2    1    1    2  501    0 -0.23750341757E+02 -0.10235700492E+03  0.10332299953E+02  0.10558310287E+03  0.00000000000E+00 0. -1.
          1    1    1    2  502    0  0.11352703951E+02  0.20656429736E+02  0.77936057798E+03  0.77971692459E+03  0.00000000000E+00 0. -1.
         22    1    3    3    0    0 -0.15197113470E+02  0.65113244489E+02  0.76693759500E+03  0.76984671298E+03  0.00000000000E+00 0. -1.
         22    1    3    3    0    0  0.27594751277E+02  0.16587330691E+02  0.42366233020E+02  0.53211911615E+02  0.00000000000E+00 0. -1.
</event>
<event>
 7    1  0.8278507E-006  0.1444082E+03  0.7818608E-02  0.1366574E+00
          2   -1    0    0  502    0  0.00000000000E+00  0.00000000000E+00  0.11700769327E+04  0.11700769327E+04  0.00000000000E+00 0. -1.
          1   -1    0    0  501    0 -0.00000000000E+00 -0.00000000000E+00 -0.48809374170E+03  0.48809374170E+03  0.00000000000E+00 0. -1.
         25    2    1    2    0    0 -0.67192018334E+02 -0.14920023996E+03 -0.31787408702E+03  0.37874128727E+03  0.12500219417E+03 0.  0.
          2    1    1    2  501    0 -0.13020596727E+02  0.29386316227E+02 -0.13330783402E+03  0.13712793345E+03  0.00000000000E+00 0. -1.
          1    1    1    2  502    0  0.80212615061E+02  0.11981392373E+03  0.11331651121E+04  0.11423014537E+04  0.00000000000E+00 0. -1.
         22    1    3    3    0    0  0.27101264367E+02 -0.37405986434E+02 -0.14564412053E+03  0.15279363925E+03  0.00000000000E+00 0. -1.
         22    1    3    3    0    0 -0.94293282701E+02 -0.11179425353E+03 -0.17222996649E+03  0.22594764801E+03  0.00000000000E+00 0. -1.
</event>
<event>
 7    1  0.1009502E-005  0.9053195E+02  0.7818608E-02  0.1404844E+00
          2   -1    0    0  502    0  0.00000000000E+00  0.00000000000E+00  0.89189392890E+03  0.89189392890E+03  0.00000000000E+00 0. -1.
          1   -1    0    0  501    0 -0.00000000000E+00 -0.00000000000E+00 -0.15527767993E+04  0.15527767993E+04  0.00000000000E+00 0. -1.
         25    2    1    2    0    0 -0.35478586203E+02  0.80893080526E+02 -0.34039617472E+03  0.37322553329E+03  0.12500128951E+03 0.  0.
          2    1    1    2  501    0 -0.31757196464E+02 -0.20170681149E+02 -0.11933248864E+04  0.11939177779E+04  0.00000000000E+00 0. -1.
          1    1    1    2  502    0  0.67235782667E+02 -0.60722399377E+02  0.87283819076E+03  0.87752741696E+03  0.00000000000E+00 0. -1.
         22    1    3    3    0    0 -0.13204790521E+02  0.14459549875E+02  0.54714971278E+01  0.20331806514E+02  0.00000000000E+00 0.  1.
         22    1    3    3    0    0 -0.22273795682E+02  0.66433530651E+02 -0.34586767185E+03  0.35289372678E+03  0.00000000000E+00 0.  1.
</event>
<event>
 7    1  0.8278507E-006  0.5740974E+02  0.7818608E-02  0.1474814E+00
          2   -1    0    0  502    0  0.00000000000E+00  0.00000000000E+00  0.31518158548E+03  0.31518158548E+03  0.00000000000E+00 0. -1.
          1   -1    0    0  501    0 -0.00000000000E+00 -0.00000000000E+00 -0.55972964547E+03  0.55972964547E+03  0.00000000000E+00 0. -1.
         25    2    1    2    0    0 -0.19628415203E+02 -0.11641804029E+02 -0.15392954413E+03  0.19959537717E+03  0.12499281478E+03 0.  0.
          2    1    1    2  501    0 -0.30519283956E+02 -0.17447045030E+02 -0.37927221350E+03  0.38089793647E+03  0.00000000000E+00 0. -1.
          1    1    1    2  502    0  0.50147699159E+02  0.29088849059E+02  0.28865369764E+03  0.29441791731E+03  0.00000000000E+00 0. -1.
         22    1    3    3    0    0  0.30995681088E+02 -0.52921982046E+02 -0.82534123186E+02  0.10282679573E+03  0.00000000000E+00 0.  1.
         22    1    3    3    0    0 -0.50624096291E+02  0.41280178018E+02 -0.71395420947E+02  0.96768581444E+02  0.00000000000E+00 0.  1.
</event>
<event>
 7    1  0.8278507E-006  0.1682712E+03  0.7818608E-02  0.1376589E+00
          2   -1    0    0  502    0  0.00000000000E+00  0.00000000000E+00  0.68371779202E+03  0.68371779202E+03  0.00000000000E+00 0. -1.
          1   -1    0    0  501    0 -0.00000000000E+00 -0.00000000000E+00 -0.65828157225E+02  0.65828157225E+02  0.00000000000E+00 0. -1.
         25    2    1    2    0    0 -0.93075225289E+02 -0.13440868955E+03  0.20896479412E+03  0.29329135823E+03  0.12499936898E+03 0.  0.
          2    1    1    2  501    0  0.11816374604E+03  0.13048047422E+03  0.34138087142E+03  0.38409468156E+03  0.00000000000E+00 0. -1.
          1    1    1    2  502    0 -0.25088520751E+02  0.39282153288E+01  0.67543969255E+02  0.72159909450E+02  0.00000000000E+00 0. -1.
         22    1    3    3    0    0 -0.11208406908E+03 -0.13616540895E+03  0.20992694984E+03  0.27417728098E+03  0.00000000000E+00 0.  1.
         22    1    3    3    0    0  0.19008843793E+02  0.17567194054E+01 -0.96215572704E+00  0.19114077248E+02  0.00000000000E+00 0.  1.
</event>
<event>
 7    1  0.8278507E-006  0.4939924E+02  0.7818608E-02  0.1528095E+00
          2   -1    0    0  502    0  0.00000000000E+00  0.00000000000E+00  0.25669213462E+03  0.25669213462E+03  0.00000000000E+00 0. -1.
          1   -1    0    0  501    0 -0.00000000000E+00 -0.00000000000E+00 -0.55500333566E+03  0.55500333566E+03  0.00000000000E+00 0. -1.
         25    2    1    2    0    0  0.36426109189E+02 -0.28333088529E+02  0.90186871719E+02  0.16090028448E+03  0.12500241749E+03 0.  0.
          2    1    1    2  501    0 -0.20249446554E+02 -0.19837784074E+02 -0.51431950765E+03  0.51510012008E+03  0.00000000000E+00 0. -1.
          1    1    1    2  502    0 -0.16176662634E+02  0.48170872603E+02  0.12582143489E+03  0.13569506571E+03  0.00000000000E+00 0. -1.
         22    1    3    3    0    0  0.72179678709E+02 -0.52701622253E+02  0.53419597817E+02  0.10412022108E+03  0.00000000000E+00 0. -1.
         22    1    3    3    0    0 -0.35753569520E+02  0.24368533724E+02  0.36767273903E+02  0.56780063399E+02  0.00000000000E+00 0. -1.
</event>
<event>
 7    1  0.8278507E-006  0.5115639E+02  0.7818608E-02  0.1510722E+00
          2   -1    0    0  502    0  0.00000000000E+00  0.00000000000E+00  0.10268211712E+04  0.10268211712E+04  0.00000000000E+00 0. -1.
          1   -1    0    0  501    0 -0.00000000000E+00 -0.00000000000E+00 -0.34433703084E+03  0.34433703084E+03  0.00000000000E+00 0. -1.
         25    2    1    2    0    0  0.15871464427E+02 -0.77051337434E+02 -0.27144116234E+03  0.30901902517E+03  0.12499456516E+03 0.  0.
          2    1    1    2  501    0 -0.16484835197E+02  0.25956236284E+02 -0.49034807888E+02  0.57878220239E+02  0.00000000000E+00 0. -1.
          1    1    1    2  502    0  0.61337077012E+00  0.51095101150E+02  0.10029601106E+04  0.10042609567E+04  0.00000000000E+00 0. -1.
         22    1    3    3    0    0 -0.39436890346E+02 -0.34400055077E+02 -0.36210014179E+02  0.63638017225E+02  0.00000000000E+00 0. -1.
         22    1    3    3    0    0  0.55308354773E+02 -0.42651282357E+02 -0.23523114816E+03  0.24538100794E+03  0.00000000000E+00 0. -1.
</event>
<event>
 7    1  0.8278507E-006  0.6387976E+02  0.7818608E-02  0.1489022E+00
          2   -1    0    0  502    0  0.00000000000E+00  0.00000000000E+00  0.16459161185E+04  0.16459161185E+04  0.00000000000E+00 0. -1.
          1   -1    0    0  501    0 -0.00000000000E+00 -0.00000000000E+00 -0.18855252392E+02  0.18855252392E+02  0.00000000000E+00 0. -1.
         25    2    1    2    0    0  0.67363808542E+02  0.46830190455E+02  0.82159385718E+03  0.83508793380E+03  0.12499776630E+03 0.  0.
          2    1    1    2  501    0 -0.38847733074E+02 -0.48807401515E+02  0.70400517097E+02  0.94061371535E+02  0.00000000000E+00 0. -1.
          1    1    1    2  502    0 -0.28516075468E+02  0.19772110600E+01  0.73506649185E+03  0.73562206558E+03  0.00000000000E+00 0. -1.
         22    1    3    3    0    0 -0.12873192176E+02 -0.33503311242E+02  0.20963004875E+03  0.21268038998E+03  0.00000000000E+00 0. -1.
         22    1    3    3    0    0  0.80237000718E+02  0.80333501697E+02  0.61196380843E+03  0.62240754382E+03  0.00000000000E+00 0. -1.
</event>
<event>
 7    1  0.8278507E-006  0.1027703E+03  0.7818608E-02  0.1417796E+00
          2   -1    0    0  502    0  0.00000000000E+00  0.00000000000E+00  0.16349036685E+04  0.16349036685E+04  0.00000000000E+00 0. -1.
          1   -1    0    0  501    0 -0.00000000000E+00 -0.00000000000E+00 -0.94651692316E+03  0.94651692316E+03  0.00000000000E+00 0. -1.
         25    2    1    2    0    0 -0.88317047859E+02 -0.28816938462E+02  0.43326752656E+03  0.46040839753E+03  0.12499930423E+03 0.  0.
          2    1    1    2  501    0  0.13029598512E+01 -0.29932896064E+02 -0.93038534303E+03  0.93086763962E+03  0.00000000000E+00 0. -1.
          1    1    1    2  502    0  0.87014088007E+02  0.58749834526E+02  0.11855045618E+04  0.11901445545E+04  0.00000000000E+00 0. -1.
         22    1    3    3    0    0  0.13527574393E+02 -0.45265879863E+02  0.19725125478E+03  0.20283010787E+03  0.00000000000E+00 0.  1.
         22    1    3    3    0    0 -0.10184462225E+03  0.16448941401E+02  0.23601627179E+03  0.25757828966E+03  0.00000000000E+00 0.  1.
</event>
<event>
 7    1  0.8278507E-006  0.4601677E+02  0.7818608E-02  0.1492364E+00
          2   -1    0    0  502    0  0.00000000000E+00  0.00000000000E+00  0.68132949249E+03  0.68132949249E+03  0.00000000000E+00 0. -1.
          1   -1    0    0  501    0 -0.00000000000E+00 -0.00000000000E+00 -0.26753726187E+04  0.26753726187E+04  0.00000000000E+00 0. -1.
         25    2    1    2    0    0 -0.49674118858E+02  0.57836202460E+01 -0.17103557761E+03  0.21766939785E+03  0.12500331838E+03 0.  0.
          2    1    1    2  501    0  0.27117516559E+02 -0.37314257009E+02 -0.24802344657E+04  0.24806633626E+04  0.00000000000E+00 0. -1.
          1    1    1    2  502    0  0.22556602299E+02  0.31530636763E+02  0.65722691715E+03  0.65836935074E+03  0.00000000000E+00 0. -1.
         22    1    3    3    0    0 -0.26907744594E+02  0.56181773724E+02 -0.14232225496E+03  0.15535778923E+03  0.00000000000E+00 0.  1.
         22    1    3    3    0    0 -0.22766374265E+02 -0.50398153478E+02 -0.28713322647E+02  0.62311608618E+02  0.00000000000E+00 0.  1.
</event>
<event>
 7    1  0.8278507E-006  0.1052062E+03  0.7818608E-02  0.1389368E+00
          2   -1    0    0  502    0  0.00000000000E+00  0.00000000000E+00  0.30864195093E+04  0.30864195093E+04  0.00000000000E+00 0. -1.
          1   -1    0    0  501    0 -0.00000000000E+00 -0.00000000000E+00 -0.55036360286E+02  0.55036360286E+02  0.00000000000E+00 0. -1.
         25    2    1    2    0    0 -0.61709904757E+02 -0.12213815525E+03  0.40208138377E+03  0.44273294633E+03  0.12496872117E+03 0.  0.
          2    1    1    2  501    0  0.33123847237E+01  0.36463209416E+02 -0.23752689274E+02  0.43643187111E+02  0.00000000000E+00 0. -1.
          1    1    1    2  502    0  0.58397520034E+02  0.85674945835E+02  0.26530544545E+04  0.26550797362E+04  0.00000000000E+00 0. -1.
         22    1    3    3    0    0 -0.59154398472E+02 -0.20691129795E+02  0.63280086541E+02  0.89060288926E+02  0.00000000000E+00 0.  1.
         22    1    3    3    0    0 -0.25555062851E+01 -0.10144702546E+03  0.33880129723E+03  0.35367265740E+03  0.00000000000E+00 0.  1.
</event>
<event>
 7    1  0.8278507E-006  0.1779985E+03  0.7818608E-02  0.1355276E+00
          2   -1    0    0  502    0  0.00000000000E+00  0.00000000000E+00  0.30110958718E+04  0.30110958718E+04  0.00000000000E+00 0. -1.
          1   -1    0    0  501    0 -0.00000000000E+00 -0.00000000000E+00 -0.22483553960E+03  0.22483553960E+03  0.00000000000E+00 0. -1.
         25    2    1    2    0    0  0.10611146375E+03 -0.10698860682E+03  0.16767988646E+04  0.16881901722E+04  0.12500168149E+03 0.  0.
          2    1    1    2  501    0 -0.13073999838E+03  0.12166441709E+03 -0.18256766227E+03  0.25539406584E+03  0.00000000000E+00 0. -1.
          1    1    1    2  502    0  0.24628534629E+02 -0.14675810264E+02  0.12920291299E+04  0.12923471734E+04  0.00000000000E+00 0. -1.
         22    1    3    3    0    0  0.93192421390E+01 -0.93693108878E+02  0.65531219235E+03  0.66204177842E+03  0.00000000000E+00 0.  1.
         22    1    3    3    0    0  0.96792221613E+02 -0.13295497943E+02  0.10214866722E+04  0.10261483937E+04  0.00000000000E+00 0.  1.
</event>
<event>
 7    1  0.8278507E-006  0.1585864E+03  0.7818608E-02  0.1270645E+00
          2   -1    0    0  502    0  0.00000000000E+00  0.00000000000E+00  0.12365371641E+04  0.12365371641E+04  0.00000000000E+00 0. -1.
          1   -1    0    0  501    0 -0.00000000000E+00 -0.00000000000E+00 -0.11724089374E+03  0.11724089374E+03  0.00000000000E+00 0. -1.
         25    2    1    2    0    0 -0.16681997643E+03  0.17512428447E+02  0.45025495009E+03  0.49647816442E+03  0.12500183189E+03 0.  0.
          2    1    1    2  501    0  0.29299794461E+02  0.62655779076E+02 -0.71713606008E+02  0.99634662110E+02  0.00000000000E+00 0. -1.
          1    1    1    2  502    0  0.13752018197E+03 -0.80168207523E+02  0.74075492628E+03  0.75766523132E+03  0.00000000000E+00 0. -1.
         22    1    3    3    0    0 -0.73546941442E+02 -0.53185680607E+02  0.16869564195E+03  0.19156223226E+03  0.00000000000E+00 0.  1.
         22    1    3    3    0    0 -0.93273034988E+02  0.70698109054E+02  0.28155930815E+03  0.30491593216E+03  0.00000000000E+00 0.  1.
</event>
<event>
 7    1  0.8278507E-006  0.7542684E+02  0.7818608E-02  0.1390417E+00
          2   -1    0    0  502    0  0.00000000000E+00  0.00000000000E+00  0.16697878945E+03  0.16697878945E+03  0.00000000000E+00 0. -1.
          1   -1    0    0  501    0 -0.00000000000E+00 -0.00000000000E+00 -0.59729703411E+03  0.59729703411E+03  0.00000000000E+00 0. -1.
         25    2    1    2    0    0 -0.22024346702E+02 -0.91937077124E+02 -0.17488278078E+03  0.23483337856E+03  0.12500092270E+03 0.  0.
          2    1    1    2  501    0 -0.31758141868E+02  0.39444310593E+02 -0.38032647192E+03  0.38368301820E+03  0.00000000000E+00 0. -1.
          1    1    1    2  502    0  0.53782488570E+02  0.52492766531E+02  0.12489100803E+03  0.14575942681E+03  0.00000000000E+00 0. -1.
         22    1    3    3    0    0 -0.21588216102E+02 -0.10264209768E+03 -0.18957078605E+03  0.21665302725E+03  0.00000000000E+00 0. -1.
         22    1    3    3    0    0 -0.43613059975E+00  0.10705020555E+02  0.14688005274E+02  0.18180351314E+02  0.00000000000E+00 0. -1.
</event>
<event>
 7    1  0.8278507E-006  0.6900897E+02  0.7818608E-02  0.1433211E+00
          2   -1    0    0  502    0  0.00000000000E+00  0.00000000000E+00  0.43114971556E+03  0.43114971556E+03  0.00000000000E+00 0. -1.
          1   -1    0    0  501    0 -0.00000000000E+00 -0.00000000000E+00 -0.12601835233E+03  0.12601835233E+03  0.00000000000E+00 0. -1.
         25    2    1    2    0    0  0.87306784368E+02 -0.60937767174E+02  0.40636889568E+02  0.16914918879E+03  0.12499682079E+03 0.  0.
          2    1    1    2  501    0 -0.34090101904E+02  0.20284218249E+02 -0.51499838635E+02  0.65006291520E+02  0.00000000000E+00 0. -1.
          1    1    1    2  502    0 -0.53216682464E+02  0.40653548925E+02  0.31599431229E+03  0.32301258758E+03  0.00000000000E+00 0. -1.
         22    1    3    3    0    0  0.20979883029E+02 -0.82389610121E+02 -0.60754640680E+01  0.85235641673E+02  0.00000000000E+00 0. -1.
         22    1    3    3    0    0  0.66326901339E+02  0.21451842947E+02  0.46712353636E+02  0.83913547114E+02  0.00000000000E+00 0. -1.
</event>
<event>
 7    1  0.8278507E-006  0.7375154E+02  0.7818608E-02  0.1431290E+00
          2   -1    0    0  502    0  0.00000000000E+00  0.00000000000E+00  0.14781378939E+03  0.14781378939E+03  0.00000000000E+00 0. -1.
          1   -1    0    0  501    0 -0.00000000000E+00 -0.00000000000E+00 -0.40768668580E+03  0.40768668580E+03  0.00000000000E+00 0. -1.
         25    2    1    2    0    0 -0.79290107566E+01 -0.61271132774E+02  0.19632174515E+02  0.14081794262E+03  0.12500899874E+03 0.  0.
          2    1    1    2  501    0 -0.28941022551E+02  0.68944266722E+02 -0.33741690155E+03  0.34560245970E+03  0.00000000000E+00 0. -1.
          1    1    1    2  502    0  0.36870033307E+02 -0.76731339484E+01  0.57911830623E+02  0.69080072863E+02  0.00000000000E+00 0. -1.
         22    1    3    3    0    0 -0.69814801268E+01  0.26497222156E+01 -0.47519514205E+02  0.48102664405E+02  0.00000000000E+00 0.  1.
         22    1    3    3    0    0 -0.94753062986E+00 -0.63920854990E+02  0.67151688720E+02  0.92715278217E+02  0.00000000000E+00 0.  1.
</event>
<event>
 7    1  0.8278507E-006  0.1568127E+03  0.7818608E-02  0.1378093E+00
          2   -1    0    0  502    0  0.00000000000E+00  0.00000000000E+00  0.45098513126E+03  0.45098513126E+03  0.00000000000E+00 0. -1.
          1   -1    0    0  501    0 -0.00000000000E+00 -0.00000000000E+00 -0.12756613549E+04  0.12756613549E+04  0.00000000000E+00 0. -1.
         25    2    1    2    0    0  0.61346503364E+02  0.12847765989E+03 -0.18794374541E+03  0.26686581287E+03  0.12499843229E+03 0.  0.
          2    1    1    2  501    0 -0.47946878006E+02 -0.15182152361E+03 -0.10417618727E+04  0.10538579020E+04  0.00000000000E+00 0. -1.
          1    1    1    2  502    0 -0.13399625358E+02  0.23343863722E+02  0.40502939445E+03  0.40592277135E+03  0.00000000000E+00 0. -1.
         22    1    3    3    0    0  0.55474188125E+02  0.32960715412E+02 -0.10659497537E+02  0.65401981593E+02  0.00000000000E+00 0.  1.
         22    1    3    3    0    0  0.58723152390E+01  0.95516944477E+02 -0.17728424787E+03  0.20146383128E+03  0.00000000000E+00 0.  1.
</event>
<event>
 7    1  0.8278507E-006  0.1057194E+03  0.7818608E-02  0.1367162E+00
          2   -1    0    0  502    0  0.00000000000E+00  0.00000000000E+00  0.98082151168E+03  0.98082151168E+03  0.00000000000E+00 0. -1.
          1   -1    0    0  501    0 -0.00000000000E+00 -0.00000000000E+00 -0.65013410928E+03  0.65013410928E+03  0.00000000000E+00 0. -1.
         25    2    1    2    0    0 -0.57427193132E+02 -0.30315774883E+02  0.71486750679E+02  0.15796271270E+03  0.12499973745E+03 0.  0.
          2    1    1    2  501    0  0.10039125550E+03  0.38247518194E+02 -0.60158353340E+03  0.61110066641E+03  0.00000000000E+00 0. -1.
          1    1    1    2  502    0 -0.42964062368E+02 -0.79317433107E+01  0.86078418512E+03  0.86189224185E+03  0.00000000000E+00 0. -1.
         22    1    3    3    0    0 -0.28066702339E+02 -0.77522161701E+02  0.26977849693E+02  0.86748081875E+02  0.00000000000E+00 0. -1.
         22    1    3    3    0    0 -0.29360490793E+02  0.47206386818E+02  0.44508900986E+02  0.71214630821E+02  0.00000000000E+00 0. -1.
</event>
<event>
 7    1  0.8278507E-006  0.9685758E+02  0.7818608E-02  0.1376243E+00
          2   -1    0    0  502    0  0.00000000000E+00  0.00000000000E+00  0.63477667026E+03  0.63477667026E+03  0.00000000000E+00 0. -1.
          1   -1    0    0  501    0 -0.00000000000E+00 -0.00000000000E+00 -0.26367923656E+03  0.26367923656E+03  0.00000000000E+00 0. -1.
         25    2    1    2    0    0 -0.90926041802E+02  0.52876374610E+02  0.11977012356E+03  0.20256813759E+03  0.12500204718E+03 0.  0.
          2    1    1    2  501    0 -0.55546286119E+01 -0.43892483122E+02 -0.21504836431E+03  0.21955227843E+03  0.00000000000E+00 0. -1.
          1    1    1    2  502    0  0.96480670414E+02 -0.89838914877E+01  0.46637567446E+03  0.47633549080E+03  0.00000000000E+00 0. -1.
         22    1    3    3    0    0 -0.10868834982E+03  0.56161088885E+02  0.52876338101E+02  0.13327840194E+03  0.00000000000E+00 0. -1.
         22    1    3    3    0    0  0.17762308020E+02 -0.32847142750E+01  0.66893785457E+02  0.69289735653E+02  0.00000000000E+00 0. -1.
</event>
<event>
 7    1  0.8278507E-006  0.5470264E+02  0.7818608E-02  0.1434626E+00
          2   -1    0    0  502    0  0.00000000000E+00  0.00000000000E+00  0.22995441376E+04  0.22995441376E+04  0.00000000000E+00 0. -1.
          1   -1    0    0  501    0 -0.00000000000E+00 -0.00000000000E+00 -0.10040637577E+04  0.10040637577E+04  0.00000000000E+00 0. -1.
         25    2    1    2    0    0  0.37073432271E+01  0.19427461155E+02  0.31493621278E+03  0.33941168227E+03  0.12499720517E+03 0.  0.
          2    1    1    2  501    0 -0.46531138836E+02  0.16919823332E+02 -0.99080784074E+03  0.99204415455E+03  0.00000000000E+00 0. -1.
          1    1    1    2  502    0  0.42823795609E+02 -0.36347284487E+02  0.19713520079E+04  0.19721520584E+04  0.00000000000E+00 0. -1.
         22    1    3    3    0    0  0.26305649918E+02  0.76293860555E+01  0.42928515994E+01  0.27724056775E+02  0.00000000000E+00 0.  1.
         22    1    3    3    0    0 -0.22598306691E+02  0.11798075100E+02  0.31064336118E+03  0.31168762550E+03  0.00000000000E+00 0.  1.
</event>
<event>
 7    1  0.8278507E-006  0.1077525E+03  0.7818608E-02  0.1341327E+00
          2   -1    0    0  502    0  0.00000000000E+00  0.00000000000E+00  0.33295004064E+04  0.33295004064E+04  0.00000000000E+00 0. -1.
          1   -1    0    0  501    0 -0.00000000000E+00 -0.00000000000E+00 -0.11496898803E+03  0.11496898803E+03  0.00000000000E+00 0. -1.
         25    2    1    2    0    0 -0.40951960359E+02 -0.65204247089E+02  0.89030573712E+03  0.90232918769E+03  0.12500000207E+03 0.  0.
          2    1    1    2  501    0  0.20993545865E+02 -0.49058181127E+02 -0.10095356081E+03  0.11418868396E+03  0.00000000000E+00 0. -1.
          1    1    1    2  502    0  0.19958414494E+02  0.11426242822E+03  0.24251792420E+04  0.24279515227E+04  0.00000000000E+00 0. -1.
         22    1    3    3    0    0 -0.37229754716E+02  0.32228814578E+02  0.31163029990E+03  0.31549674315E+03  0.00000000000E+00 0.  1.
         22    1    3    3    0    0 -0.37222056426E+01 -0.97433061667E+02  0.57867543722E+03  0.58683244454E+03  0.00000000000E+00 0.  1.
</event>
<event>
 7    1  0.8278507E-006  0.2604224E+03  0.7818608E-02  0.1224938E+00
          2   -1    0    0  502    0  0.00000000000E+00  0.00000000000E+00  0.24994088803E+03  0.24994088803E+03  0.00000000000E+00 0. -1.
          1   -1    0    0  501    0 -0.00000000000E+00 -0.00000000000E+00 -0.24932288165E+04  0.24932288165E+04  0.00000000000E+00 0. -1.
         25    2    1    2    0    0 -0.13785141651E+03  0.26551899137E+03 -0.21789696897E+03  0.39064853293E+03  0.12499535743E+03 0.  0.
          2    1    1    2  501    0 -0.11021736155E+02 -0.65696500226E+02 -0.20932133016E+04  0.20942730087E+04  0.00000000000E+00 0. -1.
          1    1    1    2  502    0  0.14887315266E+03 -0.19982249115E+03  0.67822342139E+02  0.25824816291E+03  0.00000000000E+00 0. -1.
         22    1    3    3    0    0 -0.68246986876E+02  0.20189597636E+03 -0.20456654958E+03  0.29541007040E+03  0.00000000000E+00 0.  1.
         22    1    3    3    0    0 -0.69604429632E+02  0.63623015011E+02 -0.13330419395E+02  0.95238462528E+02  0.00000000000E+00 0.  1.
</event>
<event>
 7    1  0.8278507E-006  0.1642407E+03  0.7818608E-02  0.1372928E+00
          2   -1    0    0  502    0  0.00000000000E+00  0.00000000000E+00  0.11179751587E+04  0.11179751587E+04  0.00000000000E+00 0. -1.
          1   -1    0    0  501    0 -0.00000000000E+00 -0.00000000000E+00 -0.27599317205E+03  0.27599317205E+03  0.00000000000E+00 0. -1.
         25    2    1    2    0    0 -0.17401710058E+03 -0.50257589027E+02 -0.16509698650E+03  0.27511892321E+03  0.12500252159E+03 0.  0.
          2    1    1    2  501    0  0.23153773046E+02 -0.13520030407E+02 -0.45927270776E+02  0.53180848333E+02  0.00000000000E+00 0. -1.
          1    1    1    2  502    0  0.15086332753E+03  0.63777619434E+02  0.10530062439E+04  0.10656685592E+04  0.00000000000E+00 0. -1.
         22    1    3    3    0    0 -0.13241241415E+03 -0.16766447901E+02 -0.40376036597E+02  0.13944312650E+03  0.00000000000E+00 0. -1.
         22    1    3    3    0    0 -0.41604686430E+02 -0.33491141126E+02 -0.12472094991E+03  0.13567579671E+03  0.00000000000E+00 0. -1.
</event>
<event>
 7    1  0.8278507E-006  0.4812992E+02  0.7818608E-02  0.1457755E+00
          2   -1    0    0  502    0  0.00000000000E+00  0.00000000000E+00  0.12829076105E+04  0.12829076105E+04  0.00000000000E+00 0. -1.
          1   -1    0    0  501    0 -0.00000000000E+00 -0.00000000000E+00 -0.67833695896E+03  0.67833695896E+03  0.00000000000E+00 0. -1.
         25    2    1    2    0    0  0.78161119273E+00 -0.28956550524E+02 -0.75927423913E+02  0.14909411657E+03  0.12499995664E+03 0.  0.
          2    1    1    2  501    0  0.45217616790E+02  0.14258877924E+02 -0.56436401220E+03  0.56635208725E+03  0.00000000000E+00 0. -1.
          1    1    1    2  502    0 -0.45999227983E+02  0.14697672600E+02  0.12448620877E+04  0.12457983657E+04  0.00000000000E+00 0. -1.
         22    1    3    3    0    0 -0.54931053670E+02 -0.40588286361E+00 -0.65737467325E+02  0.85667963724E+02  0.00000000000E+00 0. -1.
         22    1    3    3    0    0  0.55712664863E+02 -0.28550667660E+02 -0.10189956588E+02  0.63426152849E+02  0.00000000000E+00 0. -1.
</event>
<event>
 7    1  0.8278507E-006  0.1364419E+03  0.7818608E-02  0.1293730E+00
          2   -1    0    0  502    0  0.00000000000E+00  0.00000000000E+00  0.11243870345E+04  0.11243870345E+04  0.00000000000E+00 0. -1.
          1   -1    0    0  501    0 -0.00000000000E+00 -0.00000000000E+00 -0.53909909080E+03  0.53909909080E+03  0.00000000000E+00 0. -1.
         25    2    1    2    0    0 -0.16227914876E+03  0.21428528786E+02  0.18243565888E+03  0.27513976691E+03  0.12500167093E+03 0.  0.
          2    1    1    2  501    0  0.32140416403E+02 -0.56023098985E+02 -0.48553474354E+03  0.48981178137E+03  0.00000000000E+00 0. -1.
          1    1    1    2  502    0  0.13013873236E+03  0.34594570198E+02  0.88838702833E+03  0.89853457699E+03  0.00000000000E+00 0. -1.
         22    1    3    3    0    0 -0.13825913379E+03 -0.32655160053E+02  0.15388803759E+03  0.20943608970E+03  0.00000000000E+00 0.  1.
         22    1    3    3    0    0 -0.24020014969E+02  0.54083688840E+02  0.28547621288E+02  0.65703677209E+02  0.00000000000E+00 0.  1.
</event>
<event>
 7    1  0.8278507E-006  0.9487386E+02  0.7818608E-02  0.1327859E+00
          2   -1    0    0  502    0  0.00000000000E+00  0.00000000000E+00  0.62941005419E+03  0.62941005419E+03  0.00000000000E+00 0. -1.
          1   -1    0    0  501    0 -0.00000000000E+00 -0.00000000000E+00 -0.15486221616E+04  0.15486221616E+04  0.00000000000E+00 0. -1.
         25    2    1    2    0    0  0.28741797397E+02  0.24261502086E+02 -0.12720872376E+02  0.13115417488E+03  0.12499954238E+03 0.  0.
          2    1    1    2  501    0 -0.95809013215E+02 -0.12042976260E+02 -0.14730605823E+04  0.14762221647E+04  0.00000000000E+00 0. -1.
          1    1    1    2  502    0  0.67067215817E+02 -0.12218525826E+02  0.56656934728E+03  0.57065587624E+03  0.00000000000E+00 0. -1.
         22    1    3    3    0    0 -0.28914279141E+02  0.57148079049E+02 -0.89819061995E+01  0.64673125147E+02  0.00000000000E+00 0.  1.
         22    1    3    3    0    0  0.57656076538E+02 -0.32886576963E+02 -0.37389661760E+01  0.66481049737E+02  0.00000000000E+00 0.  1.
</event>
<event>
 7    1  0.8278507E-006  0.2233161E+03  0.7818608E-02  0.1252026E+00
          2   -1    0    0  502    0  0.00000000000E+00  0.00000000000E+00  0.22403577950E+04  0.22403577950E+04  0.00000000000E+00 0. -1.
          1   -1    0    0  501    0 -0.00000000000E+00 -0.00000000000E+00 -0.52843736201E+03  0.52843736201E+03  0.00000000000E+00 0. -1.
         25    2    1    2    0    0  0.94936062066E+02  0.21183413606E+03  0.82510806854E+02  0.27624403434E+03  0.12496469973E+03 0.  0.
          2    1    1    2  501    0  0.45080972648E+02 -0.37998500171E+02 -0.42347876863E+03  0.42756338429E+03  0.00000000000E+00 0. -1.
          1    1    1    2  502    0 -0.14001703471E+03 -0.17383563589E+03  0.20528883948E+04  0.20649877384E+04  0.00000000000E+00 0. -1.
         22    1    3    3    0    0  0.62032722090E+02  0.20112388813E+03  0.10476245148E+03  0.23510433477E+03  0.00000000000E+00 0. -1.
         22    1    3    3    0    0  0.32903339976E+02  0.10710247930E+02 -0.22251644627E+02  0.41139699572E+02  0.00000000000E+00 0. -1.
</event>
<event>
 7    1  0.8278507E-006  0.1229944E+03  0.7818608E-02  0.1308174E+00
          2   -1    0    0  502    0  0.00000000000E+00  0.00000000000E+00  0.53233902628E+03  0.53233902628E+03  0.00000000000E+00 0. -1.
          1   -1    0    0  501    0 -0.00000000000E+00 -0.00000000000E+00 -0.21198242948E+04  0.21198242948E+04  0.00000000000E+00 0. -1.
         25    2    1    2    0    0 -0.11547034621E+03  0.12717482677E+03  0.80040246172E+02  0.22702056062E+03  0.12500022608E+03 0.  0.
          2    1    1    2  501    0  0.19458391040E+02 -0.59635943308E+02 -0.20367454666E+04  0.20377112579E+04  0.00000000000E+00 0. -1.
          1    1    1    2  502    0  0.96011955170E+02 -0.67538883466E+02  0.36921995191E+03  0.38743150259E+03  0.00000000000E+00 0. -1.
         22    1    3    3    0    0 -0.13404299705E+03  0.11226683968E+03  0.38343416299E+02  0.17900163665E+03  0.00000000000E+00 0. -1.
         22    1    3    3    0    0  0.18572650839E+02  0.14907987099E+02  0.41696829873E+02  0.48018923978E+02  0.00000000000E+00 0. -1.
</event>
<event>
 7    1  0.8278507E-006  0.3491570E+02  0.7818608E-02  0.1620738E+00
          2   -1    0    0  502    0  0.00000000000E+00  0.00000000000E+00  0.30003881912E+04  0.30003881912E+04  0.00000000000E+00 0. -1.
          1   -1    0    0  501    0 -0.00000000000E+00 -0.00000000000E+00 -0.28154431803E+02  0.28154431803E+02  0.00000000000E+00 0. -1.
         25    2    1    2    0    0  0.23063722471E+02 -0.52275958246E+02  0.47722648080E+03  0.49662292460E+03  0.12499801660E+03 0.  0.
          2    1    1    2  501    0 -0.82113986649E+01  0.20979684002E+02 -0.11416254100E+02  0.25256782585E+02  0.00000000000E+00 0. -1.
          1    1    1    2  502    0 -0.14852323807E+02  0.31296274244E+02  0.25064235326E+04  0.25066629158E+04  0.00000000000E+00 0. -1.
         22    1    3    3    0    0 -0.40325427957E+02 -0.12157583183E+02  0.31604302171E+03  0.31883716619E+03  0.00000000000E+00 0. -1.
         22    1    3    3    0    0  0.63389150428E+02 -0.40118375064E+02  0.16118345909E+03  0.17778575841E+03  0.00000000000E+00 0. -1.
</event>
<event>
 7    1  0.8278507E-006  0.1446454E+03  0.7818608E-02  0.1297592E+00
          2   -1    0    0  502    0  0.00000000000E+00  0.00000000000E+00  0.17316920326E+03  0.17316920326E+03  0.00000000000E+00 0. -1.
          1   -1    0    0  501    0 -0.00000000000E+00 -0.00000000000E+00 -0.40810558244E+04  0.40810558244E+04  0.00000000000E+00 0. -1.
         25    2    1    2    0    0 -0.13729545654E+03  0.40439727336E+02 -0.82510943730E+01  0.19020767748E+03  0.12500186431E+03 0.  0.
          2    1    1    2  501    0  0.20902463059E+02  0.54937770898E+02 -0.39125433628E+04  0.39129848757E+04  0.00000000000E+00 0. -1.
          1    1    1    2  502    0  0.11639299349E+03 -0.95377498235E+02  0.12907836073E+02  0.15103247444E+03  0.00000000000E+00 0. -1.
         22    1    3    3    0    0 -0.28212872912E+02  0.59650322710E+02  0.30725514491E+02  0.72788628495E+02  0.00000000000E+00 0.  1.
         22    1    3    3    0    0 -0.10908258363E+03 -0.19210595374E+02 -0.38976608864E+02  0.11741904899E+03  0.00000000000E+00 0.  1.
</event>
<event>
 7    1  0.8278507E-006  0.9177675E+02  0.7818608E-02  0.1479131E+00
          2   -1    0    0  502    0  0.00000000000E+00  0.00000000000E+00  0.23886178115E+04  0.23886178115E+04  0.00000000000E+00 0. -1.
          1   -1    0    0  501    0 -0.00000000000E+00 -0.00000000000E+00 -0.20827675922E+03  0.20827675922E+03  0.00000000000E+00 0. -1.
         25    2    1    2    0    0 -0.91068327882E+02  0.12054092524E+02  0.22209597144E+03  0.27091036597E+03  0.12500825721E+03 0.  0.
          2    1    1    2  501    0  0.52272950253E+01  0.20676661514E+02 -0.18226249817E+03  0.18350604128E+03  0.00000000000E+00 0. -1.
          1    1    1    2  502    0  0.85841032856E+02 -0.32730754038E+02  0.21405075790E+04  0.21424781634E+04  0.00000000000E+00 0. -1.
         22    1    3    3    0    0 -0.63151395494E+02 -0.77910601325E+01  0.22750354345E+03  0.23623433631E+03  0.00000000000E+00 0. -1.
         22    1    3    3    0    0 -0.27916932388E+02  0.19845152656E+02 -0.54075720087E+01  0.34676029659E+02  0.00000000000E+00 0. -1.
</event>
<event>
 7    1  0.8278507E-006  0.4597482E+02  0.7818608E-02  0.1486720E+00
          2   -1    0    0  502    0  0.00000000000E+00  0.00000000000E+00  0.10970251469E+03  0.10970251469E+03  0.00000000000E+00 0. -1.
          1   -1    0    0  501    0 -0.00000000000E+00 -0.00000000000E+00 -0.78667831381E+03  0.78667831381E+03  0.00000000000E+00 0. -1.
         25    2    1    2    0    0 -0.55133034143E+01 -0.12150225132E+02 -0.64301720722E+03  0.65519077818E+03  0.12500321013E+03 0.  0.
          2    1    1    2  501    0  0.29722022742E+02 -0.27305776019E+02 -0.12916629833E+03  0.13532529942E+03  0.00000000000E+00 0. -1.
          1    1    1    2  502    0 -0.24208719328E+02  0.39456001152E+02  0.95207706428E+02  0.10586475089E+03  0.00000000000E+00 0. -1.
         22    1    3    3    0    0 -0.42769212012E+02  0.19192565937E+02 -0.10517184239E+03  0.11514632654E+03  0.00000000000E+00 0. -1.
         22    1    3    3    0    0  0.37255908598E+02 -0.31342791069E+02 -0.53784536483E+03  0.54004445164E+03  0.00000000000E+00 0. -1.
</event>
<event>
 7    1  0.8278507E-006  0.1515818E+03  0.7818608E-02  0.1297195E+00
          2   -1    0    0  502    0  0.00000000000E+00  0.00000000000E+00  0.29356085871E+04  0.29356085871E+04  0.00000000000E+00 0. -1.
          1   -1    0    0  501    0 -0.00000000000E+00 -0.00000000000E+00 -0.36504346862E+03  0.36504346862E+03  0.00000000000E+00 0. -1.
         25    2    1    2    0    0 -0.51142867375E+02  0.14214227381E+03  0.23195914354E+03  0.30372753439E+03  0.12500140793E+03 0.  0.
          2    1    1    2  501    0 -0.42482240641E+01 -0.15220045009E+03 -0.31123653120E+03  0.34648405846E+03  0.00000000000E+00 0. -1.
          1    1    1    2  502    0  0.55391091439E+02  0.10058176280E+02  0.26498425061E+04  0.26504404628E+04  0.00000000000E+00 0. -1.
         22    1    3    3    0    0 -0.41036658270E+02  0.65733775291E+01  0.88931804567E+01  0.42500650263E+02  0.00000000000E+00 0. -1.
         22    1    3    3    0    0 -0.10106209105E+02  0.13556889629E+03  0.22306596309E+03  0.26122688413E+03  0.00000000000E+00 0. -1.
</event>
<event>
 7    1  0.8278507E-006  0.1572053E+03  0.7818608E-02  0.1270240E+00
          2   -1    0    0  502    0  0.00000000000E+00  0.00000000000E+00  0.21295230584E+03  0.21295230584E+03  0.00000000000E+00 0. -1.
          1   -1    0    0  501    0 -0.00000000000E+00 -0.00000000000E+00 -0.14718470206E+04  0.14718470206E+04  0.00000000000E+00 0. -1.
         25    2    1    2    0    0 -0.14871948486E+03  0.22844996276E+02  0.62486065446E+02  0.20535185874E+03  0.12500199390E+03 0.  0.
          2    1    1    2  501    0  0.15072310760E+03  0.47175817074E+02 -0.13794482644E+04  0.13884597679E+04  0.00000000000E+00 0. -1.
          1    1    1    2  502    0 -0.20036227384E+01 -0.70020813350E+02  0.58067484168E+02  0.90987699850E+02  0.00000000000E+00 0. -1.
         22    1    3    3    0    0 -0.13109172843E+01 -0.19074772352E+02 -0.22967497401E+02  0.29884299913E+02  0.00000000000E+00 0.  1.
         22    1    3    3    0    0 -0.14740856758E+03  0.41919768628E+02  0.85453562848E+02  0.17546755883E+03  0.00000000000E+00 0.  1.
</event>
<event>
 7    1  0.8278507E-006  0.8025454E+02  0.7818608E-02  0.1491273E+00
          2   -1    0    0  502    0  0.00000000000E+00  0.00000000000E+00  0.36133040372E+04  0.36133040372E+04  0.00000000000E+00 0. -1.
          1   -1    0    0  501    0 -0.00000000000E+00 -0.00000000000E+00 -0.42886967779E+02  0.42886967779E+02  0.00000000000E+00 0. -1.
         25    2    1    2    0    0  0.78077538448E+01 -0.85283429273E+02  0.97314882353E+03  0.98487388170E+03  0.12499482309E+03 0.  0.
          2    1    1    2  501    0  0.19905989979E+02  0.10268461754E+02 -0.32972627209E+02  0.39860806425E+02  0.00000000000E+00 0. -1.
          1    1    1    2  502    0 -0.27713743824E+02  0.75014967519E+02  0.26302408731E+04  0.26314563169E+04  0.00000000000E+00 0. -1.
         22    1    3    3    0    0  0.99607487660E+01  0.18586369182E+02  0.34085537056E+02  0.40081086210E+02  0.00000000000E+00 0. -1.
         22    1    3    3    0    0 -0.21529949212E+01 -0.10386979846E+03  0.93906328647E+03  0.94479279549E+03  0.00000000000E+00 0. -1.
</event>
<event>
 7    1  0.8278507E-006  0.1286004E+03  0.7818608E-02  0.1319168E+00
          2   -1    0    0  502    0  0.00000000000E+00  0.00000000000E+00  0.12838624472E+04  0.12838624472E+04  0.00000000000E+00 0. -1.
          1   -1    0    0  501    0 -0.00000000000E+00 -0.00000000000E+00 -0.14854589577E+04  0.14854589577E+04  0.00000000000E+00 0. -1.
         25    2    1    2    0    0  0.38385069129E+02  0.70636148341E+02  0.75105346065E+02  0.16651255902E+03  0.12499096095E+03 0.  0.
          2    1    1    2  501    0 -0.85510478116E+02 -0.97672992345E+02 -0.14361917630E+04  0.14420467521E+04  0.00000000000E+00 0. -1.
          1    1    1    2  502    0  0.47125408987E+02  0.27036844004E+02  0.11594899064E+04  0.11607620937E+04  0.00000000000E+00 0. -1.
         22    1    3    3    0    0  0.51898726107E+02  0.86039708985E+02  0.94762868260E+02  0.13811701740E+03  0.00000000000E+00 0. -1.
         22    1    3    3    0    0 -0.13513656978E+02 -0.15403560644E+02 -0.19657522195E+02  0.28395541627E+02  0.00000000000E+00 0. -1.
</event>
<event>
 7    1  0.8278507E-006  0.7878553E+02  0.7818608E-02  0.1456466E+00
          2   -1    0    0  502    0  0.00000000000E+00  0.00000000000E+00  0.10538791808E+04  0.10538791808E+04  0.00000000000E+00 0. -1.
          1   -1    0    0  501    0 -0.00000000000E+00 -0.00000000000E+00 -0.36482093195E+02  0.36482093195E+02  0.00000000000E+00 0. -1.
         25    2    1    2    0    0  0.98020506217E+02 -0.34449899223E+02  0.51233676335E+03  0.53750259875E+03  0.12500107758E+03 0.  0.
          2    1    1    2  501    0 -0.68901153096E+02  0.31819719564E+02  0.37984509869E+02  0.84868642272E+02  0.00000000000E+00 0. -1.
          1    1    1    2  502    0 -0.29119353121E+02  0.26301796590E+01  0.46707581440E+03  0.46799003298E+03  0.00000000000E+00 0. -1.
         22    1    3    3    0    0  0.87424375046E+02 -0.17900936383E+01  0.15064106941E+03  0.17418081863E+03  0.00000000000E+00 0. -1.
         22    1    3    3    0    0  0.10596131171E+02 -0.32659805585E+02  0.36169569394E+03  0.36332178012E+03  0.00000000000E+00 0. -1.
</event>
<event>
 7    1  0.8278507E-006  0.7252791E+02  0.7818608E-02  0.1480106E+00
          2   -1    0    0  502    0  0.00000000000E+00  0.00000000000E+00  0.57669433750E+03  0.57669433750E+03  0.00000000000E+00 0. -1.
          1   -1    0    0  501    0 -0.00000000000E+00 -0.00000000000E+00 -0.16077061575E+03  0.16077061575E+03  0.00000000000E+00 0. -1.
         25    2    1    2    0    0  0.38902770326E+02 -0.53509320369E+02  0.10588657079E+03  0.17666975203E+03  0.12499424988E+03 0.  0.
          2    1    1    2  501    0  0.22937404742E+02  0.13864586995E+02 -0.12080162812E+03  0.12373917999E+03  0.00000000000E+00 0. -1.
          1    1    1    2  502    0 -0.61840175068E+02  0.39644733374E+02  0.43083877907E+03  0.43705602122E+03  0.00000000000E+00 0. -1.
         22    1    3    3    0    0  0.77000745280E+02 -0.53774547863E+02  0.10155316307E+03  0.13832520270E+03  0.00000000000E+00 0.  1.
         22    1    3    3    0    0 -0.38097974955E+02  0.26522749481E+00  0.43334077253E+01  0.38344549336E+02  0.00000000000E+00 0.  1.
</event>
<event>
 7    1  0.8278507E-006  0.5901020E+02  0.7818608E-02  0.1412933E+00
          2   -1    0    0  502    0  0.00000000000E+00  0.00000000000E+00  0.55002213679E+02  0.55002213679E+02  0.00000000000E+00 0. -1.
          1   -1    0    0  501    0 -0.00000000000E+00 -0.00000000000E+00 -0.19398113915E+04  0.19398113915E+04  0.00000000000E+00 0. -1.
         25    2    1    2    0    0  0.90673564444E+02  0.23732397814E+02 -0.84811068159E+03  0.86238155140E+03  0.12500115987E+03 0.  0.
          2    1    1    2  501    0 -0.54198967978E+02  0.16333412333E+02 -0.10682395634E+04  0.10697383201E+04  0.00000000000E+00 0. -1.
          1    1    1    2  502    0 -0.36474596466E+02 -0.40065810146E+02  0.31541067200E+02  0.62693733739E+02  0.00000000000E+00 0. -1.
         22    1    3    3    0    0  0.14218231610E+02 -0.37712668256E+02 -0.99200515191E+02  0.10707542048E+03  0.00000000000E+00 0. -1.
         22    1    3    3    0    0  0.76455332834E+02  0.61445066070E+02 -0.74891016640E+03  0.75530613092E+03  0.00000000000E+00 0. -1.
</event>
<event>
 7    1  0.8278507E-006  0.1011500E+03  0.7818608E-02  0.1346860E+00
          2   -1    0    0  502    0  0.00000000000E+00  0.00000000000E+00  0.31243564590E+04  0.31243564590E+04  0.00000000000E+00 0. -1.
          1   -1    0    0  501    0 -0.00000000000E+00 -0.00000000000E+00 -0.15617133319E+04  0.15617133319E+04  0.00000000000E+00 0. -1.
         25    2    1    2    0    0 -0.43157497370E+02 -0.35811406520E+02  0.14551006831E+02  0.13777210973E+03  0.12499758400E+03 0.  0.
          2    1    1    2  501    0 -0.53953039363E+02  0.51732818188E+01 -0.14987623502E+04  0.14997420698E+04  0.00000000000E+00 0. -1.
          1    1    1    2  502    0  0.97110536733E+02  0.30638124701E+02  0.30468544705E+04  0.30485556113E+04  0.00000000000E+00 0. -1.
         22    1    3    3    0    0 -0.24776162860E+02  0.34796363045E+02 -0.30078796377E+02  0.52243460057E+02  0.00000000000E+00 0.  1.
         22    1    3    3    0    0 -0.18381334511E+02 -0.70607769565E+02  0.44629803208E+02  0.85528649678E+02  0.00000000000E+00 0.  1.
</event>
<event>
 7    1  0.8278507E-006  0.1212749E+03  0.7818608E-02  0.1249593E+00
          2   -1    0    0  502    0  0.00000000000E+00  0.00000000000E+00  0.62529787178E+02  0.62529787178E+02  0.00000000000E+00 0. -1.
          1   -1    0    0  501    0 -0.00000000000E+00 -0.00000000000E+00 -0.32058168959E+04  0.32058168959E+04  0.00000000000E+00 0. -1.
         25    2    1    2    0    0  0.20354680682E+02 -0.12180953167E+03 -0.16156467135E+03  0.23870442039E+03  0.12499912900E+03 0.  0.
          2    1    1    2  501    0  0.10147402533E+03  0.45565924105E+02 -0.27785524149E+04  0.27807780843E+04  0.00000000000E+00 0. -1.
          1    1    1    2  502    0 -0.12182870601E+03  0.76243607565E+02 -0.20317002246E+03  0.24886417848E+03  0.00000000000E+00 0. -1.
         22    1    3    3    0    0 -0.15681074088E+02 -0.13477813543E+03 -0.11119978542E+03  0.17543213546E+03  0.00000000000E+00 0.  1.
         22    1    3    3    0    0  0.36035754770E+02  0.12968603757E+02 -0.50364885927E+02  0.63272284925E+02  0.00000000000E+00 0.  1.
</event>
<event>
 7    1  0.8278507E-006  0.3937022E+02  0.7818608E-02  0.1540985E+00
          2   -1    0    0  502    0  0.00000000000E+00  0.00000000000E+00  0.63093375783E+02  0.63093375783E+02  0.00000000000E+00 0. -1.
          1   -1    0    0  501    0 -0.00000000000E+00 -0.00000000000E+00 -0.91102749642E+03  0.91102749642E+03  0.00000000000E+00 0. -1.
         25    2    1    2    0    0  0.10196988695E+02 -0.15664740529E+02 -0.42777223720E+03  0.44604745327E+03  0.12497952220E+03 0.  0.
          2    1    1    2  501    0 -0.41603047250E+02  0.66082401709E+01 -0.46813344195E+03  0.47002489493E+03  0.00000000000E+00 0. -1.
          1    1    1    2  502    0  0.31406058555E+02  0.90565003578E+01  0.47971558519E+02  0.58048524007E+02  0.00000000000E+00 0. -1.
         22    1    3    3    0    0  0.37971537898E+02  0.42435917904E+02 -0.26394293785E+03  0.27001577594E+03  0.00000000000E+00 0. -1.
         22    1    3    3    0    0 -0.27774549203E+02 -0.58100658433E+02 -0.16382929936E+03  0.17603167732E+03  0.00000000000E+00 0. -1.
</event>
<event>
 7    1  0.8278507E-006  0.6828372E+02  0.7818608E-02  0.1377508E+00
          2   -1    0    0  502    0  0.00000000000E+00  0.00000000000E+00  0.59603272543E+03  0.59603272543E+03  0.00000000000E+00 0. -1.
          1   -1    0    0  501    0 -0.00000000000E+00 -0.00000000000E+00 -0.31104000350E+03  0.31104000350E+03  0.00000000000E+00 0. -1.
         25    2    1    2    0    0  0.11406777493E+03 -0.51013849544E+02  0.30644349687E+03  0.35376267915E+03  0.12500618490E+03 0.  0.
          2    1    1    2  501    0 -0.66783568184E+02  0.10742836007E+02 -0.27966613106E+03  0.28773007901E+03  0.00000000000E+00 0. -1.
          1    1    1    2  502    0 -0.47284206742E+02  0.40271013537E+02  0.25821535612E+03  0.26557997077E+03  0.00000000000E+00 0. -1.
         22    1    3    3    0    0  0.12413491877E+03 -0.28624276661E+01  0.18575344776E+03  0.22343234973E+03  0.00000000000E+00 0. -1.
         22    1    3    3    0    0 -0.10067143840E+02 -0.48151421878E+02  0.12069004911E+03  0.13033032943E+03  0.00000000000E+00 0. -1.
</event>
<event>
 7    1  0.9235329E-006  0.8786178E+02  0.7818608E-02  0.1312302E+00
          2   -1    0    0  502    0  0.00000000000E+00  0.00000000000E+00  0.12921583685E+04  0.12921583685E+04  0.00000000000E+00 0. -1.
          1   -1    0    0  501    0 -0.00000000000E+00 -0.00000000000E+00 -0.84187687327E+03  0.84187687327E+03  0.00000000000E+00 0. -1.
         25    2    1    2    0    0  0.16256312884E+03 -0.75414453074E+01 -0.26079996365E+03  0.33185027688E+03  0.12499736386E+03 0.  0.
          2    1    1    2  501    0 -0.78434960365E+02  0.31668152711E+02 -0.54073595272E+03  0.54731187221E+03  0.00000000000E+00 0. -1.
          1    1    1    2  502    0 -0.84128168471E+02 -0.24126707404E+02  0.12518174116E+04  0.12548730927E+04  0.00000000000E+00 0. -1.
         22    1    3    3    0    0  0.23700628475E+02 -0.18269742197E+02  0.63348243967E+01  0.30588123025E+02  0.00000000000E+00 0. -1.
         22    1    3    3    0    0  0.13886250036E+03  0.10728296889E+02 -0.26713478804E+03  0.30126215385E+03  0.00000000000E+00 0. -1.
</event>
<event>
 7    1  0.8278507E-006  0.5485560E+02  0.7818608E-02  0.1453357E+00
          2   -1    0    0  502    0  0.00000000000E+00  0.00000000000E+00  0.43560329822E+02  0.43560329822E+02  0.00000000000E+00 0. -1.
          1   -1    0    0  501    0 -0.00000000000E+00 -0.00000000000E+00 -0.10691679083E+04  0.10691679083E+04  0.00000000000E+00 0. -1.
         25    2    1    2    0    0  0.33575915751E+02  0.88858987986E+02 -0.35642357283E+03  0.38947515935E+03  0.12501949694E+03 0.  0.
          2    1    1    2  501    0 -0.16684800995E+02 -0.39585937874E+02 -0.66978555099E+03  0.67116176394E+03  0.00000000000E+00 0. -1.
          1    1    1    2  502    0 -0.16891114756E+02 -0.49273050112E+02  0.60154533485E+00  0.52091314840E+02  0.00000000000E+00 0. -1.
         22    1    3    3    0    0 -0.21561281519E+02  0.93664981675E+02 -0.17327981847E+03  0.19815123805E+03  0.00000000000E+00 0.  1.
         22    1    3    3    0    0  0.55137197270E+02 -0.48059936891E+01 -0.18314375437E+03  0.19132392130E+03  0.00000000000E+00 0.  1.
</event>
<event>
 7    1  0.8278507E-006  0.2333752E+03  0.7818608E-02  0.1257092E+00
          2   -1    0    0  502    0  0.00000000000E+00  0.00000000000E+00  0.22953532192E+04  0.22953532192E+04  0.00000000000E+00 0. -1.
          1   -1    0    0  501    0 -0.00000000000E+00 -0.00000000000E+00 -0.20049339358E+03  0.20049339358E+03  0.00000000000E+00 0. -1.
         25    2    1    2    0    0 -0.17660742353E+03  0.10892609804E+03  0.64320125105E+03  0.68730077171E+03  0.12497769623E+03 0.  0.
          2    1    1    2  501    0 -0.73095237972E+01  0.53153991996E+02 -0.16494957893E+03  0.17345644869E+03  0.00000000000E+00 0. -1.
          1    1    1    2  502    0  0.18391694732E+03 -0.16208009003E+03  0.16166081535E+04  0.16350893924E+04  0.00000000000E+00 0. -1.
         22    1    3    3    0    0 -0.18571492866E+03  0.94195797735E+02  0.48052447860E+03  0.52370474274E+03  0.00000000000E+00 0.  1.
         22    1    3    3    0    0  0.91075051342E+01  0.14730300303E+02  0.16267677245E+03  0.16359602896E+03  0.00000000000E+00 0.  1.
</event>
<event>
 7    1  0.8278507E-006  0.2434123E+03  0.7818608E-02  0.1232046E+00
          2   -1    0    0  502    0  0.00000000000E+00  0.00000000000E+00  0.24738973603E+04  0.24738973603E+04  0.00000000000E+00 0. -1.
          1   -1    0    0  501    0 -0.00000000000E+00 -0.00000000000E+00 -0.52288972163E+03  0.52288972163E+03  0.00000000000E+00 0. -1.
         25    2    1    2    0    0  0.23750713192E+03 -0.15242486119E+03  0.55958623392E+03  0.63906400042E+03  0.12499226944E+03 0.  0.
          2    1    1    2  501    0 -0.22539823012E+03  0.87326712973E+02 -0.45228529230E+03  0.51282775137E+03  0.00000000000E+00 0. -1.
          1    1    1    2  502    0 -0.12108901794E+02  0.65098148221E+02  0.18437066971E+04  0.18448953302E+04  0.00000000000E+00 0. -1.
         22    1    3    3    0    0  0.14190557022E+03 -0.15647944264E+03  0.35269562762E+03  0.41111703026E+03  0.00000000000E+00 0. -1.
         22    1    3    3    0    0  0.95601561698E+02  0.40545814497E+01  0.20689060630E+03  0.22794697016E+03  0.00000000000E+00 0. -1.
</event>
<event>
 7    1  0.8278507E-006  0.4486135E+02  0.7818608E-02  0.1573585E+00
          2   -1    0    0  502    0  0.00000000000E+00  0.00000000000E+00  0.24530696002E+02  0.24530696002E+02  0.00000000000E+00 0. -1.
          1   -1    0    0  501    0 -0.00000000000E+00 -0.00000000000E+00 -0.13829346244E+04  0.13829346244E+04  0.00000000000E+00 0. -1.
         25    2    1    2    0    0  0.25779620511E+02  0.25227724107E+02 -0.26164298985E+03  0.29219744639E+03  0.12498506568E+03 0.  0.
          2    1    1    2  501    0 -0.11530106244E+02  0.20261211697E+02 -0.10436180446E+04  0.10438783852E+04  0.00000000000E+00 0. -1.
          1    1    1    2  502    0 -0.14249514267E+02 -0.45488935804E+02 -0.53142893957E+02  0.71389488831E+02  0.00000000000E+00 0. -1.
         22    1    3    3    0    0  0.16423248752E+02 -0.17553804732E+01 -0.26308392441E+03  0.26360188874E+03  0.00000000000E+00 0.  1.
         22    1    3    3    0    0  0.93563717592E+01  0.26983104580E+02  0.14409345630E+01  0.28595557657E+02  0.00000000000E+00 0.  1.
</event>
<event>
 7    1  0.8278507E-006  0.1104125E+03  0.7818608E-02  0.1391993E+00
          2   -1    0    0  502    0  0.00000000000E+00  0.00000000000E+00  0.82506281947E+03  0.82506281947E+03  0.00000000000E+00 0. -1.
          1   -1    0    0  501    0 -0.00000000000E+00 -0.00000000000E+00 -0.43275857495E+03  0.43275857495E+03  0.00000000000E+00 0. -1.
         25    2    1    2    0    0  0.10543776927E+03  0.24719391347E+02 -0.41198271406E+02  0.17043999424E+03  0.12499729026E+03 0.  0.
          2    1    1    2  501    0 -0.10660852932E+02  0.32453451223E+02 -0.32200351015E+03  0.32381034701E+03  0.00000000000E+00 0. -1.
          1    1    1    2  502    0 -0.94776916335E+02 -0.57172842570E+02  0.75550602608E+03  0.76357105317E+03  0.00000000000E+00 0. -1.
         22    1    3    3    0    0  0.96035607834E+02  0.65312344387E+02 -0.66806007778E+01  0.11633215690E+03  0.00000000000E+00 0. -1.
         22    1    3    3    0    0  0.94021614333E+01 -0.40592953041E+02 -0.34517670628E+02  0.54107837341E+02  0.00000000000E+00 0. -1.
</event>
<event>
 7    1  0.8278507E-006  0.2528915E+03  0.7818608E-02  0.1260749E+00
          2   -1    0    0  502    0  0.00000000000E+00  0.00000000000E+00  0.23667454653E+04  0.23667454653E+04  0.00000000000E+00 0. -1.
          1   -1    0    0  501    0 -0.00000000000E+00 -0.00000000000E+00 -0.18643191495E+03  0.18643191495E+03  0.00000000000E+00 0. -1.
         25    2    1    2    0    0  0.20863914988E+03 -0.36540285028E+02  0.59888141383E+02  0.25313267537E+03  0.12499629821E+03 0.  0.
          2    1    1    2  501    0  0.39486709788E+02 -0.26871222258E+02 -0.75443708571E+02  0.89291746531E+02  0.00000000000E+00 0. -1.
          1    1    1    2  502    0 -0.24812585967E+03  0.63411507286E+02  0.21958691175E+04  0.22107529583E+04  0.00000000000E+00 0. -1.
         22    1    3    3    0    0  0.18322954292E+03 -0.37734964702E+02  0.94968684851E+02  0.20980000968E+03  0.00000000000E+00 0. -1.
         22    1    3    3    0    0  0.25409606960E+02  0.11946796737E+01 -0.35080543468E+02  0.43332665685E+02  0.00000000000E+00 0. -1.
</event>
<event>
 7    1  0.8278507E-006  0.1035099E+03  0.7818608E-02  0.1297281E+00
          2   -1    0    0  502    0  0.00000000000E+00  0.00000000000E+00  0.30056176329E+04  0.30056176329E+04  0.00000000000E+00 0. -1.
          1   -1    0    0  501    0 -0.00000000000E+00 -0.00000000000E+00 -0.40620723314E+03  0.40620723314E+03  0.00000000000E+00 0. -1.
         25    2    1    2    0    0  0.15160725500E+03  0.91170167470E+02 -0.22463419322E+02  0.21777716451E+03  0.12500211586E+03 0.  0.
          2    1    1    2  501    0 -0.90631439674E+02 -0.35782432261E+02 -0.27718806697E+03  0.29381569867E+03  0.00000000000E+00 0. -1.
          1    1    1    2  502    0 -0.60975815328E+02 -0.55387735210E+02  0.28990618860E+04  0.29002320028E+04  0.00000000000E+00 0. -1.
         22    1    3    3    0    0  0.47686742215E+01  0.44182187993E+02  0.31457920130E+02  0.54446365614E+02  0.00000000000E+00 0.  1.
         22    1    3    3    0    0  0.14683858078E+03  0.46987979477E+02 -0.53921339452E+02  0.16333079890E+03  0.00000000000E+00 0.  1.
</event>
<event>
 7    1  0.8278507E-006  0.8590074E+02  0.7818608E-02  0.1361291E+00
          2   -1    0    0  502    0  0.00000000000E+00  0.00000000000E+00  0.84408498763E+03  0.84408498763E+03  0.00000000000E+00 0. -1.
          1   -1    0    0  501    0 -0.00000000000E+00 -0.00000000000E+00 -0.34640118367E+03  0.34640118367E+03  0.00000000000E+00 0. -1.
         25    2    1    2    0    0 -0.38923843608E+02 -0.13301676056E+03  0.58355215990E+02  0.19554959545E+03  0.12500315538E+03 0.  0.
          2    1    1    2  501    0  0.31909325582E+02  0.76982093029E+02 -0.27040768511E+03  0.28295717675E+03  0.00000000000E+00 0. -1.
          1    1    1    2  502    0  0.70145180259E+01  0.56034667535E+02  0.70973627308E+03  0.71197939910E+03  0.00000000000E+00 0. -1.
         22    1    3    3    0    0 -0.59766514674E+02 -0.59088706628E+02  0.79703409149E+02  0.11582808363E+03  0.00000000000E+00 0. -1.
         22    1    3    3    0    0  0.20842671066E+02 -0.73928053936E+02 -0.21348193159E+02  0.79721511821E+02  0.00000000000E+00 0. -1.
</event>
<event>
 7    1  0.8278507E-006  0.5610618E+02  0.7818608E-02  0.1470452E+00
          2   -1    0    0  502    0  0.00000000000E+00  0.00000000000E+00  0.12000078207E+04  0.12000078207E+04  0.00000000000E+00 0. -1.
          1   -1    0    0  501    0 -0.00000000000E+00 -0.00000000000E+00 -0.36031182268E+03  0.36031182268E+03  0.00000000000E+00 0. -1.
         25    2    1    2    0    0  0.79436098676E+02  0.29581068470E+02  0.46968494501E+02  0.15816373971E+03  0.12499838278E+03 0.  0.
          2    1    1    2  501    0 -0.55497221423E+02 -0.12267355490E+01 -0.30186902613E+03  0.30693053840E+03  0.00000000000E+00 0. -1.
          1    1    1    2  502    0 -0.23938877254E+02 -0.28354332921E+02  0.10945965297E+04  0.10952253653E+04  0.00000000000E+00 0. -1.
         22    1    3    3    0    0 -0.43681425222E+00  0.41356730556E+02  0.63472014482E+02  0.75757947381E+02  0.00000000000E+00 0.  1.
         22    1    3    3    0    0  0.79872912929E+02 -0.11775662086E+02 -0.16503519980E+02  0.82405792327E+02  0.00000000000E+00 0.  1.
</event>
<event>
 7    1  0.8278507E-006  0.6829507E+02  0.7818608E-02  0.1426860E+00
          2   -1    0    0  502    0  0.00000000000E+00  0.00000000000E+00  0.13424786538E+04  0.13424786538E+04  0.00000000000E+00 0. -1.
          1   -1    0    0  501    0 -0.00000000000E+00 -0.00000000000E+00 -0.29806174047E+02  0.29806174047E+02  0.00000000000E+00 0. -1.
         25    2    1    2    0    0 -0.80099969516E+00  0.39437475544E+02  0.62262300706E+03  0.63627048010E+03  0.12499903535E+03 0.  0.
          2    1    1    2  501    0 -0.23759542901E+02  0.34706057825E+02  0.50745851333E+00  0.42062855855E+02  0.00000000000E+00 0. -1.
          1    1    1    2  502    0  0.24560542596E+02 -0.74143533369E+02  0.68954201420E+03  0.69395149192E+03  0.00000000000E+00 0. -1.
         22    1    3    3    0    0 -0.39991909579E+02  0.58636405558E+02  0.51902922872E+03  0.52385963879E+03  0.00000000000E+00 0. -1.
         22    1    3    3    0    0  0.39190909884E+02 -0.19198930014E+02  0.10359377835E+03  0.11241084131E+03  0.00000000000E+00 0. -1.
</event>
<event>
 7    1  0.8278507E-006  0.6248197E+02  0.7818608E-02  0.1526532E+00
          2   -1    0    0  502    0  0.00000000000E+00  0.00000000000E+00  0.83113825923E+03  0.83113825923E+03  0.00000000000E+00 0. -1.
          1   -1    0    0  501    0 -0.00000000000E+00 -0.00000000000E+00 -0.92326753208E+03  0.92326753208E+03  0.00000000000E+00 0. -1.
         25    2    1    2    0    0 -0.77229993941E+02 -0.26353173933E+02 -0.32661432042E+01  0.14931202035E+03  0.12499779994E+03 0.  0.
          2    1    1    2  501    0  0.61357302190E+02  0.10202176410E+02 -0.84566692162E+03  0.84795126349E+03  0.00000000000E+00 0. -1.
          1    1    1    2  502    0  0.15872691751E+02  0.16150997523E+02  0.75680379198E+03  0.75714250747E+03  0.00000000000E+00 0. -1.
         22    1    3    3    0    0 -0.80343074451E+02 -0.41730081057E+02  0.43168058283E+02  0.10029900564E+03  0.00000000000E+00 0. -1.
         22    1    3    3    0    0  0.31130805105E+01  0.15376907124E+02 -0.46434201487E+02  0.49013014707E+02  0.00000000000E+00 0. -1.
</event>
<event>
 7    1  0.1009710E-005  0.1102620E+03  0.7818608E-02  0.1395243E+00
          2   -1    0    0  502    0  0.00000000000E+00  0.00000000000E+00  0.17291515178E+04  0.17291515178E+04  0.00000000000E+00 0. -1.
          1   -1    0    0  501    0 -0.00000000000E+00 -0.00000000000E+00 -0.13466633978E+04  0.13466633978E+04  0.00000000000E+00 0. -1.
         25    2    1    2    0    0  0.53811646206E+02  0.12932299765E+03 -0.41184857213E+03  0.45261936720E+03  0.12499965682E+03 0.  0.
          2    1    1    2  501    0 -0.23779610510E+02 -0.23352829696E+02 -0.91234992158E+03  0.91295848971E+03  0.00000000000E+00 0. -1.
          1    1    1    2  502    0 -0.30032035696E+02 -0.10597016796E+03  0.17066866137E+04  0.17102370587E+04  0.00000000000E+00 0. -1.
         22    1    3    3    0    0 -0.10820213594E+02  0.12185428497E+03 -0.28161326307E+03  0.30703676282E+03  0.00000000000E+00 0. -1.
         22    1    3    3    0    0  0.64631859801E+02  0.74687126853E+01 -0.13023530906E+03  0.14558260438E+03  0.00000000000E+00 0. -1.
</event>
<event>
 7    1  0.8278507E-006  0.1065572E+03  0.7818608E-02  0.1320535E+00
          2   -1    0    0  502    0  0.00000000000E+00  0.00000000000E+00  0.35269829836E+03  0.35269829836E+03  0.00000000000E+00 0. -1.
          1   -1    0    0  501    0 -0.00000000000E+00 -0.00000000000E+00 -0.74110798987E+03  0.74110798987E+03  0.00000000000E+00 0. -1.
         25    2    1    2    0    0  0.51109487732E+02 -0.27852836097E+02 -0.39135943892E+03  0.41494067024E+03  0.12500235668E+03 0.  0.
          2    1    1    2  501    0  0.41836808883E+01 -0.64637924369E+02 -0.32617761488E+03  0.33254684016E+03  0.00000000000E+00 0. -1.
          1    1    1    2  502    0 -0.55293168620E+02  0.92490760466E+02  0.32912736229E+03  0.34631877783E+03  0.00000000000E+00 0. -1.
         22    1    3    3    0    0  0.55507744802E+02 -0.31329380498E+01 -0.38506201093E+03  0.38905485127E+03  0.00000000000E+00 0.  1.
         22    1    3    3    0    0 -0.43982570702E+01 -0.24719898047E+02 -0.62974279901E+01  0.25885818975E+02  0.00000000000E+00 0.  1.
</event>
<event>
 7    1  0.8278507E-006  0.9234245E+02  0.7818608E-02  0.1464100E+00
          2   -1    0    0  502    0  0.00000000000E+00  0.00000000000E+00  0.23242496814E+03  0.23242496814E+03  0.00000000000E+00 0. -1.
          1   -1    0    0  501    0 -0.00000000000E+00 -0.00000000000E+00 -0.40628211250E+03  0.40628211250E+03  0.00000000000E+00 0. -1.
         25    2    1    2    0    0  0.90245902857E+02  0.59618705382E+02  0.40531231254E+02  0.17019431364E+03  0.12499844269E+03 0.  0.
          2    1    1    2  501    0 -0.83714540974E+02 -0.36940096936E+02 -0.33414796010E+03  0.34644993054E+03  0.00000000000E+00 0. -1.
          1    1    1    2  502    0 -0.65313618830E+01 -0.22678608445E+02  0.11975958448E+03  0.12206283646E+03  0.00000000000E+00 0. -1.
         22    1    3    3    0    0  0.54107187206E+02  0.86699537735E+02 -0.96886538191E+01  0.10265606443E+03  0.00000000000E+00 0. -1.
         22    1    3    3    0    0  0.36138715650E+02 -0.27080832353E+02  0.50219885073E+02  0.67538249211E+02  0.00000000000E+00 0. -1.
</event>
<event>
 7    1  0.8278507E-006  0.1407926E+03  0.7818608E-02  0.1417229E+00
          2   -1    0    0  502    0  0.00000000000E+00  0.00000000000E+00  0.27585634298E+04  0.27585634298E+04  0.00000000000E+00 0. -1.
          1   -1    0    0  501    0 -0.00000000000E+00 -0.00000000000E+00 -0.12285318250E+04  0.12285318250E+04  0.00000000000E+00 0. -1.
         25    2    1    2    0    0 -0.14377003686E+03  0.44719971955E+02  0.17148483162E+04  0.17259778932E+04  0.12500096260E+03 0.  0.
          2    1    1    2  501    0  0.13882829237E+03 -0.23317143298E+02 -0.12187989968E+04  0.12269017803E+04  0.00000000000E+00 0. -1.
          1    1    1    2  502    0  0.49417444935E+01 -0.21402828656E+02  0.10339822854E+04  0.10342155812E+04  0.00000000000E+00 0. -1.
         22    1    3    3    0    0 -0.79235648281E+02  0.66599579256E+02  0.58573963503E+03  0.59481485520E+03  0.00000000000E+00 0. -1.
         22    1    3    3    0    0 -0.64534388580E+02 -0.21879607301E+02  0.11291086812E+04  0.11311630380E+04  0.00000000000E+00 0. -1.
</event>
<event>
 7    1  0.8278507E-006  0.1306525E+03  0.7818608E-02  0.1283743E+00
          2   -1    0    0  502    0  0.00000000000E+00  0.00000000000E+00  0.64253562433E+03  0.64253562433E+03  0.00000000000E+00 0. -1.
          1   -1    0    0  501    0 -0.00000000000E+00 -0.00000000000E+00 -0.14525122552E+03  0.14525122552E+03  0.00000000000E+00 0. -1.
         25    2    1    2    0    0  0.12805559469E+02  0.77186694772E+02  0.10653023589E+03  0.18192337597E+03  0.12500262142E+03 0.  0.
          2    1    1    2  501    0 -0.30208810069E+01 -0.15061439295E+03 -0.50155244481E+02  0.15877458749E+03  0.00000000000E+00 0. -1.
          1    1    1    2  502    0 -0.97846784617E+01  0.73427698175E+02  0.44090940740E+03  0.44708888638E+03  0.00000000000E+00 0. -1.
         22    1    3    3    0    0  0.35270816788E+02 -0.22360439568E+02  0.13654483613E+02  0.43937053808E+02  0.00000000000E+00 0.  1.
         22    1    3    3    0    0 -0.22465257319E+02  0.99547134340E+02  0.92875752278E+02  0.13798632216E+03  0.00000000000E+00 0.  1.
</event>
<event>
 7    1  0.8278507E-006  0.1705347E+03  0.7818608E-02  0.1213507E+00
          2   -1    0    0  502    0  0.00000000000E+00  0.00000000000E+00  0.37778375755E+02  0.37778375755E+02  0.00000000000E+00 0. -1.
          1   -1    0    0  501    0 -0.00000000000E+00 -0.00000000000E+00 -0.36155393623E+04  0.36155393623E+04  0.00000000000E+00 0. -1.
         25    2    1    2    0    0 -0.13871661100E+03 -0.17283570169E+03 -0.14137129281E+04  0.14364277065E+04  0.12500334014E+03 0.  0.
          2    1    1    2  501    0  0.15119802582E+03  0.58800915626E+02 -0.20455077284E+04  0.20519308609E+04  0.00000000000E+00 0. -1.
          1    1    1    2  502    0 -0.12481414827E+02  0.11403478606E+03 -0.11854033001E+03  0.16495917067E+03  0.00000000000E+00 0. -1.
         22    1    3    3    0    0  0.27302474236E+01  0.63902010224E+01 -0.27307094818E+03  0.27315935214E+03  0.00000000000E+00 0. -1.
         22    1    3    3    0    0 -0.14144685842E+03 -0.17922590271E+03 -0.11406419799E+04  0.11632683543E+04  0.00000000000E+00 0. -1.
</event>
<event>
 7    1  0.8278507E-006  0.8230832E+02  0.7818608E-02  0.1418533E+00
          2   -1    0    0  502    0  0.00000000000E+00  0.00000000000E+00  0.98338698078E+03  0.98338698078E+03  0.00000000000E+00 0. -1.
          1   -1    0    0  501    0 -0.00000000000E+00 -0.00000000000E+00 -0.34728244010E+03  0.34728244010E+03  0.00000000000E+00 0. -1.
         25    2    1    2    0    0 -0.82704743916E+02  0.83914509484E+02 -0.61608705264E+02  0.18247966534E+03  0.12498590373E+03 0.  0.
          2    1    1    2  501    0  0.20073023779E+02 -0.31316867058E+02 -0.22187503022E+03  0.22497155705E+03  0.00000000000E+00 0. -1.
          1    1    1    2  502    0  0.62631720137E+02 -0.52597642426E+02  0.91958827617E+03  0.92321819849E+03  0.00000000000E+00 0. -1.
         22    1    3    3    0    0  0.25440346831E+02 -0.14869863630E+01 -0.33079984049E+02  0.41757726471E+02  0.00000000000E+00 0. -1.
         22    1    3    3    0    0 -0.10814509075E+03  0.85401495847E+02 -0.28528721214E+02  0.14072193887E+03  0.00000000000E+00 0. -1.
</event>
<event>
 7    1  0.8278507E-006  0.1074057E+03  0.7818608E-02  0.1298583E+00
          2   -1    0    0  502    0  0.00000000000E+00  0.00000000000E+00  0.16026874228E+04  0.16026874228E+04  0.00000000000E+00 0. -1.
          1   -1    0    0  501    0 -0.00000000000E+00 -0.00000000000E+00 -0.22283338258E+04  0.22283338258E+04  0.00000000000E+00 0. -1.
         25    2    1    2    0    0 -0.10774578775E+03 -0.23474683994E+02 -0.22224680744E+02  0.16815713944E+03  0.12499068583E+03 0.  0.
          2    1    1    2  501    0  0.44951073051E+02 -0.64280406618E+02 -0.21305173219E+04  0.21319607475E+04  0.00000000000E+00 0. -1.
          1    1    1    2  502    0  0.62794714699E+02  0.87755090613E+02  0.15270955997E+04  0.15309033617E+04  0.00000000000E+00 0. -1.
         22    1    3    3    0    0 -0.55575523974E+02 -0.54208918605E+02 -0.58825192116E+02  0.97404563285E+02  0.00000000000E+00 0. -1.
         22    1    3    3    0    0 -0.52170263776E+02  0.30734234611E+02  0.36600511372E+02  0.70752576153E+02  0.00000000000E+00 0. -1.
</event>
<event>
 7    1  0.1098207E-005  0.6591283E+02  0.7818608E-02  0.1419107E+00
          2   -1    0    0  502    0  0.00000000000E+00  0.00000000000E+00  0.18131974112E+04  0.18131974112E+04  0.00000000000E+00 0. -1.
          1   -1    0    0  501    0 -0.00000000000E+00 -0.00000000000E+00 -0.80527218983E+03  0.80527218983E+03  0.00000000000E+00 0. -1.
         25    2    1    2    0    0  0.75473364328E+01 -0.30872021486E+02 -0.28669322824E+03  0.31436602964E+03  0.12499179764E+03 0.  0.
          2    1    1    2  501    0 -0.45906150840E+02  0.56703412740E+02 -0.50180710790E+03  0.50708285835E+03  0.00000000000E+00 0. -1.
          1    1    1    2  502    0  0.38358814408E+02 -0.25831391254E+02  0.17964255575E+04  0.17970207131E+04  0.00000000000E+00 0. -1.
         22    1    3    3    0    0 -0.20591545758E+02 -0.47987674612E+02 -0.40776752703E+02  0.66253846925E+02  0.00000000000E+00 0. -1.
         22    1    3    3    0    0  0.28138882191E+02  0.17115653126E+02 -0.24591647553E+03  0.24811218271E+03  0.00000000000E+00 0. -1.
</event>
<event>
 7    1  0.8278507E-006  0.1427237E+03  0.7818608E-02  0.1361861E+00
          2   -1    0    0  502    0  0.00000000000E+00  0.00000000000E+00  0.10960857919E+04  0.10960857919E+04  0.00000000000E+00 0. -1.
          1   -1    0    0  501    0 -0.00000000000E+00 -0.00000000000E+00 -0.50194452236E+03  0.50194452236E+03  0.00000000000E+00 0. -1.
         25    2    1    2    0    0 -0.13112624228E+03 -0.88166582902E+02 -0.23381104039E+03  0.30864058804E+03  0.12499588882E+03 0.  0.
          2    1    1    2  501    0  0.31089963081E+02 -0.13328790994E+02 -0.22465097709E+03  0.22718341485E+03  0.00000000000E+00 0. -1.
          1    1    1    2  502    0  0.10003627920E+03  0.10149537390E+03  0.10526032870E+04  0.10622063114E+04  0.00000000000E+00 0. -1.
         22    1    3    3    0    0 -0.83556686664E+01  0.21375417157E+02 -0.80646570816E+02  0.83848643650E+02  0.00000000000E+00 0.  1.
         22    1    3    3    0    0 -0.12277057361E+03 -0.10954200006E+03 -0.15316446957E+03  0.22479194439E+03  0.00000000000E+00 0.  1.
</event>
<event>
 7    1  0.8278507E-006  0.1134566E+03  0.7818608E-02  0.1308023E+00
          2   -1    0    0  502    0  0.00000000000E+00  0.00000000000E+00  0.75052971033E+03  0.75052971033E+03  0.00000000000E+00 0. -1.
          1   -1    0    0  501    0 -0.00000000000E+00 -0.00000000000E+00 -0.87411557281E+03  0.87411557281E+03  0.00000000000E+00 0. -1.
         25    2    1    2    0    0 -0.16502557077E+03 -0.50326659024E+01  0.26666535275E+03  0.33762749410E+03  0.12499259051E+03 0.  0.
          2    1    1    2  501    0  0.62310761455E+02  0.27470166438E+02 -0.83105952789E+03  0.83384481765E+03  0.00000000000E+00 0. -1.
          1    1    1    2  502    0  0.10271480931E+03 -0.22437500535E+02  0.44080831266E+03  0.45317297138E+03  0.00000000000E+00 0. -1.
         22    1    3    3    0    0 -0.57695578961E+02 -0.53757880419E+02  0.57713332803E+02  0.97721636919E+02  0.00000000000E+00 0.  1.
         22    1    3    3    0    0 -0.10732999181E+03  0.48725214517E+02  0.20895201995E+03  0.23990585718E+03  0.00000000000E+00 0.  1.
</event>
<event>
 7    1  0.8278507E-006  0.3226874E+02  0.7818608E-02  0.1643168E+00
          2   -1    0    0  502    0  0.00000000000E+00  0.00000000000E+00  0.63632251674E+03  0.63632251674E+03  0.00000000000E+00 0. -1.
          1   -1    0    0  501    0 -0.00000000000E+00 -0.00000000000E+00 -0.12857773485E+03  0.12857773485E+03  0.00000000000E+00 0. -1.
         25    2    1    2    0    0 -0.14446644642E+02 -0.43662988630E+02  0.11753312412E+03  0.17763395559E+03  0.12499849916E+03 0.  0.
          2    1    1    2  501    0  0.17903047024E+02  0.11751096345E+02 -0.96829098637E+02  0.99168955328E+02  0.00000000000E+00 0. -1.
          1    1    1    2  502    0 -0.34564023827E+01  0.31911892285E+02  0.48704075639E+03  0.48809734068E+03  0.00000000000E+00 0. -1.
         22    1    3    3    0    0  0.47074658447E+02 -0.16246475447E+02  0.93838510483E+02  0.10623388105E+03  0.00000000000E+00 0.  1.
         22    1    3    3    0    0 -0.61521303088E+02 -0.27416513183E+02  0.23694613641E+02  0.71400074541E+02  0.00000000000E+00 0.  1.
</event>
<event>
 7    1  0.8278507E-006  0.3842623E+02  0.7818608E-02  0.1584162E+00
          2   -1    0    0  502    0  0.00000000000E+00  0.00000000000E+00  0.30241311471E+03  0.30241311471E+03  0.00000000000E+00 0. -1.
          1   -1    0    0  501    0 -0.00000000000E+00 -0.00000000000E+00 -0.93912181608E+03  0.93912181608E+03  0.00000000000E+00 0. -1.
         25    2    1    2    0    0 -0.57469353261E+02 -0.27881341426E+02 -0.79258981078E+03  0.80492433043E+03  0.12499789519E+03 0.  0.
          2    1    1    2  501    0  0.22781371755E+02  0.11441621320E+02 -0.13794841884E+03  0.14028423952E+03  0.00000000000E+00 0. -1.
          1    1    1    2  502    0  0.34687981506E+02  0.16439720106E+02  0.29382952825E+03  0.29632636084E+03  0.00000000000E+00 0. -1.
         22    1    3    3    0    0  0.26803095074E+02 -0.67883353823E+01 -0.48881649045E+02  0.56159620869E+02  0.00000000000E+00 0. -1.
         22    1    3    3    0    0 -0.84272448335E+02 -0.21093006044E+02 -0.74370816173E+03  0.74876470956E+03  0.00000000000E+00 0. -1.
</event>
<event>
 7    1  0.8278507E-006  0.7423498E+02  0.7818608E-02  0.1394464E+00
          2   -1    0    0  502    0  0.00000000000E+00  0.00000000000E+00  0.93654945689E+03  0.93654945689E+03  0.00000000000E+00 0. -1.
          1   -1    0    0  501    0 -0.00000000000E+00 -0.00000000000E+00 -0.10390235891E+04  0.10390235891E+04  0.00000000000E+00 0. -1.
         25    2    1    2    0    0 -0.18634205752E+02  0.32711693196E+02  0.65439243727E+03  0.66728898035E+03  0.12501133085E+03 0.  0.
          2    1    1    2  501    0  0.68326560610E+02 -0.29251300536E+02 -0.10289739873E+04  0.10316547988E+04  0.00000000000E+00 0. -1.
          1    1    1    2  502    0 -0.49692354858E+02 -0.34603926598E+01  0.27210741778E+03  0.27662926682E+03  0.00000000000E+00 0. -1.
         22    1    3    3    0    0 -0.43330055418E+02  0.13182588020E+02  0.79199901224E+02  0.91235402577E+02  0.00000000000E+00 0. -1.
         22    1    3    3    0    0  0.24695849666E+02  0.19529105176E+02  0.57519253605E+03  0.57605357777E+03  0.00000000000E+00 0. -1.
</event>
<event>
 7    1  0.8278507E-006  0.1015418E+03  0.7818608E-02  0.1279601E+00
          2   -1    0    0  502    0  0.00000000000E+00  0.00000000000E+00  0.13677791540E+04  0.13677791540E+04  0.00000000000E+00 0. -1.
          1   -1    0    0  501    0 -0.00000000000E+00 -0.00000000000E+00 -0.50669319037E+02  0.50669319037E+02  0.00000000000E+00 0. -1.
         25    2    1    2    0    0 -0.50350545016E+02  0.51316344522E+02  0.78610033562E+03  0.79921654572E+03  0.12499921878E+03 0.  0.
          2    1    1    2  501    0 -0.40185737246E+02  0.90624609299E+02  0.52941148976E+02  0.11238540183E+03  0.00000000000E+00 0. -1.
          1    1    1    2  502    0  0.90536282262E+02 -0.14194095382E+03  0.47806835034E+03  0.50684652546E+03  0.00000000000E+00 0. -1.
         22    1    3    3    0    0 -0.53965270722E+02 -0.28635084088E+02  0.26116115815E+03  0.26821142595E+03  0.00000000000E+00 0. -1.
         22    1    3    3    0    0  0.36147257065E+01  0.79951428609E+02  0.52493917747E+03  0.53100511977E+03  0.00000000000E+00 0. -1.
</event>
<event>
 7    1  0.8278507E-006  0.3200106E+02  0.7818608E-02  0.1618264E+00
          2   -1    0    0  502    0  0.00000000000E+00  0.00000000000E+00  0.27368288294E+03  0.27368288294E+03  0.00000000000E+00 0. -1.
          1   -1    0    0  501    0 -0.00000000000E+00 -0.00000000000E+00 -0.15723711579E+03  0.15723711579E+03  0.00000000000E+00 0. -1.
         25    2    1    2    0    0  0.52265491101E+02 -0.17358376640E+02  0.10346056112E+03  0.17135290819E+03  0.12499894655E+03 0.  0.
          2    1    1    2  501    0 -0.31469274348E+02  0.35901240198E+01 -0.12007881204E+03  0.12418584991E+03  0.00000000000E+00 0. -1.
          1    1    1    2  502    0 -0.20796216754E+02  0.13768252620E+02  0.13306401807E+03  0.13538124063E+03  0.00000000000E+00 0. -1.
         22    1    3    3    0    0 -0.14520826623E+02 -0.41943017706E+01  0.10215704316E+03  0.10326910497E+03  0.00000000000E+00 0. -1.
         22    1    3    3    0    0  0.66786317724E+02 -0.13164074869E+02  0.13035179606E+01  0.68083803224E+02  0.00000000000E+00 0. -1.
</event>
<event>
 7    1  0.8278507E-006  0.5141923E+02  0.7818608E-02  0.1448376E+00
          2   -1    0    0  502    0  0.00000000000E+00  0.00000000000E+00  0.57600468954E+02  0.57600468954E+02  0.00000000000E+00 0. -1.
          1   -1    0    0  501    0 -0.00000000000E+00 -0.00000000000E+00 -0.54500949212E+03  0.54500949212E+03  0.00000000000E+00 0. -1.
         25    2    1    2    0    0 -0.65519856469E+01  0.52392368076E+01 -0.16957280934E+03  0.21083066896E+03  0.12499702072E+03 0.  0.
          2    1    1    2  501    0  0.31352370408E+02  0.40754950715E+02 -0.33333284430E+03  0.33727543971E+03  0.00000000000E+00 0. -1.
          1    1    1    2  502    0 -0.24800384762E+02 -0.45994187523E+02  0.15496630481E+02  0.54503852400E+02  0.00000000000E+00 0. -1.
         22    1    3    3    0    0 -0.12689244613E+01  0.25851100738E+02 -0.18355429082E+03  0.18537008188E+03  0.00000000000E+00 0. -1.
         22    1    3    3    0    0 -0.52830611856E+01 -0.20611863930E+02  0.13981481479E+02  0.25460587081E+02  0.00000000000E+00 0. -1.
</event>
<event>
 7    1  0.8278507E-006  0.1051158E+03  0.7818608E-02  0.1362797E+00
          2   -1    0    0  502    0  0.00000000000E+00  0.00000000000E+00  0.11884769905E+03  0.11884769905E+03  0.00000000000E+00 0. -1.
          1   -1    0    0  501    0 -0.00000000000E+00 -0.00000000000E+00 -0.46200320032E+03  0.46200320032E+03  0.00000000000E+00 0. -1.
         25    2    1    2    0    0  0.32182440694E+02  0.79020358036E+02 -0.61113182502E+02  0.16321523193E+03  0.12499785752E+03 0.  0.
          2    1    1    2  501    0  0.16471542429E+01 -0.10955223252E+03 -0.33223933609E+03  0.34983907902E+03  0.00000000000E+00 0. -1.
          1    1    1    2  502    0 -0.33829594937E+02  0.30531874480E+02  0.50197017320E+02  0.67796588415E+02  0.00000000000E+00 0. -1.
         22    1    3    3    0    0 -0.26244903955E+02  0.76972516830E+02 -0.39036724254E+01  0.81417455064E+02  0.00000000000E+00 0. -1.
         22    1    3    3    0    0  0.58427344649E+02  0.20478412062E+01 -0.57209510077E+02  0.81797776862E+02  0.00000000000E+00 0. -1.
</event>
<event>
 7    1  0.8278507E-006  0.9270944E+02  0.7818608E-02  0.1342706E+00
          2   -1    0    0  502    0  0.00000000000E+00  0.00000000000E+00  0.11370302949E+04  0.11370302949E+04  0.00000000000E+00 0. -1.
          1   -1    0    0  501    0 -0.00000000000E+00 -0.00000000000E+00 -0.97232682534E+02  0.97232682534E+02  0.00000000000E+00 0. -1.
         25    2    1    2    0    0 -0.15907491896E+02  0.91770727255E+02  0.28955848200E+03  0.32885253150E+03  0.12499983320E+03 0.  0.
          2    1    1    2  501    0 -0.54572984945E+02 -0.27887546523E+02 -0.62259567373E+02  0.87362346960E+02  0.00000000000E+00 0. -1.
          1    1    1    2  502    0  0.70480476841E+02 -0.63883180733E+02  0.81249869779E+03  0.81804809902E+03  0.00000000000E+00 0. -1.
         22    1    3    3    0    0 -0.36457961616E+02  0.11126220235E+03  0.17295659860E+03  0.20885987081E+03  0.00000000000E+00 0. -1.
         22    1    3    3    0    0  0.20550469720E+02 -0.19491475099E+02  0.11660188340E+03  0.11999266069E+03  0.00000000000E+00 0. -1.
</event>
<event>
 7    1  0.8278507E-006  0.6468264E+02  0.7818608E-02  0.1534092E+00
          2   -1    0    0  502    0  0.00000000000E+00  0.00000000000E+00  0.14131245242E+04  0.14131245242E+04  0.00000000000E+00 0. -1.
          1   -1    0    0  501    0 -0.00000000000E+00 -0.00000000000E+00 -0.14738659759E+02  0.14738659759E+02  0.00000000000E+00 0. -1.
         25    2    1    2    0    0 -0.55675355195E+01  0.80383031823E+02  0.48239125950E+03  0.50479536993E+03  0.12499843599E+03 0.  0.
          2    1    1    2  501    0  0.11285068636E+02 -0.17485269978E+02  0.42790854291E+02  0.47583029026E+02  0.00000000000E+00 0. -1.
          1    1    1    2  502    0 -0.57175331170E+01 -0.62897761844E+02  0.87320375065E+03  0.87548478500E+03  0.00000000000E+00 0. -1.
         22    1    3    3    0    0  0.59508589113E+02  0.31542287979E+02  0.21955850864E+03  0.22965654100E+03  0.00000000000E+00 0.  1.
         22    1    3    3    0    0 -0.65076124632E+02  0.48840743843E+02  0.26283275086E+03  0.27513882892E+03  0.00000000000E+00 0.  1.
</event>
<event>
 7    1  0.8278507E-006  0.1317716E+03  0.7818608E-02  0.1288096E+00
          2   -1    0    0  502    0  0.00000000000E+00  0.00000000000E+00  0.31822510172E+03  0.31822510172E+03  0.00000000000E+00 0. -1.
          1   -1    0    0  501    0 -0.00000000000E+00 -0.00000000000E+00 -0.23816721000E+04  0.23816721000E+04  0.00000000000E+00 0. -1.
         25    2    1    2    0    0  0.61206655211E+02  0.60334870100E+02  0.11902545392E+03  0.19282577331E+03  0.12501267527E+03 0.  0.
          2    1    1    2  501    0 -0.37970609681E+02 -0.12689038300E+03 -0.23351508566E+04  0.23389041150E+04  0.00000000000E+00 0. -1.
          1    1    1    2  502    0 -0.23236045530E+02  0.66555512897E+02  0.15267840438E+03  0.16816731333E+03  0.00000000000E+00 0. -1.
         22    1    3    3    0    0  0.14477544311E+02  0.85711277866E+01 -0.26536991565E+02  0.31420939549E+02  0.00000000000E+00 0. -1.
         22    1    3    3    0    0  0.46729110900E+02  0.51763742314E+02  0.14556244549E+03  0.16140483376E+03  0.00000000000E+00 0. -1.
</event>
<event>
 7    1  0.8278507E-006  0.1307356E+03  0.7818608E-02  0.1302226E+00
          2   -1    0    0  502    0  0.00000000000E+00  0.00000000000E+00  0.18896396961E+04  0.18896396961E+04  0.00000000000E+00 0. -1.
          1   -1    0    0  501    0 -0.00000000000E+00 -0.00000000000E+00 -0.13581877705E+04  0.13581877705E+04  0.00000000000E+00 0. -1.
         25    2    1    2    0    0 -0.16623758870E+03 -0.44190764798E+00  0.91411345712E+02  0.22718925948E+03  0.12499517720E+03 0.  0.
          2    1    1    2  501    0  0.12231119774E+03  0.44640197600E+02 -0.12864506342E+04  0.12930228191E+04  0.00000000000E+00 0. -1.
          1    1    1    2  502    0  0.43926390958E+02 -0.44198289952E+02  0.17264912141E+04  0.17276153881E+04  0.00000000000E+00 0. -1.
         22    1    3    3    0    0 -0.71479098209E+01  0.42519913644E+02  0.21577785515E+02  0.48214484326E+02  0.00000000000E+00 0. -1.
         22    1    3    3    0    0 -0.15908967887E+03 -0.42961821292E+02  0.69833560196E+02  0.17897477516E+03  0.00000000000E+00 0. -1.
</event>
<event>
 7    1  0.8278507E-006  0.4592488E+02  0.7818608E-02  0.1525889E+00
          2   -1    0    0  502    0  0.00000000000E+00  0.00000000000E+00  0.36336624247E+02  0.36336624247E+02  0.00000000000E+00 0. -1.
          1   -1    0    0  501    0 -0.00000000000E+00 -0.00000000000E+00 -0.87633224254E+03  0.87633224254E+03  0.00000000000E+00 0. -1.
         25    2    1    2    0    0  0.57236191170E+02  0.32365070410E+02 -0.12918140222E+03  0.19140799727E+03  0.12500282948E+03 0.  0.
          2    1    1    2  501    0 -0.30296426193E+02 -0.62809219064E+01 -0.64320622989E+03  0.64394998065E+03  0.00000000000E+00 0. -1.
          1    1    1    2  502    0 -0.26939764977E+02 -0.26084148504E+02 -0.67607986183E+02  0.77310888858E+02  0.00000000000E+00 0. -1.
         22    1    3    3    0    0 -0.97643178830E+01  0.33713878041E+02  0.10370735862E+02  0.36599448610E+02  0.00000000000E+00 0. -1.
         22    1    3    3    0    0  0.67000509053E+02 -0.13488076306E+01 -0.13955213808E+03  0.15480854866E+03  0.00000000000E+00 0. -1.
</event>
<event>
 7    1  0.8278507E-006  0.9741640E+02  0.7818608E-02  0.1354792E+00
          2   -1    0    0  502    0  0.00000000000E+00  0.00000000000E+00  0.62523144239E+03  0.62523144239E+03  0.00000000000E+00 0. -1.
          1   -1    0    0  501    0 -0.00000000000E+00 -0.00000000000E+00 -0.16123847523E+04  0.16123847523E+04  0.00000000000E+00 0. -1.
         25    2    1    2    0    0 -0.22360904388E+02 -0.12588589105E+03  0.13711254000E+03  0.22532613854E+03  0.12499900989E+03 0.  0.
          2    1    1    2  501    0  0.41011369964E+02  0.32936415359E+02 -0.15627700682E+04  0.15636550214E+04  0.00000000000E+00 0. -1.
          1    1    1    2  502    0 -0.18650465575E+02  0.92949475690E+02  0.43850421831E+03  0.44863503471E+03  0.00000000000E+00 0. -1.
         22    1    3    3    0    0 -0.56164972526E+02 -0.66381779069E+02  0.19286526632E+02  0.89067473528E+02  0.00000000000E+00 0.  1.
         22    1    3    3    0    0  0.33804068137E+02 -0.59504111980E+02  0.11782601336E+03  0.13625866501E+03  0.00000000000E+00 0.  1.
</event>
<event>
 7    1  0.8278507E-006  0.7714836E+02  0.7818608E-02  0.1433266E+00
          2   -1    0    0  502    0  0.00000000000E+00  0.00000000000E+00  0.21359643648E+02  0.21359643648E+02  0.00000000000E+00 0. -1.
          1   -1    0    0  501    0 -0.00000000000E+00 -0.00000000000E+00 -0.10808348512E+04  0.10808348512E+04  0.00000000000E+00 0. -1.
         25    2    1    2    0    0 -0.62090335364E+02 -0.45783381713E+02 -0.42654487499E+03  0.45113687825E+03  0.12503049530E+03 0.  0.
          2    1    1    2  501    0  0.36009207672E+02  0.69820678596E+02 -0.59073323578E+03  0.59593401149E+03  0.00000000000E+00 0. -1.
          1    1    1    2  502    0  0.26081127693E+02 -0.24037296883E+02 -0.42197096807E+02  0.55123605126E+02  0.00000000000E+00 0. -1.
         22    1    3    3    0    0 -0.54927486216E+02  0.33420790806E+02 -0.14584496316E+03  0.15938861716E+03  0.00000000000E+00 0.  1.
         22    1    3    3    0    0 -0.71628491481E+01 -0.79204172519E+02 -0.28069991183E+03  0.29174826109E+03  0.00000000000E+00 0.  1.
</event>
<event>
 7    1  0.8278507E-006  0.5974915E+02  0.7818608E-02  0.1464727E+00
          2   -1    0    0  502    0  0.00000000000E+00  0.00000000000E+00  0.75950868410E+03  0.75950868410E+03  0.00000000000E+00 0. -1.
          1   -1    0    0  501    0 -0.00000000000E+00 -0.00000000000E+00 -0.20136133039E+04  0.20136133039E+04  0.00000000000E+00 0. -1.
         25    2    1    2    0    0 -0.21454288986E+02  0.46097317396E+02  0.13728510562E+03  0.19247813547E+03  0.12496152697E+03 0.  0.
          2    1    1    2  501    0  0.52885134650E+02 -0.27917803874E+02 -0.19850117716E+04  0.19859123784E+04  0.00000000000E+00 0. -1.
          1    1    1    2  502    0 -0.31430845664E+02 -0.18179513522E+02  0.59362204612E+03  0.59473147421E+03  0.00000000000E+00 0. -1.
         22    1    3    3    0    0 -0.58036879643E+02  0.68603811416E+02  0.76284624676E+02  0.11787326373E+03  0.00000000000E+00 0. -1.
         22    1    3    3    0    0  0.36582590658E+02 -0.22506494021E+02  0.61000480943E+02  0.74604871741E+02  0.00000000000E+00 0. -1.
</event>
<event>
 7    1  0.8278507E-006  0.9440661E+02  0.7818608E-02  0.1317329E+00
          2   -1    0    0  502    0  0.00000000000E+00  0.00000000000E+00  0.20695745832E+04  0.20695745832E+04  0.00000000000E+00 0. -1.
          1   -1    0    0  501    0 -0.00000000000E+00 -0.00000000000E+00 -0.27954036231E+04  0.27954036231E+04  0.00000000000E+00 0. -1.
         25    2    1    2    0    0 -0.24301432381E+02  0.65717938311E+02 -0.21090800935E+03  0.25498348329E+03  0.12499992524E+03 0.  0.
          2    1    1    2  501    0  0.73727918025E+02  0.14996944962E+02 -0.25608113345E+04  0.25619163540E+04  0.00000000000E+00 0. -1.
          1    1    1    2  502    0 -0.49426485645E+02 -0.80714883273E+02  0.20458903039E+04  0.20480783689E+04  0.00000000000E+00 0. -1.
         22    1    3    3    0    0 -0.34993622383E+02  0.62838013389E+02 -0.22548455206E+03  0.23667795155E+03  0.00000000000E+00 0. -1.
         22    1    3    3    0    0  0.10692190002E+02  0.28799249213E+01  0.14576542711E+02  0.18305531733E+02  0.00000000000E+00 0. -1.
</event>
<event>
 7    1  0.8278507E-006  0.1834122E+03  0.7818608E-02  0.1302723E+00
          2   -1    0    0  502    0  0.00000000000E+00  0.00000000000E+00  0.13745885268E+04  0.13745885268E+04  0.00000000000E+00 0. -1.
          1   -1    0    0  501    0 -0.00000000000E+00 -0.00000000000E+00 -0.16463107024E+04  0.16463107024E+04  0.00000000000E+00 0. -1.
         25    2    1    2    0    0  0.68191065765E+02 -0.12612095924E+03 -0.10956245188E+00  0.19021268045E+03  0.12499733593E+03 0.  0.
          2    1    1    2  501    0  0.95377612318E+01 -0.43173930747E+02 -0.15440511472E+04  0.15446840785E+04  0.00000000000E+00 0. -1.
          1    1    1    2  502    0 -0.77728826997E+02  0.16929488999E+03  0.12724385341E+04  0.12860024702E+04  0.00000000000E+00 0. -1.
         22    1    3    3    0    0  0.40387946828E+02 -0.14560610073E+03  0.17242432836E+02  0.15208426713E+03  0.00000000000E+00 0. -1.
         22    1    3    3    0    0  0.27803118938E+02  0.19485141492E+02 -0.17351995288E+02  0.38128413317E+02  0.00000000000E+00 0. -1.
</event>
<event>
 7    1  0.8278507E-006  0.5943353E+02  0.7818608E-02  0.1492073E+00
          2   -1    0    0  502    0  0.00000000000E+00  0.00000000000E+00  0.61353775524E+03  0.61353775524E+03  0.00000000000E+00 0. -1.
          1   -1    0    0  501    0 -0.00000000000E+00 -0.00000000000E+00 -0.12614956245E+04  0.12614956245E+04  0.00000000000E+00 0. -1.
         25    2    1    2    0    0  0.56094691644E+02 -0.13379975166E+01  0.31385046341E+03  0.34245451004E+03  0.12499829358E+03 0.  0.
          2    1    1    2  501    0 -0.30389272039E+01 -0.29923360634E+02 -0.12436876744E+04  0.12440513148E+04  0.00000000000E+00 0. -1.
          1    1    1    2  502    0 -0.53055764440E+02  0.31261358151E+02  0.28187934168E+03  0.28852755487E+03  0.00000000000E+00 0. -1.
         22    1    3    3    0    0 -0.12417207185E+02 -0.33616701527E+02  0.24635162662E+02  0.43487479752E+02  0.00000000000E+00 0.  1.
         22    1    3    3    0    0  0.68511898830E+02  0.32278704010E+02  0.28921530075E+03  0.29896703029E+03  0.00000000000E+00 0.  1.
</event>
<event>
 7    1  0.8278507E-006  0.8364037E+02  0.7818608E-02  0.1493474E+00
          2   -1    0    0  502    0  0.00000000000E+00  0.00000000000E+00  0.29112286312E+03  0.29112286312E+03  0.00000000000E+00 0. -1.
          1   -1    0    0  501    0 -0.00000000000E+00 -0.00000000000E+00 -0.83313314377E+03  0.83313314377E+03  0.00000000000E+00 0. -1.
         25    2    1    2    0    0  0.83070533164E+02  0.12435453567E+02  0.18602501235E+02  0.15174725593E+03  0.12500329054E+03 0.  0.
          2    1    1    2  501    0 -0.83244327827E+02  0.87295130960E+01 -0.76372438832E+03  0.76829731473E+03  0.00000000000E+00 0. -1.
          1    1    1    2  502    0  0.17379466318E+00 -0.21164966663E+02  0.20311160643E+03  0.20421143622E+03  0.00000000000E+00 0. -1.
         22    1    3    3    0    0  0.38465305155E+01 -0.44954436876E+02  0.28586661704E+02  0.53412493101E+02  0.00000000000E+00 0. -1.
         22    1    3    3    0    0  0.79224002649E+02  0.57389890443E+02 -0.99841604687E+01  0.98334762831E+02  0.00000000000E+00 0. -1.
</event>
<event>
 7    1  0.8278507E-006  0.2161033E+03  0.7818608E-02  0.1182850E+00
          2   -1    0    0  502    0  0.00000000000E+00  0.00000000000E+00  0.33718824719E+04  0.33718824719E+04  0.00000000000E+00 0. -1.
          1   -1    0    0  501    0 -0.00000000000E+00 -0.00000000000E+00 -0.32382829883E+03  0.32382829883E+03  0.00000000000E+00 0. -1.
         25    2    1    2    0    0  0.60762434839E+02  0.18140584613E+03  0.80586535717E+03  0.83764188912E+03  0.12499922414E+03 0.  0.
          2    1    1    2  501    0 -0.17619836725E+03 -0.12985059874E+03 -0.26725352827E+03  0.34544390426E+03  0.00000000000E+00 0. -1.
          1    1    1    2  502    0  0.11543593241E+03 -0.51555247390E+02  0.25094423442E+04  0.25126249774E+04  0.00000000000E+00 0. -1.
         22    1    3    3    0    0  0.53555479002E+02  0.54162762309E+02  0.50768109236E+03  0.51336330770E+03  0.00000000000E+00 0.  1.
         22    1    3    3    0    0  0.72069558370E+01  0.12724308382E+03  0.29818426481E+03  0.32427858143E+03  0.00000000000E+00 0.  1.
</event>
<event>
 7    1  0.8278507E-006  0.1716733E+03  0.7818608E-02  0.1226294E+00
          2   -1    0    0  502    0  0.00000000000E+00  0.00000000000E+00  0.14383669905E+04  0.14383669905E+04  0.00000000000E+00 0. -1.
          1   -1    0    0  501    0 -0.00000000000E+00 -0.00000000000E+00 -0.69942684403E+02  0.69942684403E+02  0.00000000000E+00 0. -1.
         25    2    1    2    0    0  0.49980824814E+02  0.16003556212E+03  0.71566862205E+03  0.74559797283E+03  0.12500118605E+03 0.  0.
          2    1    1    2  501    0 -0.13745204701E+03 -0.11232466312E+03  0.10557453342E+03  0.20653299320E+03  0.00000000000E+00 0. -1.
          1    1    1    2  502    0  0.87471222201E+02 -0.47710898996E+02  0.54718115059E+03  0.55617870883E+03  0.00000000000E+00 0. -1.
         22    1    3    3    0    0  0.42093558133E+02  0.70223556574E+01  0.29146289957E+03  0.29457053984E+03  0.00000000000E+00 0.  1.
         22    1    3    3    0    0  0.78872666807E+01  0.15301320646E+03  0.42420572247E+03  0.45102743298E+03  0.00000000000E+00 0.  1.
</event>
<event>
 7    1  0.8278507E-006  0.5767679E+02  0.7818608E-02  0.1449551E+00
          2   -1    0    0  502    0  0.00000000000E+00  0.00000000000E+00  0.14122316227E+04  0.14122316227E+04  0.00000000000E+00 0. -1.
          1   -1    0    0  501    0 -0.00000000000E+00 -0.00000000000E+00 -0.78315314164E+03  0.78315314164E+03  0.00000000000E+00 0. -1.
         25    2    1    2    0    0  0.52827491112E+02 -0.68211727872E+02 -0.23135240695E+02  0.15363702760E+03  0.12500205299E+03 0.  0.
          2    1    1    2  501    0 -0.12659611254E+02  0.55885401016E+02 -0.69325701261E+03  0.69562111047E+03  0.00000000000E+00 0. -1.
          1    1    1    2  502    0 -0.40167879857E+02  0.12326326856E+02  0.13454707343E+04  0.13461266262E+04  0.00000000000E+00 0. -1.
         22    1    3    3    0    0 -0.19795384379E+02 -0.58775230846E+02 -0.45663899465E+02  0.77016730118E+02  0.00000000000E+00 0.  1.
         22    1    3    3    0    0  0.72622875491E+02 -0.94364970262E+01  0.22528658771E+02  0.76620297485E+02  0.00000000000E+00 0.  1.
</event>
<event>
 7    1  0.8278507E-006  0.9625352E+02  0.7818608E-02  0.1320856E+00
          2   -1    0    0  502    0  0.00000000000E+00  0.00000000000E+00  0.11613174178E+04  0.11613174178E+04  0.00000000000E+00 0. -1.
          1   -1    0    0  501    0 -0.00000000000E+00 -0.00000000000E+00 -0.68005038888E+02  0.68005038888E+02  0.00000000000E+00 0. -1.
         25    2    1    2    0    0  0.69981347609E+02  0.33281838183E+02  0.64227188982E+03  0.65889559881E+03  0.12500063967E+03 0.  0.
          2    1    1    2  501    0 -0.92777592315E+02  0.34488540275E+02 -0.13960958607E+02  0.99960239152E+02  0.00000000000E+00 0. -1.
          1    1    1    2  502    0  0.22796244706E+02 -0.67770378457E+02  0.46500144771E+03  0.47046661873E+03  0.00000000000E+00 0. -1.
         22    1    3    3    0    0  0.20571531778E+01  0.38045594447E+02  0.50714597824E+02  0.63432401566E+02  0.00000000000E+00 0. -1.
         22    1    3    3    0    0  0.67924194432E+02 -0.47637562641E+01  0.59155729199E+03  0.59546319724E+03  0.00000000000E+00 0. -1.
</event>
<event>
 7    1  0.8278507E-006  0.1621993E+03  0.7818608E-02  0.1301065E+00
          2   -1    0    0  502    0  0.00000000000E+00  0.00000000000E+00  0.86563145044E+02  0.86563145044E+02  0.00000000000E+00 0. -1.
          1   -1    0    0  501    0 -0.00000000000E+00 -0.00000000000E+00 -0.26784894802E+04  0.26784894802E+04  0.00000000000E+00 0. -1.
         25    2    1    2    0    0  0.88169477210E+02 -0.14077677625E+03 -0.75453120164E+03  0.78264709421E+03  0.12500872921E+03 0.  0.
          2    1    1    2  501    0 -0.12430563136E+03  0.10512167592E+03 -0.18970794375E+04  0.19040516928E+04  0.00000000000E+00 0. -1.
          1    1    1    2  502    0  0.36136154153E+02  0.35655100340E+02  0.59684304000E+02  0.78353838203E+02  0.00000000000E+00 0. -1.
         22    1    3    3    0    0 -0.21324929167E+02 -0.78108370304E+02 -0.26281687888E+03  0.27500614891E+03  0.00000000000E+00 0.  1.
         22    1    3    3    0    0  0.10949440638E+03 -0.62668405951E+02 -0.49171432276E+03  0.50764094529E+03  0.00000000000E+00 0.  1.
</event>
<event>
 7    1  0.8278507E-006  0.1518320E+03  0.7818608E-02  0.1331853E+00
          2   -1    0    0  502    0  0.00000000000E+00  0.00000000000E+00  0.11923995981E+04  0.11923995981E+04  0.00000000000E+00 0. -1.
          1   -1    0    0  501    0 -0.00000000000E+00 -0.00000000000E+00 -0.91042725499E+03  0.91042725499E+03  0.00000000000E+00 0. -1.
         25    2    1    2    0    0 -0.10148008310E+03 -0.71452362416E+02  0.24121006817E+03  0.29868173726E+03  0.12499934329E+03 0.  0.
          2    1    1    2  501    0 -0.41092566098E+02  0.16699097607E+01 -0.87437583284E+03  0.87534249562E+03  0.00000000000E+00 0. -1.
          1    1    1    2  502    0  0.14257264920E+03  0.69782452655E+02  0.91513810775E+03  0.92880262018E+03  0.00000000000E+00 0. -1.
         22    1    3    3    0    0 -0.70814108921E+01  0.21011539036E+02  0.11091067175E+03  0.11310529723E+03  0.00000000000E+00 0. -1.
         22    1    3    3    0    0 -0.94398672211E+02 -0.92463901452E+02  0.13029939642E+03  0.18557644003E+03  0.00000000000E+00 0. -1.
</event>
<event>
 7    1  0.8278507E-006  0.8342695E+02  0.7818608E-02  0.1394520E+00
          2   -1    0    0  502    0  0.00000000000E+00  0.00000000000E+00  0.29138199616E+03  0.29138199616E+03  0.00000000000E+00 0. -1.
          1   -1    0    0  501    0 -0.00000000000E+00 -0.00000000000E+00 -0.30566221205E+03  0.30566221205E+03  0.00000000000E+00 0. -1.
         25    2    1    2    0    0 -0.11258189194E+03 -0.44415964248E+02 -0.15554987188E+02  0.17468331342E+03  0.12499936836E+03 0.  0.
          2    1    1    2  501    0  0.68378934497E+02  0.41417443993E+02 -0.20046276967E+03  0.21581567453E+03  0.00000000000E+00 0. -1.
          1    1    1    2  502    0  0.44202957440E+02  0.29985202547E+01  0.20173754097E+03  0.20654522025E+03  0.00000000000E+00 0. -1.
         22    1    3    3    0    0 -0.12426896864E+03 -0.57915159342E+02 -0.41448523927E+02  0.14323031238E+03  0.00000000000E+00 0. -1.
         22    1    3    3    0    0  0.11687076699E+02  0.13499195095E+02  0.25893536739E+02  0.31453001046E+02  0.00000000000E+00 0. -1.
</event>
<event>
 7    1  0.8278507E-006  0.1238520E+03  0.7818608E-02  0.1251207E+00
          2   -1    0    0  502    0  0.00000000000E+00  0.00000000000E+00  0.42666803629E+03  0.42666803629E+03  0.00000000000E+00 0. -1.
          1   -1    0    0  501    0 -0.00000000000E+00 -0.00000000000E+00 -0.69228542451E+03  0.69228542451E+03  0.00000000000E+00 0. -1.
         25    2    1    2    0    0 -0.99254203349E+02  0.18620994249E+03 -0.11455271566E+03  0.27069013960E+03  0.12500114977E+03 0.  0.
          2    1    1    2  501    0  0.83243952216E+02 -0.67511413738E+02 -0.48332921839E+03  0.49507017675E+03  0.00000000000E+00 0. -1.
          1    1    1    2  502    0  0.16010251133E+02 -0.11869852875E+03  0.33226454583E+03  0.35319314445E+03  0.00000000000E+00 0. -1.
         22    1    3    3    0    0 -0.31523053475E+02  0.12428876748E+03 -0.57494020386E+01  0.12835285835E+03  0.00000000000E+00 0. -1.
         22    1    3    3    0    0 -0.67731149874E+02  0.61921175010E+02 -0.10880331363E+03  0.14233728125E+03  0.00000000000E+00 0. -1.
</event>
<event>
 7    1  0.8278507E-006  0.4039522E+02  0.7818608E-02  0.1579769E+00
          2   -1    0    0  502    0  0.00000000000E+00  0.00000000000E+00  0.33146100290E+04  0.33146100290E+04  0.00000000000E+00 0. -1.
          1   -1    0    0  501    0 -0.00000000000E+00 -0.00000000000E+00 -0.12410612809E+03  0.12410612809E+03  0.00000000000E+00 0. -1.
         25    2    1    2    0    0  0.50571134838E+02  0.30644177552E+02  0.16776430103E+04  0.16833322782E+04  0.12499993426E+03 0.  0.
          2    1    1    2  501    0 -0.12596443239E+02 -0.21496852418E+02 -0.11974557215E+03  0.12231020847E+03  0.00000000000E+00 0. -1.
          1    1    1    2  502    0 -0.37974691599E+02 -0.91473251343E+01  0.16326064628E+04  0.16330736705E+04  0.00000000000E+00 0. -1.
         22    1    3    3    0    0 -0.22275798215E+02  0.32141421371E+02  0.19405442361E+03  0.19795555429E+03  0.00000000000E+00 0.  1.
         22    1    3    3    0    0  0.72846933053E+02 -0.14972438186E+01  0.14835885867E+04  0.14853767239E+04  0.00000000000E+00 0.  1.
</event>
<event>
 7    1  0.8278507E-006  0.1490077E+03  0.7818608E-02  0.1249819E+00
          2   -1    0    0  502    0  0.00000000000E+00  0.00000000000E+00  0.14250913322E+04  0.14250913322E+04  0.00000000000E+00 0. -1.
          1   -1    0    0  501    0 -0.00000000000E+00 -0.00000000000E+00 -0.91157545253E+03  0.91157545253E+03  0.00000000000E+00 0. -1.
         25    2    1    2    0    0  0.60559428433E+02 -0.13574043373E+02  0.14120353045E+03  0.19853182102E+03  0.12499899167E+03 0.  0.
          2    1    1    2  501    0 -0.14915703017E+03  0.31171395186E+02 -0.87469080697E+03  0.88786456361E+03  0.00000000000E+00 0. -1.
          1    1    1    2  502    0  0.88597601738E+02 -0.17597351813E+02  0.12470031561E+04  0.12502704000E+04  0.00000000000E+00 0. -1.
         22    1    3    3    0    0 -0.21487348478E+02 -0.44836803756E+01  0.10691495912E+03  0.10914494041E+03  0.00000000000E+00 0. -1.
         22    1    3    3    0    0  0.82046776911E+02 -0.90903629977E+01  0.34288571337E+02  0.89386880610E+02  0.00000000000E+00 0. -1.
</event>
<event>
 7    1  0.8278507E-006  0.2158915E+03  0.7818608E-02  0.1194132E+00
          2   -1    0    0  502    0  0.00000000000E+00  0.00000000000E+00  0.53257191165E+03  0.53257191165E+03  0.00000000000E+00 0. -1.
          1   -1    0    0  501    0 -0.00000000000E+00 -0.00000000000E+00 -0.96512860322E+03  0.96512860322E+03  0.00000000000E+00 0. -1.
         25    2    1    2    0    0 -0.26000187689E+03 -0.18287412870E+02  0.11053895135E+03  0.30948443461E+03  0.12500540006E+03 0.  0.
          2    1    1    2  501    0  0.66422828468E+02  0.89785610248E+02 -0.82851577724E+03  0.83600947428E+03  0.00000000000E+00 0. -1.
          1    1    1    2  502    0  0.19357904842E+03 -0.71498197378E+02  0.28542013433E+03  0.35220660598E+03  0.00000000000E+00 0. -1.
         22    1    3    3    0    0 -0.19609368199E+03  0.27807291196E+02  0.11765549138E+03  0.23036664735E+03  0.00000000000E+00 0.  1.
         22    1    3    3    0    0 -0.63908194905E+02 -0.46094704066E+02 -0.71165400317E+01  0.79117787260E+02  0.00000000000E+00 0.  1.
</event>
<event>
 7    1  0.8278507E-006  0.1166522E+03  0.7818608E-02  0.1278127E+00
          2   -1    0    0  502    0  0.00000000000E+00  0.00000000000E+00  0.20248106855E+03  0.20248106855E+03  0.00000000000E+00 0. -1.
          1   -1    0    0  501    0 -0.00000000000E+00 -0.00000000000E+00 -0.18510364102E+04  0.18510364102E+04  0.00000000000E+00 0. -1.
         25    2    1    2    0    0 -0.50321445753E+02 -0.14052171094E+03 -0.42241584343E+03  0.46512212958E+03  0.12499940599E+03 0.  0.
          2    1    1    2  501    0 -0.32147677127E+02  0.11123636526E+03 -0.13941544946E+04  0.13989545228E+04  0.00000000000E+00 0. -1.
          1    1    1    2  502    0  0.82469122880E+02  0.29285345685E+02  0.16801499635E+03  0.18944082638E+03  0.00000000000E+00 0. -1.
         22    1    3    3    0    0 -0.36646135830E+02 -0.16143528097E+03 -0.32735301287E+03  0.36683004818E+03  0.00000000000E+00 0.  1.
         22    1    3    3    0    0 -0.13675309923E+02  0.20913570024E+02 -0.95062830555E+02  0.98292081399E+02  0.00000000000E+00 0.  1.
</event>
<event>
 7    1  0.8278507E-006  0.5567961E+03  0.7818608E-02  0.1100219E+00
          2   -1    0    0  502    0  0.00000000000E+00  0.00000000000E+00  0.14756507416E+04  0.14756507416E+04  0.00000000000E+00 0. -1.
          1   -1    0    0  501    0 -0.00000000000E+00 -0.00000000000E+00 -0.14303307524E+04  0.14303307524E+04  0.00000000000E+00 0. -1.
         25    2    1    2    0    0 -0.55973055796E+03  0.36691442429E+03 -0.94530615497E+03  0.11649683351E+04  0.12499201137E+03 0.  0.
          2    1    1    2  501    0  0.71282902832E+02 -0.11197461462E+03 -0.30525371264E+03  0.33286543172E+03  0.00000000000E+00 0. -1.
          1    1    1    2  502    0  0.48844765513E+03 -0.25493980967E+03  0.12958798568E+04  0.14081477272E+04  0.00000000000E+00 0. -1.
         22    1    3    3    0    0 -0.48149477196E+01 -0.92529026986E+01 -0.15443593204E+02  0.18636107451E+02  0.00000000000E+00 0. -1.
         22    1    3    3    0    0 -0.55491561024E+03  0.37616732699E+03 -0.92986256177E+03  0.11463322277E+04  0.00000000000E+00 0. -1.
</event>
<event>
 7    1  0.8278507E-006  0.2116749E+03  0.7818608E-02  0.1248785E+00
          2   -1    0    0  502    0  0.00000000000E+00  0.00000000000E+00  0.21443899493E+04  0.21443899493E+04  0.00000000000E+00 0. -1.
          1   -1    0    0  501    0 -0.00000000000E+00 -0.00000000000E+00 -0.30554601110E+03  0.30554601110E+03  0.00000000000E+00 0. -1.
         25    2    1    2    0    0  0.97395179270E+02  0.25234901549E+03  0.23804043295E+03  0.38138392979E+03  0.12499843047E+03 0.  0.
          2    1    1    2  501    0 -0.30372301789E+02 -0.56614706506E+02 -0.22350176168E+03  0.23255265895E+03  0.00000000000E+00 0. -1.
          1    1    1    2  502    0 -0.67022877480E+02 -0.19573430898E+03  0.18243052670E+04  0.18359993717E+04  0.00000000000E+00 0. -1.
         22    1    3    3    0    0  0.14664405419E+02  0.30315057220E+02  0.10364129489E+03  0.10897506819E+03  0.00000000000E+00 0. -1.
         22    1    3    3    0    0  0.82730773851E+02  0.22203395827E+03  0.13439913805E+03  0.27240886159E+03  0.00000000000E+00 0. -1.
</event>
<event>
 7    1  0.8278507E-006  0.7821226E+02  0.7818608E-02  0.1396007E+00
          2   -1    0    0  502    0  0.00000000000E+00  0.00000000000E+00  0.11513775109E+04  0.11513775109E+04  0.00000000000E+00 0. -1.
          1   -1    0    0  501    0 -0.00000000000E+00 -0.00000000000E+00 -0.49676555707E+03  0.49676555707E+03  0.00000000000E+00 0. -1.
         25    2    1    2    0    0 -0.11068939167E+03 -0.16366751086E+02  0.23828354217E+03  0.29142126901E+03  0.12500919003E+03 0.  0.
          2    1    1    2  501    0  0.68667857892E+02  0.36743548159E+02 -0.46635025013E+03  0.47280854353E+03  0.00000000000E+00 0. -1.
          1    1    1    2  502    0  0.42021533778E+02 -0.20376797073E+02  0.88267866181E+03  0.88391325546E+03  0.00000000000E+00 0. -1.
         22    1    3    3    0    0 -0.14884211843E+02 -0.41401413086E+02  0.13866970878E+02  0.46129271066E+02  0.00000000000E+00 0.  1.
         22    1    3    3    0    0 -0.95805179826E+02  0.25034662000E+02  0.22441657130E+03  0.24529199794E+03  0.00000000000E+00 0.  1.
</event>
<event>
 7    1  0.8278507E-006  0.6480137E+02  0.7818608E-02  0.1431787E+00
          2   -1    0    0  502    0  0.00000000000E+00  0.00000000000E+00  0.37414310494E+03  0.37414310494E+03  0.00000000000E+00 0. -1.
          1   -1    0    0  501    0 -0.00000000000E+00 -0.00000000000E+00 -0.69049083433E+03  0.69049083433E+03  0.00000000000E+00 0. -1.
         25    2    1    2    0    0  0.90405638758E+02  0.28106867946E+02 -0.53690570390E+03  0.55933496428E+03  0.12499876739E+03 0.  0.
          2    1    1    2  501    0 -0.49159303464E+02 -0.17057480551E+02 -0.13630030130E+03  0.14589505439E+03  0.00000000000E+00 0. -1.
          1    1    1    2  502    0 -0.41246335294E+02 -0.11049387395E+02  0.35685827581E+03  0.35940392061E+03  0.00000000000E+00 0. -1.
         22    1    3    3    0    0  0.81561956011E+01  0.31402240446E+02 -0.38665097095E+03  0.38800979056E+03  0.00000000000E+00 0. -1.
         22    1    3    3    0    0  0.82249443156E+02 -0.32953725004E+01 -0.15025473295E+03  0.17132517373E+03  0.00000000000E+00 0. -1.
</event>
<event>
 7    1  0.8278507E-006  0.1770818E+03  0.7818608E-02  0.1305733E+00
          2   -1    0    0  502    0  0.00000000000E+00  0.00000000000E+00  0.14264143071E+04  0.14264143071E+04  0.00000000000E+00 0. -1.
          1   -1    0    0  501    0 -0.00000000000E+00 -0.00000000000E+00 -0.75796059532E+03  0.75796059532E+03  0.00000000000E+00 0. -1.
         25    2    1    2    0    0 -0.16693203897E+03 -0.13753526171E+03  0.10790736335E+04  0.11076134907E+04  0.12500193713E+03 0.  0.
          2    1    1    2  501    0  0.14738282407E+03  0.97502675697E+02 -0.73163276024E+03  0.75267188366E+03  0.00000000000E+00 0. -1.
          1    1    1    2  502    0  0.19549214892E+02  0.40032586012E+02  0.32101283849E+03  0.32408952809E+03  0.00000000000E+00 0. -1.
         22    1    3    3    0    0 -0.13030312769E+03 -0.16028853362E+03  0.87915434760E+03  0.90309672018E+03  0.00000000000E+00 0.  1.
         22    1    3    3    0    0 -0.36628911277E+02  0.22753271915E+02  0.19991928591E+03  0.20451677047E+03  0.00000000000E+00 0.  1.
</event>
<event>
 7    1  0.8278507E-006  0.2503396E+03  0.7818608E-02  0.1194770E+00
          2   -1    0    0  502    0  0.00000000000E+00  0.00000000000E+00  0.40630608396E+03  0.40630608396E+03  0.00000000000E+00 0. -1.
          1   -1    0    0  501    0 -0.00000000000E+00 -0.00000000000E+00 -0.60479943846E+03  0.60479943846E+03  0.00000000000E+00 0. -1.
         25    2    1    2    0    0  0.19848369547E+02  0.33354356596E+03 -0.23979683602E+03  0.42985183007E+03  0.12499922035E+03 0.  0.
          2    1    1    2  501    0 -0.37645638125E+01 -0.95570340352E+02 -0.21245790354E+03  0.23299403999E+03  0.00000000000E+00 0. -1.
          1    1    1    2  502    0 -0.16083805735E+02 -0.23797322561E+03  0.25376138505E+03  0.34825965235E+03  0.00000000000E+00 0. -1.
         22    1    3    3    0    0 -0.66023919673E+01  0.31718520894E+03 -0.18612785580E+03  0.36782282019E+03  0.00000000000E+00 0.  1.
         22    1    3    3    0    0  0.26450761515E+02  0.16358357019E+02 -0.53668980219E+02  0.62029009881E+02  0.00000000000E+00 0.  1.
</event>
<event>
 7    1  0.8278507E-006  0.9015302E+02  0.7818608E-02  0.1386709E+00
          2   -1    0    0  502    0  0.00000000000E+00  0.00000000000E+00  0.12909715963E+03  0.12909715963E+03  0.00000000000E+00 0. -1.
          1   -1    0    0  501    0 -0.00000000000E+00 -0.00000000000E+00 -0.15882463563E+04  0.15882463563E+04  0.00000000000E+00 0. -1.
         25    2    1    2    0    0 -0.19048818911E+01  0.11643962028E+03 -0.11423633056E+04  0.11550669543E+04  0.12499573246E+03 0.  0.
          2    1    1    2  501    0  0.30489883074E+02 -0.31239417027E+02 -0.42180344175E+03  0.42405621988E+03  0.00000000000E+00 0. -1.
          1    1    1    2  502    0 -0.28585001182E+02 -0.85200203257E+02  0.10501755069E+03  0.13822034177E+03  0.00000000000E+00 0. -1.
         22    1    3    3    0    0  0.22720438384E+02  0.65421775258E+02 -0.21294222744E+03  0.22392101113E+03  0.00000000000E+00 0.  1.
         22    1    3    3    0    0 -0.24625320276E+02  0.51017845026E+02 -0.92942107819E+03  0.93114594318E+03  0.00000000000E+00 0.  1.
</event>
<event>
 7    1  0.8278507E-006  0.7420004E+02  0.7818608E-02  0.1390445E+00
          2   -1    0    0  502    0  0.00000000000E+00  0.00000000000E+00  0.66267733138E+03  0.66267733138E+03  0.00000000000E+00 0. -1.
          1   -1    0    0  501    0 -0.00000000000E+00 -0.00000000000E+00 -0.76623012345E+02  0.76623012345E+02  0.00000000000E+00 0. -1.
         25    2    1    2    0    0 -0.76311056506E+02 -0.19269493232E+02  0.40647350158E+02  0.15320673637E+03  0.12500162511E+03 0.  0.
          2    1    1    2  501    0  0.47756096645E+02  0.62087228650E+02  0.61846601198E+02  0.99802158333E+02  0.00000000000E+00 0. -1.
          1    1    1    2  502    0  0.28554959861E+02 -0.42817735418E+02  0.48356036768E+03  0.48629144902E+03  0.00000000000E+00 0. -1.
         22    1    3    3    0    0  0.13788290319E+02 -0.41209031700E+02 -0.13897056958E+02  0.45622685537E+02  0.00000000000E+00 0. -1.
         22    1    3    3    0    0 -0.90099346825E+02  0.21939538468E+02  0.54544407116E+02  0.10758405084E+03  0.00000000000E+00 0. -1.
</event>
<event>
 7    1  0.8278507E-006  0.3033406E+02  0.7818608E-02  0.1627774E+00
          2   -1    0    0  502    0  0.00000000000E+00  0.00000000000E+00  0.44042142842E+03  0.44042142842E+03  0.00000000000E+00 0. -1.
          1   -1    0    0  501    0 -0.00000000000E+00 -0.00000000000E+00 -0.14593427281E+04  0.14593427281E+04  0.00000000000E+00 0. -1.
         25    2    1    2    0    0 -0.19721347850E+02  0.19530209671E+02  0.13663011454E+03  0.18724758188E+03  0.12499403214E+03 0.  0.
          2    1    1    2  501    0  0.30193031370E+02  0.30493468868E+01 -0.14333169323E+04  0.14336381503E+04  0.00000000000E+00 0. -1.
          1    1    1    2  502    0 -0.10471683520E+02 -0.22579556557E+02  0.27776551806E+03  0.27887842433E+03  0.00000000000E+00 0. -1.
         22    1    3    3    0    0 -0.15894575989E+02  0.69498312463E+02  0.49699514676E+02  0.86906241088E+02  0.00000000000E+00 0.  1.
         22    1    3    3    0    0 -0.38267718618E+01 -0.49968102793E+02  0.86930599862E+02  0.10034134079E+03  0.00000000000E+00 0.  1.
</event>
<event>
 7    1  0.8278507E-006  0.1432056E+03  0.7818608E-02  0.1276158E+00
          2   -1    0    0  502    0  0.00000000000E+00  0.00000000000E+00  0.13090859303E+04  0.13090859303E+04  0.00000000000E+00 0. -1.
          1   -1    0    0  501    0 -0.00000000000E+00 -0.00000000000E+00 -0.80674680185E+03  0.80674680185E+03  0.00000000000E+00 0. -1.
         25    2    1    2    0    0  0.16087975691E+03 -0.13287489595E+03  0.38266956634E+03  0.45342970652E+03  0.12499787037E+03 0.  0.
          2    1    1    2  501    0 -0.12345464007E+03  0.70615654232E+02 -0.76330672522E+03  0.77644367185E+03  0.00000000000E+00 0. -1.
          1    1    1    2  502    0 -0.37425116839E+02  0.62259241715E+02  0.88297628733E+03  0.88595935377E+03  0.00000000000E+00 0. -1.
         22    1    3    3    0    0  0.10899417871E+03 -0.44911957753E+02  0.29902189620E+03  0.32142014459E+03  0.00000000000E+00 0. -1.
         22    1    3    3    0    0  0.51885578195E+02 -0.87962938194E+02  0.83647670138E+02  0.13200956193E+03  0.00000000000E+00 0. -1.
</event>
<event>
 7    1  0.8278507E-006  0.1166127E+03  0.7818608E-02  0.1305265E+00
          2   -1    0    0  502    0  0.00000000000E+00  0.00000000000E+00  0.31840760485E+03  0.31840760485E+03  0.00000000000E+00 0. -1.
          1   -1    0    0  501    0 -0.00000000000E+00 -0.00000000000E+00 -0.28385682153E+04  0.28385682153E+04  0.00000000000E+00 0. -1.
         25    2    1    2    0    0  0.34269391730E+02 -0.12451308191E+03 -0.47778842778E+03  0.51047544912E+03  0.12500201461E+03 0.  0.
          2    1    1    2  501    0  0.51058741004E+02  0.44823538481E+02 -0.23326413383E+04  0.23336305958E+04  0.00000000000E+00 0. -1.
          1    1    1    2  502    0 -0.85328132734E+02  0.79689543430E+02  0.29026915560E+03  0.31286977524E+03  0.00000000000E+00 0. -1.
         22    1    3    3    0    0  0.17782894647E+02 -0.81510895322E+02 -0.10153486809E+03  0.13141380003E+03  0.00000000000E+00 0.  1.
         22    1    3    3    0    0  0.16486497083E+02 -0.43002186588E+02 -0.37625355969E+03  0.37906164910E+03  0.00000000000E+00 0.  1.
</event>
<event>
 7    1  0.8278507E-006  0.9363196E+02  0.7818608E-02  0.1342689E+00
          2   -1    0    0  502    0  0.00000000000E+00  0.00000000000E+00  0.31310814998E+04  0.31310814998E+04  0.00000000000E+00 0. -1.
          1   -1    0    0  501    0 -0.00000000000E+00 -0.00000000000E+00 -0.14614372025E+04  0.14614372025E+04  0.00000000000E+00 0. -1.
         25    2    1    2    0    0 -0.65878506134E+02 -0.83116472151E+02  0.14497691514E+04  0.14590079202E+04  0.12500077333E+03 0.  0.
          2    1    1    2  501    0  0.59704788806E+02 -0.10895016189E+02 -0.14548611735E+04  0.14561265046E+04  0.00000000000E+00 0. -1.
          1    1    1    2  502    0  0.61737173277E+01  0.94011488339E+02  0.16747363194E+04  0.16773842775E+04  0.00000000000E+00 0. -1.
         22    1    3    3    0    0 -0.85180636744E+01 -0.10035374504E+03  0.10432507885E+04  0.10481009680E+04  0.00000000000E+00 0.  1.
         22    1    3    3    0    0 -0.57360442459E+02  0.17237272893E+02  0.40651836294E+03  0.41090695217E+03  0.00000000000E+00 0.  1.
</event>
<event>
 7    1  0.8278507E-006  0.9106917E+02  0.7818608E-02  0.1300925E+00
          2   -1    0    0  502    0  0.00000000000E+00  0.00000000000E+00  0.11997309472E+04  0.11997309472E+04  0.00000000000E+00 0. -1.
          1   -1    0    0  501    0 -0.00000000000E+00 -0.00000000000E+00 -0.27371078348E+04  0.27371078348E+04  0.00000000000E+00 0. -1.
         25    2    1    2    0    0 -0.26487107507E+02  0.26025144137E+01  0.32364867444E+03  0.34796697150E+03  0.12499683533E+03 0.  0.
          2    1    1    2  501    0 -0.54242175849E+02  0.73153128267E+02 -0.27206370179E+04  0.27221607919E+04  0.00000000000E+00 0. -1.
          1    1    1    2  502    0  0.80729283356E+02 -0.75755642681E+02  0.85961145592E+03  0.86671101859E+03  0.00000000000E+00 0. -1.
         22    1    3    3    0    0 -0.18592064246E+02 -0.14002212280E+02 -0.51654514870E+00  0.23280756443E+02  0.00000000000E+00 0.  1.
         22    1    3    3    0    0 -0.78950432605E+01  0.16604726694E+02  0.32416521959E+03  0.32468621506E+03  0.00000000000E+00 0.  1.
</event>
<event>
 7    1  0.8278507E-006  0.1337799E+03  0.7818608E-02  0.1294795E+00
          2   -1    0    0  502    0  0.00000000000E+00  0.00000000000E+00  0.20814076085E+04  0.20814076085E+04  0.00000000000E+00 0. -1.
          1   -1    0    0  501    0 -0.00000000000E+00 -0.00000000000E+00 -0.62613817846E+02  0.62613817846E+02  0.00000000000E+00 0. -1.
         25    2    1    2    0    0 -0.18450100235E+02 -0.15953735754E+03  0.41551694232E+03  0.46268586584E+03  0.12502522323E+03 0.  0.
          2    1    1    2  501    0  0.56237122818E+02  0.33038250558E+02 -0.70519833747E+01  0.65603890527E+02  0.00000000000E+00 0. -1.
          1    1    1    2  502    0 -0.37787022583E+02  0.12649910698E+03  0.16103288317E+04  0.16157316700E+04  0.00000000000E+00 0. -1.
         22    1    3    3    0    0  0.49048608603E+02 -0.10789532267E+03  0.24516280207E+03  0.27230858631E+03  0.00000000000E+00 0. -1.
         22    1    3    3    0    0 -0.67498708838E+02 -0.51642034864E+02  0.17035414025E+03  0.19037727953E+03  0.00000000000E+00 0. -1.
</event>
<event>
 7    1  0.8278507E-006  0.6945091E+02  0.7818608E-02  0.1478048E+00
          2   -1    0    0  502    0  0.00000000000E+00  0.00000000000E+00  0.32005161045E+03  0.32005161045E+03  0.00000000000E+00 0. -1.
          1   -1    0    0  501    0 -0.00000000000E+00 -0.00000000000E+00 -0.32998463743E+03  0.32998463743E+03  0.00000000000E+00 0. -1.
         25    2    1    2    0    0 -0.88081018509E+02  0.33128021757E+01  0.11170493537E+03  0.18940161829E+03  0.12500295974E+03 0.  0.
          2    1    1    2  501    0  0.24038049633E+02  0.15123615266E+02 -0.28384938770E+03  0.28526658842E+03  0.00000000000E+00 0. -1.
          1    1    1    2  502    0  0.64042968876E+02 -0.18436417442E+02  0.16221142536E+03  0.17536804118E+03  0.00000000000E+00 0. -1.
         22    1    3    3    0    0 -0.83973115484E+02 -0.36845178087E+02  0.11703721213E+03  0.14868342307E+03  0.00000000000E+00 0. -1.
         22    1    3    3    0    0 -0.41079030251E+01  0.40157980263E+02 -0.53322767607E+01  0.40718195214E+02  0.00000000000E+00 0. -1.
</event>
<event>
 7    1  0.8278507E-006  0.1726894E+03  0.7818608E-02  0.1230734E+00
          2   -1    0    0  502    0  0.00000000000E+00  0.00000000000E+00  0.13338551930E+04  0.13338551930E+04  0.00000000000E+00 0. -1.
          1   -1    0    0  501    0 -0.00000000000E+00 -0.00000000000E+00 -0.26566183589E+03  0.26566183589E+03  0.00000000000E+00 0. -1.
         25    2    1    2    0    0  0.36565999626E+02 -0.13351706129E+03  0.27639243358E+03  0.33344046805E+03  0.12500356159E+03 0.  0.
          2    1    1    2  501    0  0.50097607521E+02  0.17145147915E+03 -0.20093121766E+03  0.26884704613E+03  0.00000000000E+00 0. -1.
          1    1    1    2  502    0 -0.86663607147E+02 -0.37934417854E+02  0.99273214123E+03  0.99722951476E+03  0.00000000000E+00 0. -1.
         22    1    3    3    0    0 -0.24970825695E+02 -0.53825846196E+02  0.28388204714E+02  0.65777306281E+02  0.00000000000E+00 0. -1.
         22    1    3    3    0    0  0.61536825322E+02 -0.79691215098E+02  0.24800422886E+03  0.26766316177E+03  0.00000000000E+00 0. -1.
</event>
<event>
 7    1  0.8278507E-006  0.5934029E+02  0.7818608E-02  0.1418743E+00
          2   -1    0    0  502    0  0.00000000000E+00  0.00000000000E+00  0.50106085655E+02  0.50106085655E+02  0.00000000000E+00 0. -1.
          1   -1    0    0  501    0 -0.00000000000E+00 -0.00000000000E+00 -0.14908018906E+04  0.14908018906E+04  0.00000000000E+00 0. -1.
         25    2    1    2    0    0 -0.21031121240E+02 -0.25626671333E+02 -0.14291837571E+03  0.19276847693E+03  0.12503995056E+03 0.  0.
          2    1    1    2  501    0  0.27526367943E+02 -0.43540520758E+02 -0.12735101602E+04  0.12745515313E+04  0.00000000000E+00 0. -1.
          1    1    1    2  502    0 -0.64952467037E+01  0.69167192091E+02 -0.24267269067E+02  0.73587968034E+02  0.00000000000E+00 0. -1.
         22    1    3    3    0    0 -0.10789988033E+02  0.45959401948E+02 -0.94809320162E+02  0.10591268885E+03  0.00000000000E+00 0. -1.
         22    1    3    3    0    0 -0.10241133207E+02 -0.71586073280E+02 -0.48109055550E+02  0.86855788080E+02  0.00000000000E+00 0. -1.
</event>
<event>
 7    1  0.8278507E-006  0.7733979E+02  0.7818608E-02  0.1482809E+00
          2   -1    0    0  502    0  0.00000000000E+00  0.00000000000E+00  0.37738547032E+03  0.37738547032E+03  0.00000000000E+00 0. -1.
          1   -1    0    0  501    0 -0.00000000000E+00 -0.00000000000E+00 -0.72694411408E+03  0.72694411408E+03  0.00000000000E+00 0. -1.
         25    2    1    2    0    0  0.93288356156E+02  0.27763291831E+02 -0.13761921101E+03  0.20985268437E+03  0.12500233649E+03 0.  0.
          2    1    1    2  501    0 -0.24022003420E+02  0.55733487025E+01 -0.54859884960E+03  0.54915281720E+03  0.00000000000E+00 0. -1.
          1    1    1    2  502    0 -0.69266352736E+02 -0.33336640533E+02  0.33665941685E+03  0.34532408282E+03  0.00000000000E+00 0. -1.
         22    1    3    3    0    0  0.81755369572E+02  0.72484004951E+02 -0.77101470880E+02  0.13372549585E+03  0.00000000000E+00 0.  1.
         22    1    3    3    0    0  0.11532986584E+02 -0.44720713120E+02 -0.60517740130E+02  0.76127188520E+02  0.00000000000E+00 0.  1.
</event>
<event>
 7    1  0.8278507E-006  0.1982809E+03  0.7818608E-02  0.1282551E+00
          2   -1    0    0  502    0  0.00000000000E+00  0.00000000000E+00  0.20578466101E+04  0.20578466101E+04  0.00000000000E+00 0. -1.
          1   -1    0    0  501    0 -0.00000000000E+00 -0.00000000000E+00 -0.44793554880E+03  0.44793554880E+03  0.00000000000E+00 0. -1.
         25    2    1    2    0    0 -0.14344673726E+03 -0.18103217510E+03 -0.16113846784E+03  0.30812326662E+03  0.12499890705E+03 0.  0.
          2    1    1    2  501    0  0.48791301881E+02  0.75070641484E+01 -0.20545133380E+03  0.21129883509E+03  0.00000000000E+00 0. -1.
          1    1    1    2  502    0  0.94655435383E+02  0.17352511095E+03  0.19765008629E+04  0.19863600572E+04  0.00000000000E+00 0. -1.
         22    1    3    3    0    0 -0.91056420092E+02 -0.24808905956E+02 -0.35176289516E+02  0.10071804604E+03  0.00000000000E+00 0.  1.
         22    1    3    3    0    0 -0.52390317173E+02 -0.15622326914E+03 -0.12596217832E+03  0.20740522058E+03  0.00000000000E+00 0.  1.
</event>
<event>
 7    1  0.8278507E-006  0.1574404E+03  0.7818608E-02  0.1218345E+00
          2   -1    0    0  502    0  0.00000000000E+00  0.00000000000E+00  0.93517969019E+03  0.93517969019E+03  0.00000000000E+00 0. -1.
          1   -1    0    0  501    0 -0.00000000000E+00 -0.00000000000E+00 -0.15637960997E+03  0.15637960997E+03  0.00000000000E+00 0. -1.
         25    2    1    2    0    0  0.31604137557E+01 -0.35891805499E+02  0.11723287109E+03  0.17511820819E+03  0.12499852343E+03 0.  0.
          2    1    1    2  501    0 -0.15807602431E+03  0.78091895664E+01 -0.66407372307E+02  0.17163610343E+03  0.00000000000E+00 0. -1.
          1    1    1    2  502    0  0.15491561056E+03  0.28082615933E+02  0.72797458144E+03  0.74480498853E+03  0.00000000000E+00 0. -1.
         22    1    3    3    0    0  0.33599887296E+02  0.23711009847E+02  0.11682037373E+01  0.41140358704E+02  0.00000000000E+00 0.  1.
         22    1    3    3    0    0 -0.30439473541E+02 -0.59602815347E+02  0.11606466735E+03  0.13397784949E+03  0.00000000000E+00 0.  1.
</event>
<event>
 7    1  0.8278507E-006  0.1466075E+03  0.7818608E-02  0.1222593E+00
          2   -1    0    0  502    0  0.00000000000E+00  0.00000000000E+00  0.22769672508E+04  0.22769672508E+04  0.00000000000E+00 0. -1.
          1   -1    0    0  501    0 -0.00000000000E+00 -0.00000000000E+00 -0.12163966185E+04  0.12163966185E+04  0.00000000000E+00 0. -1.
         25    2    1    2    0    0  0.32633431841E+02  0.20414022525E+03  0.83833874336E+03  0.87245402124E+03  0.12500399242E+03 0.  0.
          2    1    1    2  501    0 -0.10227659999E+03 -0.10487407765E+03 -0.11922621380E+04  0.12012277389E+04  0.00000000000E+00 0. -1.
          1    1    1    2  502    0  0.69643168151E+02 -0.99266147604E+02  0.14144940269E+04  0.14196821091E+04  0.00000000000E+00 0. -1.
         22    1    3    3    0    0 -0.11057074482E+02  0.63597634968E+02  0.49093180425E+03  0.49515750473E+03  0.00000000000E+00 0. -1.
         22    1    3    3    0    0  0.43690506323E+02  0.14054259029E+03  0.34740693911E+03  0.37729651651E+03  0.00000000000E+00 0. -1.
</event>
<event>
 7    1  0.8278507E-006  0.5013474E+02  0.7818608E-02  0.1482981E+00
          2   -1    0    0  502    0  0.00000000000E+00  0.00000000000E+00  0.72228086614E+03  0.72228086614E+03  0.00000000000E+00 0. -1.
          1   -1    0    0  501    0 -0.00000000000E+00 -0.00000000000E+00 -0.47864957357E+03  0.47864957357E+03  0.00000000000E+00 0. -1.
         25    2    1    2    0    0 -0.89626646100E+01 -0.86330009777E+02 -0.45973404600E+02  0.15897012685E+03  0.12499898942E+03 0.  0.
          2    1    1    2  501    0  0.14845293222E+01  0.49077500278E+02 -0.37402991348E+03  0.37723889120E+03  0.00000000000E+00 0. -1.
          1    1    1    2  502    0  0.74781352877E+01  0.37252509499E+02  0.66363461064E+03  0.66472142166E+03  0.00000000000E+00 0. -1.
         22    1    3    3    0    0  0.40971349754E+02 -0.15909101214E+01  0.14522053709E+02  0.43497960177E+02  0.00000000000E+00 0.  1.
         22    1    3    3    0    0 -0.49934014364E+02 -0.84739099655E+02 -0.60495458309E+02  0.11547216668E+03  0.00000000000E+00 0.  1.
</event>
<event>
 7    1  0.8278507E-006  0.8706789E+02  0.7818608E-02  0.1475185E+00
          2   -1    0    0  502    0  0.00000000000E+00  0.00000000000E+00  0.35076881624E+03  0.35076881624E+03  0.00000000000E+00 0. -1.
          1   -1    0    0  501    0 -0.00000000000E+00 -0.00000000000E+00 -0.96975256816E+02  0.96975256816E+02  0.00000000000E+00 0. -1.
         25    2    1    2    0    0 -0.84564273090E+02 -0.39679968887E+02  0.30178497470E+02  0.15893917578E+03  0.12500121470E+03 0.  0.
          2    1    1    2  501    0  0.17483627133E+02 -0.15125727929E+02 -0.19798546065E+02  0.30437596643E+02  0.00000000000E+00 0. -1.
          1    1    1    2  502    0  0.67080645956E+02  0.54805696816E+02  0.24341360801E+03  0.25836730062E+03  0.00000000000E+00 0. -1.
         22    1    3    3    0    0  0.18812056523E+02 -0.49292306012E+01 -0.28954203049E+02  0.34878885578E+02  0.00000000000E+00 0. -1.
         22    1    3    3    0    0 -0.10337632961E+03 -0.34750738286E+02  0.59132700518E+02  0.12406029021E+03  0.00000000000E+00 0. -1.
</event>
<event>
 7    1  0.8278507E-006  0.1424934E+03  0.7818608E-02  0.1411064E+00
          2   -1    0    0  502    0  0.00000000000E+00  0.00000000000E+00  0.35962075121E+03  0.35962075121E+03  0.00000000000E+00 0. -1.
          1   -1    0    0  501    0 -0.00000000000E+00 -0.00000000000E+00 -0.36115633794E+03  0.36115633794E+03  0.00000000000E+00 0. -1.
         25    2    1    2    0    0 -0.25536502721E+02 -0.11819649384E+03  0.25633594553E+03  0.30976667486E+03  0.12499900702E+03 0.  0.
          2    1    1    2  501    0  0.29510414179E+02  0.14061365988E+03 -0.31678849393E+03  0.34784769049E+03  0.00000000000E+00 0. -1.
          1    1    1    2  502    0 -0.39739114588E+01 -0.22417166042E+02  0.58916961680E+02  0.63162723811E+02  0.00000000000E+00 0. -1.
         22    1    3    3    0    0 -0.72742522634E+02 -0.90609996775E+02  0.19970296672E+03  0.23104744325E+03  0.00000000000E+00 0.  1.
         22    1    3    3    0    0  0.47206019914E+02 -0.27586497065E+02  0.56632978808E+02  0.78719231609E+02  0.00000000000E+00 0.  1.
</event>
<event>
 7    1  0.8278507E-006  0.7011314E+02  0.7818608E-02  0.1423892E+00
          2   -1    0    0  502    0  0.00000000000E+00  0.00000000000E+00  0.14864227902E+04  0.14864227902E+04  0.00000000000E+00 0. -1.
          1   -1    0    0  501    0 -0.00000000000E+00 -0.00000000000E+00 -0.31320229415E+03  0.31320229415E+03  0.00000000000E+00 0. -1.
         25    2    1    2    0    0  0.87288526610E+00 -0.31430558869E+02  0.24367205223E+02  0.13117937218E+03  0.12500250012E+03 0.  0.
          2    1    1    2  501    0  0.94211415569E+01  0.72054346808E+02 -0.25439579266E+03  0.26457098504E+03  0.00000000000E+00 0. -1.
          1    1    1    2  502    0 -0.10294026823E+02 -0.40623787939E+02  0.14032490835E+04  0.14038747271E+04  0.00000000000E+00 0. -1.
         22    1    3    3    0    0  0.54341372326E+02 -0.36083595285E+02 -0.12030970432E+02  0.66330647852E+02  0.00000000000E+00 0.  1.
         22    1    3    3    0    0 -0.53468487060E+02  0.46530364168E+01  0.36398175655E+02  0.64848724331E+02  0.00000000000E+00 0.  1.
</event>
<event>
 7    1  0.8278507E-006  0.5293949E+02  0.7818608E-02  0.1507463E+00
          2   -1    0    0  502    0  0.00000000000E+00  0.00000000000E+00  0.19930292999E+04  0.19930292999E+04  0.00000000000E+00 0. -1.
          1   -1    0    0  501    0 -0.00000000000E+00 -0.00000000000E+00 -0.34392570506E+02  0.34392570506E+02  0.00000000000E+00 0. -1.
         25    2    1    2    0    0  0.72026782423E+02 -0.24246356880E+02  0.37559284926E+03  0.40307316641E+03  0.12498898296E+03 0.  0.
          2    1    1    2  501    0 -0.19717324400E+02  0.23108540329E+02 -0.88148405530E+01  0.31630348268E+02  0.00000000000E+00 0. -1.
          1    1    1    2  502    0 -0.52309458023E+02  0.11378165512E+01  0.15918587207E+04  0.15927183557E+04  0.00000000000E+00 0. -1.
         22    1    3    3    0    0  0.10520683190E+03 -0.90455147694E+01  0.23175860241E+03  0.25468087602E+03  0.00000000000E+00 0. -1.
         22    1    3    3    0    0 -0.33180049478E+02 -0.15200842110E+02  0.14383424684E+03  0.14839229040E+03  0.00000000000E+00 0. -1.
</event>
<event>
 7    1  0.8278507E-006  0.8711916E+02  0.7818608E-02  0.1332103E+00
          2   -1    0    0  502    0  0.00000000000E+00  0.00000000000E+00  0.27316710081E+04  0.27316710081E+04  0.00000000000E+00 0. -1.
          1   -1    0    0  501    0 -0.00000000000E+00 -0.00000000000E+00 -0.59176132733E+02  0.59176132733E+02  0.00000000000E+00 0. -1.
         25    2    1    2    0    0  0.42198195177E+02 -0.28281824641E+02  0.50427566867E+03  0.52201477539E+03  0.12499970574E+03 0.  0.
          2    1    1    2  501    0 -0.87512866118E+02 -0.27048954377E+02 -0.75312022690E+01  0.91906836942E+02  0.00000000000E+00 0. -1.
          1    1    1    2  502    0  0.45314670941E+02  0.55330779018E+02  0.21757504089E+04  0.21769255285E+04  0.00000000000E+00 0. -1.
         22    1    3    3    0    0  0.36720017113E+02  0.15682801636E+02  0.45082372735E+03  0.45258849197E+03  0.00000000000E+00 0. -1.
         22    1    3    3    0    0  0.54781780645E+01 -0.43964626277E+02  0.53451941316E+02  0.69426283417E+02  0.00000000000E+00 0. -1.
</event>
<event>
 7    1  0.8278507E-006  0.2455053E+03  0.7818608E-02  0.1233299E+00
          2   -1    0    0  502    0  0.00000000000E+00  0.00000000000E+00  0.26725376165E+04  0.26725376165E+04  0.00000000000E+00 0. -1.
          1   -1    0    0  501    0 -0.00000000000E+00 -0.00000000000E+00 -0.22421377443E+03  0.22421377443E+03  0.00000000000E+00 0. -1.
         25    2    1    2    0    0 -0.23105095742E+03 -0.11853960193E+03  0.80949353614E+03  0.85926111060E+03  0.12495474771E+03 0.  0.
          2    1    1    2  501    0 -0.57372400729E+01  0.64555410881E+02 -0.18579431430E+03  0.19677358620E+03  0.00000000000E+00 0. -1.
          1    1    1    2  502    0  0.23678819749E+03  0.53984191047E+02  0.18246246202E+04  0.18407166941E+04  0.00000000000E+00 0. -1.
         22    1    3    3    0    0 -0.30510304444E+02 -0.77029180658E+02  0.20997645145E+03  0.22573099812E+03  0.00000000000E+00 0.  1.
         22    1    3    3    0    0 -0.20054065298E+03 -0.41510421270E+02  0.59951708469E+03  0.63353011247E+03  0.00000000000E+00 0.  1.
</event>
<event>
 7    1  0.8278507E-006  0.1115751E+03  0.7818608E-02  0.1414452E+00
          2   -1    0    0  502    0  0.00000000000E+00  0.00000000000E+00  0.14969625997E+04  0.14969625997E+04  0.00000000000E+00 0. -1.
          1   -1    0    0  501    0 -0.00000000000E+00 -0.00000000000E+00 -0.44645541101E+02  0.44645541101E+02  0.00000000000E+00 0. -1.
         25    2    1    2    0    0  0.43437438362E+02 -0.85438090326E+02  0.72611070000E+03  0.74299923144E+03  0.12499852369E+03 0.  0.
          2    1    1    2  501    0 -0.23481573271E+01 -0.28222448591E+02 -0.24979591554E+02  0.37762421023E+02  0.00000000000E+00 0. -1.
          1    1    1    2  502    0 -0.41089281035E+02  0.11366053892E+03  0.75118595013E+03  0.76084648833E+03  0.00000000000E+00 0. -1.
         22    1    3    3    0    0  0.25820439285E+02  0.28418595133E+02  0.11860839577E+03  0.12466861346E+03  0.00000000000E+00 0.  1.
         22    1    3    3    0    0  0.17616999077E+02 -0.11385668546E+03  0.60750230423E+03  0.61833061798E+03  0.00000000000E+00 0.  1.
</event>
<event>
 7    1  0.8278507E-006  0.1078411E+03  0.7818608E-02  0.1275396E+00
          2   -1    0    0  502    0  0.00000000000E+00  0.00000000000E+00  0.13442188853E+04  0.13442188853E+04  0.00000000000E+00 0. -1.
          1   -1    0    0  501    0 -0.00000000000E+00 -0.00000000000E+00 -0.19110792840E+04  0.19110792840E+04  0.00000000000E+00 0. -1.
         25    2    1    2    0    0  0.11098377460E+03 -0.17085344176E+03 -0.13576197049E+04  0.13785010129E+04  0.12500193066E+03 0.  0.
          2    1    1    2  501    0 -0.43634481187E+02  0.86822680335E+02 -0.53647346817E+03  0.54520264840E+03  0.00000000000E+00 0. -1.
          1    1    1    2  502    0 -0.67349293413E+02  0.84030761422E+02  0.13272327744E+04  0.13315945079E+04  0.00000000000E+00 0. -1.
         22    1    3    3    0    0 -0.25471409197E+02 -0.45444956651E+02 -0.23687123839E+03  0.24253251400E+03  0.00000000000E+00 0.  1.
         22    1    3    3    0    0  0.13645518380E+03 -0.12540848511E+03 -0.11207484666E+04  0.11359684989E+04  0.00000000000E+00 0.  1.
</event>
<event>
 7    1  0.8278507E-006  0.8692364E+02  0.7818608E-02  0.1314857E+00
          2   -1    0    0  502    0  0.00000000000E+00  0.00000000000E+00  0.10700163810E+04  0.10700163810E+04  0.00000000000E+00 0. -1.
          1   -1    0    0  501    0 -0.00000000000E+00 -0.00000000000E+00 -0.46148645637E+03  0.46148645637E+03  0.00000000000E+00 0. -1.
         25    2    1    2    0    0 -0.39450175183E+02 -0.11055676921E+03 -0.17446105780E+03  0.24463895640E+03  0.12502976749E+03 0.  0.
          2    1    1    2  501    0  0.78235088095E+02  0.36554182135E+02 -0.24278811038E+03  0.25768780294E+03  0.00000000000E+00 0. -1.
          1    1    1    2  502    0 -0.38784912912E+02  0.74002587070E+02  0.10257790928E+04  0.10291760780E+04  0.00000000000E+00 0. -1.
         22    1    3    3    0    0 -0.27621506583E+02 -0.12610327189E+01  0.10415053443E+02  0.29546762388E+02  0.00000000000E+00 0.  1.
         22    1    3    3    0    0 -0.11828668600E+02 -0.10929573649E+03 -0.18487611124E+03  0.21509219401E+03  0.00000000000E+00 0.  1.
</event>
<event>
 7    1  0.8278507E-006  0.3974806E+03  0.7818608E-02  0.1249547E+00
          2   -1    0    0  502    0  0.00000000000E+00  0.00000000000E+00  0.16548583456E+04  0.16548583456E+04  0.00000000000E+00 0. -1.
          1   -1    0    0  501    0 -0.00000000000E+00 -0.00000000000E+00 -0.57335692892E+03  0.57335692892E+03  0.00000000000E+00 0. -1.
         25    2    1    2    0    0  0.10883506753E+03  0.38245354425E+03 -0.11856472176E+03  0.43335742702E+03  0.12500112349E+03 0.  0.
          2    1    1    2  501    0 -0.33035360143E+02  0.78463418866E+01 -0.26992222592E+03  0.27204945900E+03  0.00000000000E+00 0. -1.
          1    1    1    2  502    0 -0.75799707389E+02 -0.39029988614E+03  0.14699883644E+04  0.15228083885E+04  0.00000000000E+00 0. -1.
         22    1    3    3    0    0  0.28116028358E+02  0.27874454229E+03 -0.48163890522E+02  0.28426887141E+03  0.00000000000E+00 0.  1.
         22    1    3    3    0    0  0.80719039173E+02  0.10370900196E+03 -0.70400831238E+02  0.14908855560E+03  0.00000000000E+00 0.  1.
</event>
<event>
 7    1  0.8278507E-006  0.2046781E+03  0.7818608E-02  0.1282095E+00
          2   -1    0    0  502    0  0.00000000000E+00  0.00000000000E+00  0.12501216090E+03  0.12501216090E+03  0.00000000000E+00 0. -1.
          1   -1    0    0  501    0 -0.00000000000E+00 -0.00000000000E+00 -0.35671596375E+04  0.35671596375E+04  0.00000000000E+00 0. -1.
         25    2    1    2    0    0 -0.89521859825E+01 -0.24607792935E+03 -0.72362105331E+03  0.77452361856E+03  0.12499967187E+03 0.  0.
          2    1    1    2  501    0  0.14777820939E+02  0.19840299876E+03 -0.28085636028E+04  0.28156014713E+04  0.00000000000E+00 0. -1.
          1    1    1    2  502    0 -0.58256349564E+01  0.47674930592E+02  0.90037179539E+02  0.10204670856E+03  0.00000000000E+00 0. -1.
         22    1    3    3    0    0 -0.53713813241E+02 -0.15363009703E+03 -0.54156608664E+03  0.56549200406E+03  0.00000000000E+00 0. -1.
         22    1    3    3    0    0  0.44761627258E+02 -0.92447832315E+02 -0.18205496666E+03  0.20903161450E+03  0.00000000000E+00 0. -1.
</event>
<event>
 7    1  0.8278507E-006  0.5499740E+02  0.7818608E-02  0.1420501E+00
          2   -1    0    0  502    0  0.00000000000E+00  0.00000000000E+00  0.27906828678E+04  0.27906828678E+04  0.00000000000E+00 0. -1.
          1   -1    0    0  501    0 -0.00000000000E+00 -0.00000000000E+00 -0.15223157289E+04  0.15223157289E+04  0.00000000000E+00 0. -1.
         25    2    1    2    0    0  0.93758470937E+01 -0.17748204015E+02  0.29608080487E+03  0.32201228582E+03  0.12500065581E+03 0.  0.
          2    1    1    2  501    0  0.42767645948E+02  0.34710053034E+02 -0.15085444256E+04  0.15095496491E+04  0.00000000000E+00 0. -1.
          1    1    1    2  502    0 -0.52143493042E+02 -0.16961849019E+02  0.24808307596E+04  0.24814366617E+04  0.00000000000E+00 0. -1.
         22    1    3    3    0    0 -0.26966629538E+02  0.45255309804E+02  0.14653457414E+03  0.15571648465E+03  0.00000000000E+00 0.  1.
         22    1    3    3    0    0  0.36342476631E+02 -0.63003513819E+02  0.14954623073E+03  0.16629580117E+03  0.00000000000E+00 0.  1.
</event>
<event>
 7    1  0.8278507E-006  0.5550068E+02  0.7818608E-02  0.1436765E+00
          2   -1    0    0  502    0  0.00000000000E+00  0.00000000000E+00  0.39938951454E+03  0.39938951454E+03  0.00000000000E+00 0. -1.
          1   -1    0    0  501    0 -0.00000000000E+00 -0.00000000000E+00 -0.97775657778E+03  0.97775657778E+03  0.00000000000E+00 0. -1.
         25    2    1    2    0    0  0.53306472802E+02  0.56659929428E+02 -0.16099193161E+03  0.21816275421E+03  0.12499863054E+03 0.  0.
          2    1    1    2  501    0 -0.47998290465E+02 -0.14821462573E+01 -0.78537006498E+03  0.78683681384E+03  0.00000000000E+00 0. -1.
          1    1    1    2  502    0 -0.53081823366E+01 -0.55177783171E+02  0.36799493335E+03  0.37214652427E+03  0.00000000000E+00 0. -1.
         22    1    3    3    0    0  0.36206410942E+02  0.94007532181E+02 -0.85120197682E+02  0.13188543647E+03  0.00000000000E+00 0.  1.
         22    1    3    3    0    0  0.17100061859E+02 -0.37347602753E+02 -0.75871733930E+02  0.86277317741E+02  0.00000000000E+00 0.  1.
</event>
<event>
 7    1  0.8278507E-006  0.1938577E+03  0.7818608E-02  0.1303260E+00
          2   -1    0    0  502    0  0.00000000000E+00  0.00000000000E+00  0.10254238693E+04  0.10254238693E+04  0.00000000000E+00 0. -1.
          1   -1    0    0  501    0 -0.00000000000E+00 -0.00000000000E+00 -0.10521945333E+03  0.10521945333E+03  0.00000000000E+00 0. -1.
         25    2    1    2    0    0 -0.13834367822E+03 -0.14128497750E+03  0.38053115195E+03  0.44669552478E+03  0.12503006073E+03 0.  0.
          2    1    1    2  501    0 -0.23062327175E+02  0.34654320269E+02 -0.49005610437E+02  0.64298854596E+02  0.00000000000E+00 0. -1.
          1    1    1    2  502    0  0.16140600539E+03  0.10663065723E+03  0.58867887445E+03  0.61964894324E+03  0.00000000000E+00 0. -1.
         22    1    3    3    0    0 -0.41747378350E+02  0.14940247594E+02  0.11997255053E+03  0.12790413393E+03  0.00000000000E+00 0. -1.
         22    1    3    3    0    0 -0.96596299868E+02 -0.15622522510E+03  0.26055860142E+03  0.31879139085E+03  0.00000000000E+00 0. -1.
</event>
<event>
 7    1  0.8278507E-006  0.5742098E+02  0.7818608E-02  0.1425699E+00
          2   -1    0    0  502    0  0.00000000000E+00  0.00000000000E+00  0.36320428421E+04  0.36320428421E+04  0.00000000000E+00 0. -1.
          1   -1    0    0  501    0 -0.00000000000E+00 -0.00000000000E+00 -0.18205087332E+03  0.18205087332E+03  0.00000000000E+00 0. -1.
         25    2    1    2    0    0 -0.30085584053E+01  0.91442248449E+01  0.10886308148E+03  0.16604023124E+03  0.12500207842E+03 0.  0.
          2    1    1    2  501    0 -0.12339642673E+01 -0.59435226172E+02 -0.14751569203E+03  0.15904385613E+03  0.00000000000E+00 0. -1.
          1    1    1    2  502    0  0.42425226726E+01  0.50291001328E+02  0.34886445793E+04  0.34890096281E+04  0.00000000000E+00 0. -1.
         22    1    3    3    0    0  0.49430953701E+02  0.40238117866E+02  0.47064485457E+02  0.79231250807E+02  0.00000000000E+00 0. -1.
         22    1    3    3    0    0 -0.52439512106E+02 -0.31093893021E+02  0.61798596020E+02  0.86808980429E+02  0.00000000000E+00 0. -1.
</event>
<event>
 7    1  0.8278507E-006  0.6345237E+02  0.7818608E-02  0.1509777E+00
          2   -1    0    0  502    0  0.00000000000E+00  0.00000000000E+00  0.13072792123E+04  0.13072792123E+04  0.00000000000E+00 0. -1.
          1   -1    0    0  501    0 -0.00000000000E+00 -0.00000000000E+00 -0.19464526203E+03  0.19464526203E+03  0.00000000000E+00 0. -1.
         25    2    1    2    0    0 -0.22694796701E+02 -0.33151274680E+02  0.43237770167E+03  0.45187309165E+03  0.12499901298E+03 0.  0.
          2    1    1    2  501    0  0.27075409631E+02  0.57712921671E+02 -0.17921641647E+03  0.19021667399E+03  0.00000000000E+00 0. -1.
          1    1    1    2  502    0 -0.43806129293E+01 -0.24561646990E+02  0.85947266505E+03  0.85983470868E+03  0.00000000000E+00 0. -1.
         22    1    3    3    0    0 -0.19389310944E+02  0.45283386202E+02  0.11858227852E+03  0.12840672577E+03  0.00000000000E+00 0. -1.
         22    1    3    3    0    0 -0.33054857569E+01 -0.78434660883E+02  0.31379542315E+03  0.32346636588E+03  0.00000000000E+00 0. -1.
</event>
<event>
 7    1  0.8278507E-006  0.2723586E+03  0.7818608E-02  0.1245865E+00
          2   -1    0    0  502    0  0.00000000000E+00  0.00000000000E+00  0.13093737636E+04  0.13093737636E+04  0.00000000000E+00 0. -1.
          1   -1    0    0  501    0 -0.00000000000E+00 -0.00000000000E+00 -0.57041564040E+03  0.57041564040E+03  0.00000000000E+00 0. -1.
         25    2    1    2    0    0  0.20815300444E+03  0.93272402041E+02  0.18909382915E+03  0.32156721385E+03  0.12498632949E+03 0.  0.
          2    1    1    2  501    0 -0.25155202411E+03 -0.12084390468E+03 -0.46486004965E+03  0.54219603087E+03  0.00000000000E+00 0. -1.
          1    1    1    2  502    0  0.43399019674E+02  0.27571502636E+02  0.10147243437E+04  0.10160261593E+04  0.00000000000E+00 0. -1.
         22    1    3    3    0    0  0.11604317815E+03 -0.60965843152E+01  0.47346320470E+02  0.12547853043E+03  0.00000000000E+00 0. -1.
         22    1    3    3    0    0  0.92109826284E+02  0.99368986356E+02  0.14174750868E+03  0.19608868342E+03  0.00000000000E+00 0. -1.
</event>
<event>
 7    1  0.8278507E-006  0.2064379E+03  0.7818608E-02  0.1351397E+00
          2   -1    0    0  502    0  0.00000000000E+00  0.00000000000E+00  0.20521006375E+04  0.20521006375E+04  0.00000000000E+00 0. -1.
          1   -1    0    0  501    0 -0.00000000000E+00 -0.00000000000E+00 -0.28577631659E+03  0.28577631659E+03  0.00000000000E+00 0. -1.
         25    2    1    2    0    0 -0.19432024399E+03 -0.11535064163E+03  0.90360728606E+03  0.93978612801E+03  0.12500284488E+03 0.  0.
          2    1    1    2  501    0  0.16885101629E+03  0.11734808931E+03 -0.22802765832E+03  0.30704698781E+03  0.00000000000E+00 0. -1.
          1    1    1    2  502    0  0.25469227705E+02 -0.19974476832E+01  0.10907446932E+04  0.10910438383E+04  0.00000000000E+00 0. -1.
         22    1    3    3    0    0 -0.71800628727E+02 -0.11009417167E+03  0.55108214236E+03  0.56654001143E+03  0.00000000000E+00 0.  1.
         22    1    3    3    0    0 -0.12251961526E+03 -0.52564699544E+01  0.35252514370E+03  0.37324611658E+03  0.00000000000E+00 0.  1.
</event>
<event>
 7    1  0.8278507E-006  0.2291772E+03  0.7818608E-02  0.1299539E+00
          2   -1    0    0  502    0  0.00000000000E+00  0.00000000000E+00  0.23751139024E+04  0.23751139024E+04  0.00000000000E+00 0. -1.
          1   -1    0    0  501    0 -0.00000000000E+00 -0.00000000000E+00 -0.10406930971E+03  0.10406930971E+03  0.00000000000E+00 0. -1.
         25    2    1    2    0    0 -0.13956306318E+03  0.14342374153E+03  0.69731288711E+03  0.73615090064E+03  0.12499867095E+03 0.  0.
          2    1    1    2  501    0  0.15895530312E+03 -0.17427233690E+03  0.80320539553E+02  0.24917669408E+03  0.00000000000E+00 0. -1.
          1    1    1    2  502    0 -0.19392239935E+02  0.30848595367E+02  0.14934111661E+04  0.14938556174E+04  0.00000000000E+00 0. -1.
         22    1    3    3    0    0 -0.13091549384E+02  0.60867395904E+02  0.84250089852E+02  0.10475832277E+03  0.00000000000E+00 0.  1.
         22    1    3    3    0    0 -0.12647151380E+03  0.82556345629E+02  0.61306279726E+03  0.63139257787E+03  0.00000000000E+00 0.  1.
</event>
