<event>
 7    1  0.6294601E-006  0.7532950E+02  0.7818608E-02  0.1421589E+00
          2   -1    0    0  502    0  0.00000000000E+00  0.00000000000E+00  0.37078287964E+03  0.37078287964E+03  0.00000000000E+00 0. -1.
          1   -1    0    0  501    0 -0.00000000000E+00 -0.00000000000E+00 -0.49097903123E+03  0.49097903123E+03  0.00000000000E+00 0. -1.
         25    2    1    2    0    0  0.10119790609E+03  0.21998692844E+02  0.20575935940E+03  0.26207650433E+03  0.12498888534E+03 0.  0.
          2    1    1    2  501    0 -0.64790537473E+02 -0.37828610830E+02 -0.45681575343E+03  0.46293568681E+03  0.00000000000E+00 0. -1.
          1    1    1    2  502    0 -0.36407368615E+02  0.15829917987E+02  0.13086024244E+03  0.13674971973E+03  0.00000000000E+00 0. -1.
         22    1    3    3    0    0  0.11046435724E+03 -0.11737354875E+02  0.95812496116E+02  0.14669756007E+03  0.00000000000E+00 0. -1.
         22    1    3    3    0    0 -0.92664511492E+01  0.33736047718E+02  0.10994686328E+03  0.11537894426E+03  0.00000000000E+00 0. -1.
</event>
<event>
 7    1  0.6294601E-006  0.1671928E+03  0.7818608E-02  0.1191348E+00
          2   -1    0    0  502    0  0.00000000000E+00  0.00000000000E+00  0.21794332937E+04  0.21794332937E+04  0.00000000000E+00 0. -1.
          1   -1    0    0  501    0 -0.00000000000E+00 -0.00000000000E+00 -0.46626595373E+03  0.46626595373E+03  0.00000000000E+00 0. -1.
         25    2    1    2    0    0  0.11664943074E+03  0.31154956436E+02  0.47864316829E+03  0.50921733247E+03  0.12500115251E+03 0.  0.
          2    1    1    2  501    0  0.48342472004E+02 -0.14061925192E+03 -0.43270230476E+03  0.45753912746E+03  0.00000000000E+00 0. -1.
          1    1    1    2  502    0 -0.16499190274E+03  0.10946429548E+03  0.16672264765E+04  0.16789427875E+04  0.00000000000E+00 0. -1.
         22    1    3    3    0    0  0.11410495145E+03  0.82971077343E+01  0.47143041168E+03  0.48511381654E+03  0.00000000000E+00 0. -1.
         22    1    3    3    0    0  0.25444792932E+01  0.22857848702E+02  0.72127566139E+01  0.24103515928E+02  0.00000000000E+00 0. -1.
</event>
<event>
 7    1  0.6294601E-006  0.6655579E+02  0.7818608E-02  0.1433777E+00
          2   -1    0    0  502    0  0.00000000000E+00  0.00000000000E+00  0.12365787076E+03  0.12365787076E+03  0.00000000000E+00 0. -1.
          1   -1    0    0  501    0 -0.00000000000E+00 -0.00000000000E+00 -0.18831522042E+04  0.18831522042E+04  0.00000000000E+00 0. -1.
         25    2    1    2    0    0 -0.32265388238E+02 -0.28516143082E+01 -0.15128880264E+03  0.19890306122E+03  0.12499975589E+03 0.  0.
          2    1    1    2  501    0  0.58032958632E+02  0.34684842343E+02 -0.17031576251E+04  0.17044989758E+04  0.00000000000E+00 0. -1.
          1    1    1    2  502    0 -0.25767570394E+02 -0.31833228035E+02  0.94952094321E+02  0.10340803792E+03  0.00000000000E+00 0. -1.
         22    1    3    3    0    0 -0.51084900532E+02  0.48603737239E+02 -0.10843637672E+03  0.12934619489E+03  0.00000000000E+00 0. -1.
         22    1    3    3    0    0  0.18819512294E+02 -0.51455351547E+02 -0.42852425923E+02  0.69556866328E+02  0.00000000000E+00 0. -1.
</event>
<event>
 7    1  0.6294601E-006  0.1576730E+03  0.7818608E-02  0.1359036E+00
          2   -1    0    0  502    0  0.00000000000E+00  0.00000000000E+00  0.84900602919E+03  0.84900602919E+03  0.00000000000E+00 0. -1.
          1   -1    0    0  501    0 -0.00000000000E+00 -0.00000000000E+00 -0.15105191223E+04  0.15105191223E+04  0.00000000000E+00 0. -1.
         25    2    1    2    0    0  0.27778334046E+02  0.14703641878E+03 -0.18803006038E+03  0.27087206060E+03  0.12500010126E+03 0.  0.
          2    1    1    2  501    0 -0.59128888359E+02 -0.14752307107E+03 -0.12758313421E+04  0.12856923798E+04  0.00000000000E+00 0. -1.
          1    1    1    2  502    0  0.31350554313E+02  0.48665229098E+00  0.80234830936E+03  0.80296071113E+03  0.00000000000E+00 0. -1.
         22    1    3    3    0    0 -0.43744838356E+02  0.99949450972E+02 -0.11203227147E+03  0.15638009299E+03  0.00000000000E+00 0.  1.
         22    1    3    3    0    0  0.71523172402E+02  0.47086967807E+02 -0.75997788905E+02  0.11449196761E+03  0.00000000000E+00 0.  1.
</event>
<event>
 7    1  0.6294601E-006  0.1024632E+03  0.7818608E-02  0.1364569E+00
          2   -1    0    0  502    0  0.00000000000E+00  0.00000000000E+00  0.54608954979E+03  0.54608954979E+03  0.00000000000E+00 0. -1.
          1   -1    0    0  501    0 -0.00000000000E+00 -0.00000000000E+00 -0.45328279099E+03  0.45328279099E+03  0.00000000000E+00 0. -1.
         25    2    1    2    0    0 -0.33377031733E+02 -0.11772789220E+03  0.30708138646E+03  0.35340992032E+03  0.12500284407E+03 0.  0.
          2    1    1    2  501    0 -0.22401199786E+02  0.40249055028E+02 -0.41823538442E+03  0.42076434849E+03  0.00000000000E+00 0. -1.
          1    1    1    2  502    0  0.55778231519E+02  0.77478837175E+02  0.20396075676E+03  0.22519807197E+03  0.00000000000E+00 0. -1.
         22    1    3    3    0    0 -0.46298896065E+02  0.69872980184E+01  0.57917641328E+02  0.74477266917E+02  0.00000000000E+00 0.  1.
         22    1    3    3    0    0  0.12921864332E+02 -0.12471519022E+03  0.24916374513E+03  0.27893265341E+03  0.00000000000E+00 0.  1.
</event>
<event>
 7    1  0.6294601E-006  0.1068852E+03  0.7818608E-02  0.1436280E+00
          2   -1    0    0  502    0  0.00000000000E+00  0.00000000000E+00  0.16235105411E+04  0.16235105411E+04  0.00000000000E+00 0. -1.
          1   -1    0    0  501    0 -0.00000000000E+00 -0.00000000000E+00 -0.34157198352E+02  0.34157198352E+02  0.00000000000E+00 0. -1.
         25    2    1    2    0    0 -0.73835715870E+02  0.74530080183E+02  0.30642494166E+03  0.34717044668E+03  0.12499851354E+03 0.  0.
          2    1    1    2  501    0  0.92665647877E+02 -0.58045190424E+02  0.20551268177E+03  0.23279095514E+03  0.00000000000E+00 0. -1.
          1    1    1    2  502    0 -0.18829932007E+02 -0.16484889759E+02  0.10774157193E+04  0.10777063376E+04  0.00000000000E+00 0. -1.
         22    1    3    3    0    0 -0.28916191810E+02 -0.11500134479E+02  0.20288156062E+03  0.20525429808E+03  0.00000000000E+00 0. -1.
         22    1    3    3    0    0 -0.44919524060E+02  0.86030214661E+02  0.10354338104E+03  0.14191614860E+03  0.00000000000E+00 0. -1.
</event>
<event>
 7    1  0.6294601E-006  0.7147687E+02  0.7818608E-02  0.1458671E+00
          2   -1    0    0  502    0  0.00000000000E+00  0.00000000000E+00  0.12208712583E+04  0.12208712583E+04  0.00000000000E+00 0. -1.
          1   -1    0    0  501    0 -0.00000000000E+00 -0.00000000000E+00 -0.22735106273E+03  0.22735106273E+03  0.00000000000E+00 0. -1.
         25    2    1    2    0    0  0.34834150006E+02  0.44392729521E+02 -0.84557203709E+02  0.16111923678E+03  0.12500142127E+03 0.  0.
          2    1    1    2  501    0  0.29232985864E+02 -0.12295741519E+02 -0.10099399112E+03  0.10585621836E+03  0.00000000000E+00 0. -1.
          1    1    1    2  502    0 -0.64067135871E+02 -0.32096988002E+02  0.11790713904E+04  0.11812468659E+04  0.00000000000E+00 0. -1.
         22    1    3    3    0    0  0.59047522193E+02  0.31433550600E+01 -0.95246138210E+02  0.11210850727E+03  0.00000000000E+00 0. -1.
         22    1    3    3    0    0 -0.24213372187E+02  0.41249374461E+02  0.10688934501E+02  0.49010729508E+02  0.00000000000E+00 0. -1.
</event>
<event>
 7    1  0.7350155E-006  0.4731769E+02  0.7818608E-02  0.1470846E+00
          2   -1    0    0  502    0  0.00000000000E+00  0.00000000000E+00  0.97039604999E+03  0.97039604999E+03  0.00000000000E+00 0. -1.
          1   -1    0    0  501    0 -0.00000000000E+00 -0.00000000000E+00 -0.14667854390E+04  0.14667854390E+04  0.00000000000E+00 0. -1.
         25    2    1    2    0    0  0.83302898434E+02  0.35349315206E+02 -0.98955726967E+02  0.18332011651E+03  0.12500032898E+03 0.  0.
          2    1    1    2  501    0 -0.38244822766E+02 -0.21506378248E+02 -0.13246856301E+04  0.13254120904E+04  0.00000000000E+00 0. -1.
          1    1    1    2  502    0 -0.45058075668E+02 -0.13842936959E+02  0.92725196808E+03  0.92844928208E+03  0.00000000000E+00 0. -1.
         22    1    3    3    0    0  0.11544429066E+03  0.21943024188E+02 -0.63286101706E+02  0.13346913960E+03  0.00000000000E+00 0. -1.
         22    1    3    3    0    0 -0.32141392222E+02  0.13406291018E+02 -0.35669625261E+02  0.49850976912E+02  0.00000000000E+00 0. -1.
</event>
<event>
 7    1  0.6294601E-006  0.5221064E+02  0.7818608E-02  0.1482836E+00
          2   -1    0    0  502    0  0.00000000000E+00  0.00000000000E+00  0.33392580223E+03  0.33392580223E+03  0.00000000000E+00 0. -1.
          1   -1    0    0  501    0 -0.00000000000E+00 -0.00000000000E+00 -0.17840331655E+03  0.17840331655E+03  0.00000000000E+00 0. -1.
         25    2    1    2    0    0 -0.33500360051E+02 -0.19476536384E+02  0.20312170533E+03  0.24162835550E+03  0.12499690162E+03 0.  0.
          2    1    1    2  501    0  0.83254809109E+01 -0.35560664289E+02 -0.14856327341E+03  0.15298666832E+03  0.00000000000E+00 0. -1.
          1    1    1    2  502    0  0.25174879140E+02  0.55037200673E+02  0.10096405377E+03  0.11771409495E+03  0.00000000000E+00 0. -1.
         22    1    3    3    0    0 -0.52465231057E+02 -0.62178429652E+02  0.15177815658E+03  0.17220733549E+03  0.00000000000E+00 0. -1.
         22    1    3    3    0    0  0.18964871006E+02  0.42701893268E+02  0.51343548749E+02  0.69421020009E+02  0.00000000000E+00 0. -1.
</event>
<event>
 7    1  0.6294601E-006  0.6005246E+02  0.7818608E-02  0.1420753E+00
          2   -1    0    0  502    0  0.00000000000E+00  0.00000000000E+00  0.25300391838E+04  0.25300391838E+04  0.00000000000E+00 0. -1.
          1   -1    0    0  501    0 -0.00000000000E+00 -0.00000000000E+00 -0.25518684470E+03  0.25518684470E+03  0.00000000000E+00 0. -1.
         25    2    1    2    0    0  0.10468480250E+03 -0.26726547986E+02  0.80273200226E+02  0.18368934241E+03  0.12499908639E+03 0.  0.
          2    1    1    2  501    0 -0.45179298271E+02  0.21699347632E+02 -0.20001450450E+03  0.20619852737E+03  0.00000000000E+00 0. -1.
          1    1    1    2  502    0 -0.59505504231E+02  0.50272003541E+01  0.23945936434E+04  0.23953381587E+04  0.00000000000E+00 0. -1.
         22    1    3    3    0    0  0.33790261692E+02  0.49155261007E+02  0.42268326706E+02  0.73106996330E+02  0.00000000000E+00 0. -1.
         22    1    3    3    0    0  0.70894540810E+02 -0.75881808993E+02  0.38004873520E+02  0.11058234608E+03  0.00000000000E+00 0. -1.
</event>
<event>
 7    1  0.6294601E-006  0.1364845E+03  0.7818608E-02  0.1396257E+00
          2   -1    0    0  502    0  0.00000000000E+00  0.00000000000E+00  0.11549056294E+04  0.11549056294E+04  0.00000000000E+00 0. -1.
          1   -1    0    0  501    0 -0.00000000000E+00 -0.00000000000E+00 -0.23050476893E+03  0.23050476893E+03  0.00000000000E+00 0. -1.
         25    2    1    2    0    0  0.84698447813E+02  0.78499861968E+02  0.62948279529E+02  0.18144130268E+03  0.12498961970E+03 0.  0.
          2    1    1    2  501    0 -0.10810872931E+03 -0.91357740574E+02 -0.14180522757E+03  0.20035582517E+03  0.00000000000E+00 0. -1.
          1    1    1    2  502    0  0.23410281497E+02  0.12857878606E+02  0.10032578085E+04  0.10036132705E+04  0.00000000000E+00 0. -1.
         22    1    3    3    0    0  0.12433128929E+01 -0.31706410232E+02  0.83559991718E+01  0.32812573793E+02  0.00000000000E+00 0. -1.
         22    1    3    3    0    0  0.83455134920E+02  0.11020627220E+03  0.54592280357E+02  0.14862872889E+03  0.00000000000E+00 0. -1.
</event>
<event>
 7    1  0.6294601E-006  0.6503571E+02  0.7818608E-02  0.1475054E+00
          2   -1    0    0  502    0  0.00000000000E+00  0.00000000000E+00  0.31900250069E+03  0.31900250069E+03  0.00000000000E+00 0. -1.
          1   -1    0    0  501    0 -0.00000000000E+00 -0.00000000000E+00 -0.85644862026E+03  0.85644862026E+03  0.00000000000E+00 0. -1.
         25    2    1    2    0    0  0.29576733960E+02  0.45751548343E+02  0.22535450361E+01  0.13638475371E+03  0.12501094037E+03 0.  0.
          2    1    1    2  501    0 -0.57175824044E+02 -0.31680042742E+02 -0.78706200374E+03  0.78977167441E+03  0.00000000000E+00 0. -1.
          1    1    1    2  502    0  0.27599090083E+02 -0.14071505601E+02  0.24736233914E+03  0.24929469282E+03  0.00000000000E+00 0. -1.
         22    1    3    3    0    0  0.10672796947E+02  0.53630203913E+02 -0.53797693559E+02  0.76709185882E+02  0.00000000000E+00 0.  1.
         22    1    3    3    0    0  0.18903937013E+02 -0.78786555705E+01  0.56051238595E+02  0.59675567833E+02  0.00000000000E+00 0.  1.
</event>
<event>
 7    1  0.6294601E-006  0.4796633E+02  0.7818608E-02  0.1539542E+00
          2   -1    0    0  502    0  0.00000000000E+00  0.00000000000E+00  0.14256907817E+04  0.14256907817E+04  0.00000000000E+00 0. -1.
          1   -1    0    0  501    0 -0.00000000000E+00 -0.00000000000E+00 -0.12193541044E+03  0.12193541044E+03  0.00000000000E+00 0. -1.
         25    2    1    2    0    0  0.55989493391E+02 -0.40440948449E+02  0.10852567499E+04  0.10946129140E+04  0.12499969895E+03 0.  0.
          2    1    1    2  501    0 -0.22494629773E+02  0.15079154855E+02 -0.11435537412E+03  0.11751825760E+03  0.00000000000E+00 0. -1.
          1    1    1    2  502    0 -0.33494863618E+02  0.25361793594E+02  0.33285399554E+03  0.33549502054E+03  0.00000000000E+00 0. -1.
         22    1    3    3    0    0  0.91324440226E+02 -0.22821392924E+02  0.91540677056E+03  0.92023395120E+03  0.00000000000E+00 0.  1.
         22    1    3    3    0    0 -0.35334946836E+02 -0.17619555524E+02  0.16984997931E+03  0.17437896283E+03  0.00000000000E+00 0.  1.
</event>
<event>
 7    1  0.6294601E-006  0.2488905E+02  0.7818608E-02  0.1690439E+00
          2   -1    0    0  502    0  0.00000000000E+00  0.00000000000E+00  0.86200256816E+03  0.86200256816E+03  0.00000000000E+00 0. -1.
          1   -1    0    0  501    0 -0.00000000000E+00 -0.00000000000E+00 -0.23290155393E+03  0.23290155393E+03  0.00000000000E+00 0. -1.
         25    2    1    2    0    0 -0.32037687828E+02 -0.28254130948E+02  0.47994978643E+03  0.49779705998E+03  0.12500162430E+03 0.  0.
          2    1    1    2  501    0  0.11596717557E+02  0.21998227064E+02 -0.22297997529E+03  0.22436237481E+03  0.00000000000E+00 0. -1.
          1    1    1    2  502    0  0.20440970272E+02  0.62559038840E+01  0.37213120309E+03  0.37274468730E+03  0.00000000000E+00 0. -1.
         22    1    3    3    0    0 -0.52369985163E+02 -0.67272716979E+02  0.36212805428E+03  0.37202817298E+03  0.00000000000E+00 0. -1.
         22    1    3    3    0    0  0.20332297334E+02  0.39018586031E+02  0.11782173215E+03  0.12576888700E+03  0.00000000000E+00 0. -1.
</event>
<event>
 7    1  0.6294601E-006  0.8587507E+02  0.7818608E-02  0.1414969E+00
          2   -1    0    0  502    0  0.00000000000E+00  0.00000000000E+00  0.14613224077E+04  0.14613224077E+04  0.00000000000E+00 0. -1.
          1   -1    0    0  501    0 -0.00000000000E+00 -0.00000000000E+00 -0.46390974995E+02  0.46390974995E+02  0.00000000000E+00 0. -1.
         25    2    1    2    0    0  0.15294162816E+02  0.93067548503E+02  0.97996354812E+03  0.99239576567E+03  0.12500128030E+03 0.  0.
          2    1    1    2  501    0  0.29035437918E+02 -0.22361499159E+02 -0.27223065243E+02  0.45652914266E+02  0.00000000000E+00 0. -1.
          1    1    1    2  502    0 -0.44329600734E+02 -0.70706049343E+02  0.46219094984E+03  0.46966470277E+03  0.00000000000E+00 0. -1.
         22    1    3    3    0    0  0.12990547446E+01  0.11977657763E+03  0.64117433406E+03  0.65226730927E+03  0.00000000000E+00 0.  1.
         22    1    3    3    0    0  0.13995108071E+02 -0.26709029123E+02  0.33878921407E+03  0.34012845640E+03  0.00000000000E+00 0.  1.
</event>
<event>
 7    1  0.6294601E-006  0.8171339E+02  0.7818608E-02  0.1350723E+00
          2   -1    0    0  502    0  0.00000000000E+00  0.00000000000E+00  0.10603210801E+04  0.10603210801E+04  0.00000000000E+00 0. -1.
          1   -1    0    0  501    0 -0.00000000000E+00 -0.00000000000E+00 -0.49672322685E+03  0.49672322685E+03  0.00000000000E+00 0. -1.
         25    2    1    2    0    0 -0.12209814358E+03 -0.36366073777E+02  0.22443291581E+02  0.17988702714E+03  0.12500077283E+03 0.  0.
          2    1    1    2  501    0  0.79428340349E+02 -0.12553381736E+02 -0.41302087387E+03  0.42077629555E+03  0.00000000000E+00 0. -1.
          1    1    1    2  502    0  0.42669803234E+02  0.48919455513E+02  0.95417543556E+03  0.95638098427E+03  0.00000000000E+00 0. -1.
         22    1    3    3    0    0 -0.31749035245E+02 -0.74041910387E+02  0.84969628002E+01  0.81008666879E+02  0.00000000000E+00 0. -1.
         22    1    3    3    0    0 -0.90349108338E+02  0.37675836610E+02  0.13946328781E+02  0.98878360262E+02  0.00000000000E+00 0. -1.
</event>
<event>
 7    1  0.6294601E-006  0.1339640E+03  0.7818608E-02  0.1309915E+00
          2   -1    0    0  502    0  0.00000000000E+00  0.00000000000E+00  0.26317299103E+04  0.26317299103E+04  0.00000000000E+00 0. -1.
          1   -1    0    0  501    0 -0.00000000000E+00 -0.00000000000E+00 -0.97113175542E+02  0.97113175542E+02  0.00000000000E+00 0. -1.
         25    2    1    2    0    0 -0.78901054203E+02  0.24773346794E+02  0.53841002067E+03  0.55888252715E+03  0.12500093494E+03 0.  0.
          2    1    1    2  501    0  0.13446072712E+03 -0.36034761978E+02 -0.30461659980E+02  0.14249948750E+03  0.00000000000E+00 0. -1.
          1    1    1    2  502    0 -0.55559672920E+02  0.11261415184E+02  0.20266683741E+04  0.20274610712E+04  0.00000000000E+00 0. -1.
         22    1    3    3    0    0 -0.20406311450E+02 -0.49365219723E+02  0.24059416616E+03  0.24645262274E+03  0.00000000000E+00 0. -1.
         22    1    3    3    0    0 -0.58494742753E+02  0.74138566517E+02  0.29781585451E+03  0.31242990441E+03  0.00000000000E+00 0. -1.
</event>
<event>
 7    1  0.6294601E-006  0.1099103E+03  0.7818608E-02  0.1302981E+00
          2   -1    0    0  502    0  0.00000000000E+00  0.00000000000E+00  0.65254032447E+02  0.65254032447E+02  0.00000000000E+00 0. -1.
          1   -1    0    0  501    0 -0.00000000000E+00 -0.00000000000E+00 -0.38493889894E+04  0.38493889894E+04  0.00000000000E+00 0. -1.
         25    2    1    2    0    0 -0.50912943441E+02 -0.10869634045E+03 -0.31792624203E+03  0.36208982448E+03  0.12499969352E+03 0.  0.
          2    1    1    2  501    0 -0.47855696805E+02  0.55929859925E+02 -0.34357040931E+04  0.34364925334E+04  0.00000000000E+00 0. -1.
          1    1    1    2  502    0  0.98768640246E+02  0.52766480522E+02 -0.30504621822E+02  0.11606066394E+03  0.00000000000E+00 0. -1.
         22    1    3    3    0    0 -0.72816248213E+02 -0.11707712986E+03 -0.20701106823E+03  0.24872242100E+03  0.00000000000E+00 0.  1.
         22    1    3    3    0    0  0.21903304772E+02  0.83807894115E+01 -0.11091517380E+03  0.11336740347E+03  0.00000000000E+00 0.  1.
</event>
<event>
 7    1  0.6294601E-006  0.7366592E+02  0.7818608E-02  0.1508005E+00
          2   -1    0    0  502    0  0.00000000000E+00  0.00000000000E+00  0.71656861699E+03  0.71656861699E+03  0.00000000000E+00 0. -1.
          1   -1    0    0  501    0 -0.00000000000E+00 -0.00000000000E+00 -0.87643202346E+03  0.87643202346E+03  0.00000000000E+00 0. -1.
         25    2    1    2    0    0  0.68405507720E+02  0.27644467671E+02  0.11042889342E+03  0.18241149671E+03  0.12504352663E+03 0.  0.
          2    1    1    2  501    0 -0.57302523574E+02 -0.46347242974E+02 -0.83861658565E+03  0.84184881296E+03  0.00000000000E+00 0. -1.
          1    1    1    2  502    0 -0.11102984146E+02  0.18702775302E+02  0.56832428577E+03  0.56874033078E+03  0.00000000000E+00 0. -1.
         22    1    3    3    0    0  0.35492524368E+02  0.66244377658E+02  0.18470704304E+02  0.77389946213E+02  0.00000000000E+00 0.  1.
         22    1    3    3    0    0  0.32912983351E+02 -0.38599909987E+02  0.91958189114E+02  0.10502155050E+03  0.00000000000E+00 0.  1.
</event>
<event>
 7    1  0.6294601E-006  0.7138528E+02  0.7818608E-02  0.1434709E+00
          2   -1    0    0  502    0  0.00000000000E+00  0.00000000000E+00  0.29124199254E+02  0.29124199254E+02  0.00000000000E+00 0. -1.
          1   -1    0    0  501    0 -0.00000000000E+00 -0.00000000000E+00 -0.87310336122E+03  0.87310336122E+03  0.00000000000E+00 0. -1.
         25    2    1    2    0    0  0.98957502837E+00  0.59755817674E+02 -0.35841725212E+03  0.38426422261E+03  0.12499731662E+03 0.  0.
          2    1    1    2  501    0  0.36349948308E+02 -0.66348882476E+02 -0.47148719435E+03  0.47751823775E+03  0.00000000000E+00 0. -1.
          1    1    1    2  502    0 -0.37339523336E+02  0.65930648021E+01 -0.14074715499E+02  0.40445100109E+02  0.00000000000E+00 0. -1.
         22    1    3    3    0    0  0.16688643058E+02  0.86969228476E+02 -0.33075433424E+03  0.34240412837E+03  0.00000000000E+00 0. -1.
         22    1    3    3    0    0 -0.15699068030E+02 -0.27213410802E+02 -0.27662917880E+02  0.41860094244E+02  0.00000000000E+00 0. -1.
</event>
<event>
 7    1  0.6294601E-006  0.6491545E+02  0.7818608E-02  0.1390917E+00
          2   -1    0    0  502    0  0.00000000000E+00  0.00000000000E+00  0.15408021108E+04  0.15408021108E+04  0.00000000000E+00 0. -1.
          1   -1    0    0  501    0 -0.00000000000E+00 -0.00000000000E+00 -0.50640553075E+03  0.50640553075E+03  0.00000000000E+00 0. -1.
         25    2    1    2    0    0  0.12467103466E+02  0.12174345253E+03  0.29143673308E+03  0.33990969801E+03  0.12500534593E+03 0.  0.
          2    1    1    2  501    0  0.20685419587E+00 -0.64526140932E+02 -0.47930500647E+03  0.48362894339E+03  0.00000000000E+00 0. -1.
          1    1    1    2  502    0 -0.12673957662E+02 -0.57217311598E+02  0.12222648535E+04  0.12236690002E+04  0.00000000000E+00 0. -1.
         22    1    3    3    0    0  0.30199681580E+01  0.14393985162E+03  0.20735523216E+03  0.25243611745E+03  0.00000000000E+00 0. -1.
         22    1    3    3    0    0  0.94471353081E+01 -0.22196399091E+02  0.84081500919E+02  0.87473580554E+02  0.00000000000E+00 0. -1.
</event>
<event>
 7    1  0.6294601E-006  0.3493763E+02  0.7818608E-02  0.1558863E+00
          2   -1    0    0  502    0  0.00000000000E+00  0.00000000000E+00  0.16418226704E+03  0.16418226704E+03  0.00000000000E+00 0. -1.
          1   -1    0    0  501    0 -0.00000000000E+00 -0.00000000000E+00 -0.10756428564E+04  0.10756428564E+04  0.00000000000E+00 0. -1.
         25    2    1    2    0    0 -0.35964488922E+02  0.44571528719E+02 -0.60482492226E+03  0.62025459644E+03  0.12499004833E+03 0.  0.
          2    1    1    2  501    0  0.31591655828E+01 -0.32684148962E+02 -0.46056597636E+03  0.46173504578E+03  0.00000000000E+00 0. -1.
          1    1    1    2  502    0  0.32805323339E+02 -0.11887379757E+02  0.15393030924E+03  0.15783548124E+03  0.00000000000E+00 0. -1.
         22    1    3    3    0    0 -0.46071551876E+02  0.24954936418E+02 -0.84261602456E+02  0.99223759212E+02  0.00000000000E+00 0. -1.
         22    1    3    3    0    0  0.10107062953E+02  0.19616592301E+02 -0.52056331981E+03  0.52103083723E+03  0.00000000000E+00 0. -1.
</event>
<event>
 7    1  0.6294601E-006  0.6060345E+02  0.7818608E-02  0.1511907E+00
          2   -1    0    0  502    0  0.00000000000E+00  0.00000000000E+00  0.37104020690E+03  0.37104020690E+03  0.00000000000E+00 0. -1.
          1   -1    0    0  501    0 -0.00000000000E+00 -0.00000000000E+00 -0.49951897377E+02  0.49951897377E+02  0.00000000000E+00 0. -1.
         25    2    1    2    0    0  0.96458481007E+01  0.61450630372E+02  0.85514425948E+02  0.16372218164E+03  0.12499205318E+03 0.  0.
          2    1    1    2  501    0  0.16036109326E+02 -0.59606809652E+02  0.88141147192E+02  0.10760571726E+03  0.00000000000E+00 0. -1.
          1    1    1    2  502    0 -0.25681957427E+02 -0.18438207197E+01  0.14743273638E+03  0.14966420537E+03  0.00000000000E+00 0. -1.
         22    1    3    3    0    0  0.28877661865E+02  0.29558800518E+01  0.96854879561E+02  0.10111144483E+03  0.00000000000E+00 0.  1.
         22    1    3    3    0    0 -0.19231813764E+02  0.58494750320E+02 -0.11340453613E+02  0.62610736809E+02  0.00000000000E+00 0.  1.
</event>
<event>
 7    1  0.6294601E-006  0.9982814E+02  0.7818608E-02  0.1427396E+00
          2   -1    0    0  502    0  0.00000000000E+00  0.00000000000E+00  0.20372083235E+03  0.20372083235E+03  0.00000000000E+00 0. -1.
          1   -1    0    0  501    0 -0.00000000000E+00 -0.00000000000E+00 -0.82076177448E+03  0.82076177448E+03  0.00000000000E+00 0. -1.
         25    2    1    2    0    0  0.78291347120E+02 -0.91324077211E+02 -0.24283321840E+03  0.29843307325E+03  0.12499882055E+03 0.  0.
          2    1    1    2  501    0 -0.73520965912E+02  0.63066829378E+02 -0.54465934936E+03  0.55320571602E+03  0.00000000000E+00 0. -1.
          1    1    1    2  502    0 -0.47703812080E+01  0.28257247833E+02  0.17045162562E+03  0.17284381756E+03  0.00000000000E+00 0. -1.
         22    1    3    3    0    0 -0.24892241362E+01 -0.27411725281E+02  0.68265851090E+01  0.28358441140E+02  0.00000000000E+00 0. -1.
         22    1    3    3    0    0  0.80780571256E+02 -0.63912351930E+02 -0.24965980350E+03  0.27007463211E+03  0.00000000000E+00 0. -1.
</event>
<event>
 7    1  0.6294601E-006  0.6825649E+02  0.7818608E-02  0.1414324E+00
          2   -1    0    0  502    0  0.00000000000E+00  0.00000000000E+00  0.19000653267E+04  0.19000653267E+04  0.00000000000E+00 0. -1.
          1   -1    0    0  501    0 -0.00000000000E+00 -0.00000000000E+00 -0.18495120140E+02  0.18495120140E+02  0.00000000000E+00 0. -1.
         25    2    1    2    0    0 -0.13628509226E+02 -0.78401561668E+02  0.11597613912E+04  0.11691889653E+04  0.12499524368E+03 0.  0.
          2    1    1    2  501    0 -0.29598333881E+02  0.61706211333E+02  0.77475154361E+02  0.10337367861E+03  0.00000000000E+00 0. -1.
          1    1    1    2  502    0  0.43226843107E+02  0.16695350335E+02  0.64433366107E+03  0.64599780299E+03  0.00000000000E+00 0. -1.
         22    1    3    3    0    0  0.86177041617E+01 -0.19765418500E+02  0.95020111855E+03  0.95044573874E+03  0.00000000000E+00 0.  1.
         22    1    3    3    0    0 -0.22246213388E+02 -0.58636143168E+02  0.20956027261E+03  0.21874322653E+03  0.00000000000E+00 0.  1.
</event>
<event>
 7    1  0.6294601E-006  0.6108979E+02  0.7818608E-02  0.1398218E+00
          2   -1    0    0  502    0  0.00000000000E+00  0.00000000000E+00  0.27441087217E+03  0.27441087217E+03  0.00000000000E+00 0. -1.
          1   -1    0    0  501    0 -0.00000000000E+00 -0.00000000000E+00 -0.32399022384E+03  0.32399022384E+03  0.00000000000E+00 0. -1.
         25    2    1    2    0    0 -0.74955333208E+02 -0.91939191836E+02  0.11077158947E+03  0.20485721616E+03  0.12500006803E+03 0.  0.
          2    1    1    2  501    0  0.37444577475E+02  0.46723862811E+02 -0.26600158313E+03  0.27265740035E+03  0.00000000000E+00 0. -1.
          1    1    1    2  502    0  0.37510755733E+02  0.45215329026E+02  0.10565064199E+03  0.12088647951E+03  0.00000000000E+00 0. -1.
         22    1    3    3    0    0 -0.10949497345E+03 -0.70097974647E+02  0.95138672023E+02  0.16110320349E+03  0.00000000000E+00 0. -1.
         22    1    3    3    0    0  0.34539640246E+02 -0.21841217189E+02  0.15632917447E+02  0.43754012668E+02  0.00000000000E+00 0. -1.
</event>
<event>
 7    1  0.6294601E-006  0.7742776E+02  0.7818608E-02  0.1392951E+00
          2   -1    0    0  502    0  0.00000000000E+00  0.00000000000E+00  0.91106359616E+02  0.91106359616E+02  0.00000000000E+00 0. -1.
          1   -1    0    0  501    0 -0.00000000000E+00 -0.00000000000E+00 -0.13804787049E+04  0.13804787049E+04  0.00000000000E+00 0. -1.
         25    2    1    2    0    0  0.12904626772E+02 -0.42768158437E+02 -0.33379114710E+03  0.35921732067E+03  0.12499963526E+03 0.  0.
          2    1    1    2  501    0 -0.58932386824E+02  0.57537983260E+02 -0.10247098101E+04  0.10280145138E+04  0.00000000000E+00 0. -1.
          1    1    1    2  502    0  0.46027760053E+02 -0.14769824823E+02  0.69128611943E+02  0.84353229991E+02  0.00000000000E+00 0. -1.
         22    1    3    3    0    0 -0.97167433041E+01 -0.72523929545E+02 -0.30011421216E+03  0.30890560985E+03  0.00000000000E+00 0.  1.
         22    1    3    3    0    0  0.22621370076E+02  0.29755771108E+02 -0.33676934947E+02  0.50311710822E+02  0.00000000000E+00 0.  1.
</event>
<event>
 7    1  0.6294601E-006  0.7620690E+02  0.7818608E-02  0.1347025E+00
          2   -1    0    0  502    0  0.00000000000E+00  0.00000000000E+00  0.56442569171E+03  0.56442569171E+03  0.00000000000E+00 0. -1.
          1   -1    0    0  501    0 -0.00000000000E+00 -0.00000000000E+00 -0.11226626606E+04  0.11226626606E+04  0.00000000000E+00 0. -1.
         25    2    1    2    0    0 -0.47727991877E+01 -0.12842585178E+02  0.33162780003E+03  0.35466363832E+03  0.12498634720E+03 0.  0.
          2    1    1    2  501    0 -0.53991630425E+02  0.54165327222E+02 -0.11039560545E+04  0.11066019832E+04  0.00000000000E+00 0. -1.
          1    1    1    2  502    0  0.58764429613E+02 -0.41322742044E+02  0.21409128560E+03  0.22582273085E+03  0.00000000000E+00 0. -1.
         22    1    3    3    0    0 -0.11273106904E+02 -0.16569873108E+02 -0.27262559990E+01  0.20225629925E+02  0.00000000000E+00 0. -1.
         22    1    3    3    0    0  0.65003077164E+01  0.37272879303E+01  0.33435405602E+03  0.33443800839E+03  0.00000000000E+00 0. -1.
</event>
<event>
 7    1  0.6294601E-006  0.3773321E+02  0.7818608E-02  0.1575603E+00
          2   -1    0    0  502    0  0.00000000000E+00  0.00000000000E+00  0.93336501556E+03  0.93336501556E+03  0.00000000000E+00 0. -1.
          1   -1    0    0  501    0 -0.00000000000E+00 -0.00000000000E+00 -0.70151797567E+02  0.70151797567E+02  0.00000000000E+00 0. -1.
         25    2    1    2    0    0 -0.22319977112E+02 -0.20035501426E+02  0.16156741048E+02  0.12961365935E+03  0.12505621821E+03 0.  0.
          2    1    1    2  501    0 -0.15452056783E+02  0.22591486242E+02  0.14069116590E+01  0.27406581506E+02  0.00000000000E+00 0. -1.
          1    1    1    2  502    0  0.37772033895E+02 -0.25559848160E+01  0.84564956529E+03  0.84649657227E+03  0.00000000000E+00 0. -1.
         22    1    3    3    0    0 -0.23446612137E+02  0.51523040819E+02  0.12389868766E+02  0.57947184608E+02  0.00000000000E+00 0. -1.
         22    1    3    3    0    0  0.11266350249E+01 -0.71558542245E+02  0.37668722817E+01  0.71666474739E+02  0.00000000000E+00 0. -1.
</event>
<event>
 7    1  0.6294601E-006  0.6911860E+02  0.7818608E-02  0.1388191E+00
          2   -1    0    0  502    0  0.00000000000E+00  0.00000000000E+00  0.44678428038E+02  0.44678428038E+02  0.00000000000E+00 0. -1.
          1   -1    0    0  501    0 -0.00000000000E+00 -0.00000000000E+00 -0.11360042661E+04  0.11360042661E+04  0.00000000000E+00 0. -1.
         25    2    1    2    0    0  0.33812374488E+02 -0.11168994216E+03 -0.26253866254E+03  0.31331994856E+03  0.12499968397E+03 0.  0.
          2    1    1    2  501    0 -0.20742511233E+02  0.52297078372E+02 -0.79654692925E+03  0.79853130601E+03  0.00000000000E+00 0. -1.
          1    1    1    2  502    0 -0.13069863254E+02  0.59392863784E+02 -0.32240246283E+02  0.68831439578E+02  0.00000000000E+00 0. -1.
         22    1    3    3    0    0  0.72302151124E+02 -0.61122433543E+02 -0.21180870940E+03  0.23200534976E+03  0.00000000000E+00 0.  1.
         22    1    3    3    0    0 -0.38489776636E+02 -0.50567508613E+02 -0.50729953134E+02  0.81314598799E+02  0.00000000000E+00 0.  1.
</event>
<event>
 7    1  0.6294601E-006  0.6129223E+02  0.7818608E-02  0.1518284E+00
          2   -1    0    0  502    0  0.00000000000E+00  0.00000000000E+00  0.28363339439E+03  0.28363339439E+03  0.00000000000E+00 0. -1.
          1   -1    0    0  501    0 -0.00000000000E+00 -0.00000000000E+00 -0.11410494204E+04  0.11410494204E+04  0.00000000000E+00 0. -1.
         25    2    1    2    0    0  0.45583126501E+01 -0.85332148901E+02 -0.51366095820E+03  0.53551398638E+03  0.12500118314E+03 0.  0.
          2    1    1    2  501    0  0.25809519494E+00  0.24387706319E+02 -0.61279009512E+03  0.61327524613E+03  0.00000000000E+00 0. -1.
          1    1    1    2  502    0 -0.48164078451E+01  0.60944442582E+02  0.26903502727E+03  0.27589358232E+03  0.00000000000E+00 0. -1.
         22    1    3    3    0    0  0.18587386385E+02 -0.11279730823E+03 -0.45613513582E+03  0.47024247554E+03  0.00000000000E+00 0.  1.
         22    1    3    3    0    0 -0.14029073735E+02  0.27465159332E+02 -0.57525822380E+02  0.65271510842E+02  0.00000000000E+00 0.  1.
</event>
<event>
 7    1  0.6294601E-006  0.6424430E+02  0.7818608E-02  0.1488302E+00
          2   -1    0    0  502    0  0.00000000000E+00  0.00000000000E+00  0.19541702030E+03  0.19541702030E+03  0.00000000000E+00 0. -1.
          1   -1    0    0  501    0 -0.00000000000E+00 -0.00000000000E+00 -0.19143070810E+03  0.19143070810E+03  0.00000000000E+00 0. -1.
         25    2    1    2    0    0 -0.65452845671E+02  0.28426919472E+02  0.37627741891E+02  0.14877310963E+03  0.12500170572E+03 0.  0.
          2    1    1    2  501    0  0.21934237691E+02  0.18299688239E+02 -0.12410253733E+03  0.12734767036E+03  0.00000000000E+00 0. -1.
          1    1    1    2  502    0  0.43518607980E+02 -0.46726607711E+02  0.90461107638E+02  0.11072694841E+03  0.00000000000E+00 0. -1.
         22    1    3    3    0    0 -0.89805245566E+02 -0.12151044509E+02  0.39890508201E+01  0.90711314290E+02  0.00000000000E+00 0.  1.
         22    1    3    3    0    0  0.24352399895E+02  0.40577963981E+02  0.33638691071E+02  0.58061795343E+02  0.00000000000E+00 0.  1.
</event>
<event>
 7    1  0.6294601E-006  0.9163005E+02  0.7818608E-02  0.1390688E+00
          2   -1    0    0  502    0  0.00000000000E+00  0.00000000000E+00  0.32692469185E+04  0.32692469185E+04  0.00000000000E+00 0. -1.
          1   -1    0    0  501    0 -0.00000000000E+00 -0.00000000000E+00 -0.25688866507E+03  0.25688866507E+03  0.00000000000E+00 0. -1.
         25    2    1    2    0    0  0.12919082133E+02  0.13173194311E+03  0.15577631555E+03  0.23960586029E+03  0.12499800111E+03 0.  0.
          2    1    1    2  501    0 -0.62460744566E+00 -0.41590074377E+02 -0.21228144601E+03  0.21631813780E+03  0.00000000000E+00 0. -1.
          1    1    1    2  502    0 -0.12294474687E+02 -0.90141868738E+02  0.30688633838E+04  0.30702115854E+04  0.00000000000E+00 0. -1.
         22    1    3    3    0    0 -0.20194355587E+02  0.16054513448E+02  0.10650494471E+03  0.10958495630E+03  0.00000000000E+00 0.  1.
         22    1    3    3    0    0  0.33113437719E+02  0.11567742967E+03  0.49271370843E+02  0.13002090400E+03  0.00000000000E+00 0.  1.
</event>
<event>
 7    1  0.6294601E-006  0.1337761E+03  0.7818608E-02  0.1386094E+00
          2   -1    0    0  502    0  0.00000000000E+00  0.00000000000E+00  0.13223136569E+04  0.13223136569E+04  0.00000000000E+00 0. -1.
          1   -1    0    0  501    0 -0.00000000000E+00 -0.00000000000E+00 -0.31231081892E+03  0.31231081892E+03  0.00000000000E+00 0. -1.
         25    2    1    2    0    0 -0.47189790564E+02 -0.13035243245E+03  0.32141010183E+02  0.18941494744E+03  0.12500537909E+03 0.  0.
          2    1    1    2  501    0  0.29485208349E+02 -0.21605756195E+01 -0.22903271654E+03  0.23093295746E+03  0.00000000000E+00 0. -1.
          1    1    1    2  502    0  0.17704582215E+02  0.13251300807E+03  0.12068945443E+04  0.12142765709E+04  0.00000000000E+00 0. -1.
         22    1    3    3    0    0 -0.88795751899E+02 -0.91617738760E+02  0.35610152925E+02  0.13246349913E+03  0.00000000000E+00 0.  1.
         22    1    3    3    0    0  0.41605961335E+02 -0.38734693686E+02 -0.34691427417E+01  0.56951448312E+02  0.00000000000E+00 0.  1.
</event>
<event>
 7    1  0.6294601E-006  0.5339552E+02  0.7818608E-02  0.1492097E+00
          2   -1    0    0  502    0  0.00000000000E+00  0.00000000000E+00  0.47698381923E+03  0.47698381923E+03  0.00000000000E+00 0. -1.
          1   -1    0    0  501    0 -0.00000000000E+00 -0.00000000000E+00 -0.80390233106E+03  0.80390233106E+03  0.00000000000E+00 0. -1.
         25    2    1    2    0    0  0.65208160956E+02 -0.43100196301E+02 -0.42270089419E+02  0.15336509885E+03  0.12499744761E+03 0.  0.
          2    1    1    2  501    0 -0.51524864191E+02  0.12551861189E+02 -0.70442181022E+03  0.70641520904E+03  0.00000000000E+00 0. -1.
          1    1    1    2  502    0 -0.13683296765E+02  0.30548335111E+02  0.41977338781E+03  0.42110584240E+03  0.00000000000E+00 0. -1.
         22    1    3    3    0    0  0.51770062932E+02  0.95870084140E+01 -0.73689674776E+02  0.90566099149E+02  0.00000000000E+00 0.  1.
         22    1    3    3    0    0  0.13438098023E+02 -0.52687204715E+02  0.31419585357E+02  0.62798999699E+02  0.00000000000E+00 0.  1.
</event>
<event>
 7    1  0.6294601E-006  0.3920549E+02  0.7818608E-02  0.1555945E+00
          2   -1    0    0  502    0  0.00000000000E+00  0.00000000000E+00  0.48578380741E+03  0.48578380741E+03  0.00000000000E+00 0. -1.
          1   -1    0    0  501    0 -0.00000000000E+00 -0.00000000000E+00 -0.33998447821E+03  0.33998447821E+03  0.00000000000E+00 0. -1.
         25    2    1    2    0    0  0.91519001905E+01  0.62170456219E+01  0.24485203685E+03  0.27513674520E+03  0.12500119869E+03 0.  0.
          2    1    1    2  501    0 -0.38953438771E+02 -0.55014081183E+01 -0.32265825455E+03  0.32504766590E+03  0.00000000000E+00 0. -1.
          1    1    1    2  502    0  0.29801538581E+02 -0.71563750356E+00  0.22360554690E+03  0.22558387452E+03  0.00000000000E+00 0. -1.
         22    1    3    3    0    0  0.34147005690E+02 -0.30310369010E+02  0.27450361473E+02  0.53275311469E+02  0.00000000000E+00 0. -1.
         22    1    3    3    0    0 -0.24995105499E+02  0.36527414632E+02  0.21740167538E+03  0.22186143373E+03  0.00000000000E+00 0. -1.
</event>
<event>
 7    1  0.7355781E-006  0.1019213E+03  0.7818608E-02  0.1370857E+00
          2   -1    0    0  502    0  0.00000000000E+00  0.00000000000E+00  0.68243629315E+03  0.68243629315E+03  0.00000000000E+00 0. -1.
          1   -1    0    0  501    0 -0.00000000000E+00 -0.00000000000E+00 -0.16679449669E+04  0.16679449669E+04  0.00000000000E+00 0. -1.
         25    2    1    2    0    0 -0.12476311038E+03 -0.63194775715E+02 -0.35219414767E+03  0.39902949208E+03  0.12499761801E+03 0.  0.
          2    1    1    2  501    0  0.27389570952E+02  0.34373012638E+02 -0.12880441112E+04  0.12887937480E+04  0.00000000000E+00 0. -1.
          1    1    1    2  502    0  0.97373539424E+02  0.28821763077E+02  0.65472958509E+03  0.66255801995E+03  0.00000000000E+00 0. -1.
         22    1    3    3    0    0 -0.29398761844E+02 -0.33433770767E+02 -0.25770404953E+03  0.26152147401E+03  0.00000000000E+00 0. -1.
         22    1    3    3    0    0 -0.95364348533E+02 -0.29761004948E+02 -0.94490098144E+02  0.13750801807E+03  0.00000000000E+00 0. -1.
</event>
<event>
 7    1  0.6294601E-006  0.4705376E+02  0.7818608E-02  0.1555514E+00
          2   -1    0    0  502    0  0.00000000000E+00  0.00000000000E+00  0.19704616305E+04  0.19704616305E+04  0.00000000000E+00 0. -1.
          1   -1    0    0  501    0 -0.00000000000E+00 -0.00000000000E+00 -0.88520636055E+03  0.88520636055E+03  0.00000000000E+00 0. -1.
         25    2    1    2    0    0 -0.30040946105E+02 -0.62567526805E+02  0.56834497156E+03  0.58605309726E+03  0.12500028903E+03 0.  0.
          2    1    1    2  501    0  0.16804228279E+02  0.18383334452E+02 -0.87579346915E+03  0.87614755018E+03  0.00000000000E+00 0. -1.
          1    1    1    2  502    0  0.13236717826E+02  0.44184192353E+02  0.13927037675E+04  0.13934673436E+04  0.00000000000E+00 0. -1.
         22    1    3    3    0    0  0.14590227978E+01 -0.39918225243E+02  0.40853268599E+02  0.57136529553E+02  0.00000000000E+00 0.  1.
         22    1    3    3    0    0 -0.31499968903E+02 -0.22649301562E+02  0.52749170296E+03  0.52891656770E+03  0.00000000000E+00 0.  1.
</event>
<event>
 7    1  0.6294601E-006  0.7872675E+02  0.7818608E-02  0.1430567E+00
          2   -1    0    0  502    0  0.00000000000E+00  0.00000000000E+00  0.48408652420E+04  0.48408652420E+04  0.00000000000E+00 0. -1.
          1   -1    0    0  501    0 -0.00000000000E+00 -0.00000000000E+00 -0.15361342035E+02  0.15361342035E+02  0.00000000000E+00 0. -1.
         25    2    1    2    0    0  0.52373432341E+02  0.61833634508E+02  0.40077202759E+04  0.40104883849E+04  0.12501560156E+03 0.  0.
          2    1    1    2  501    0 -0.19987028543E+02 -0.76308059932E+02  0.10136411272E+03  0.12844097737E+03  0.00000000000E+00 0. -1.
          1    1    1    2  502    0 -0.32386403799E+02  0.14474425424E+02  0.71641951137E+03  0.71729722181E+03  0.00000000000E+00 0. -1.
         22    1    3    3    0    0 -0.47864970675E+01  0.49747067638E+02  0.32945478043E+04  0.32949268454E+04  0.00000000000E+00 0. -1.
         22    1    3    3    0    0  0.57159929409E+02  0.12086566870E+02  0.71317247155E+03  0.71556153950E+03  0.00000000000E+00 0. -1.
</event>
<event>
 7    1  0.6294601E-006  0.5656253E+02  0.7818608E-02  0.1511769E+00
          2   -1    0    0  502    0  0.00000000000E+00  0.00000000000E+00  0.17094885404E+03  0.17094885404E+03  0.00000000000E+00 0. -1.
          1   -1    0    0  501    0 -0.00000000000E+00 -0.00000000000E+00 -0.28067050461E+03  0.28067050461E+03  0.00000000000E+00 0. -1.
         25    2    1    2    0    0  0.33518805923E+02  0.13634672418E+02 -0.49259544051E+01  0.13022346110E+03  0.12499788059E+03 0.  0.
          2    1    1    2  501    0  0.25632320324E+02 -0.10270331360E+02 -0.20399248387E+03  0.20585293057E+03  0.00000000000E+00 0. -1.
          1    1    1    2  502    0 -0.59151126247E+02 -0.33643410583E+01  0.99196787702E+02  0.11554296698E+03  0.00000000000E+00 0. -1.
         22    1    3    3    0    0 -0.18383077462E+02  0.13275143916E+02  0.49848627523E+02  0.54763606975E+02  0.00000000000E+00 0. -1.
         22    1    3    3    0    0  0.51901883385E+02  0.35952850233E+00 -0.54774581928E+02  0.75459854128E+02  0.00000000000E+00 0. -1.
</event>
<event>
 7    1  0.6294601E-006  0.4148509E+02  0.7818608E-02  0.1518681E+00
          2   -1    0    0  502    0  0.00000000000E+00  0.00000000000E+00  0.17968933828E+04  0.17968933828E+04  0.00000000000E+00 0. -1.
          1   -1    0    0  501    0 -0.00000000000E+00 -0.00000000000E+00 -0.94133057332E+02  0.94133057332E+02  0.00000000000E+00 0. -1.
         25    2    1    2    0    0  0.13922250212E+01  0.33130549782E+02  0.14001557423E+03  0.19060246369E+03  0.12500146606E+03 0.  0.
          2    1    1    2  501    0 -0.34956613829E+02 -0.83406911952E+01 -0.63863392033E+02  0.73280726129E+02  0.00000000000E+00 0. -1.
          1    1    1    2  502    0  0.33564388808E+02 -0.24789858587E+02  0.16266081433E+04  0.16271432503E+04  0.00000000000E+00 0. -1.
         22    1    3    3    0    0  0.20118846232E+02 -0.28690458600E+01  0.14787873967E+03  0.14926862042E+03  0.00000000000E+00 0. -1.
         22    1    3    3    0    0 -0.18726621211E+02  0.35999595642E+02 -0.78631654358E+01  0.41333843265E+02  0.00000000000E+00 0. -1.
</event>
<event>
 7    1  0.6294601E-006  0.1281810E+03  0.7818608E-02  0.1318296E+00
          2   -1    0    0  502    0  0.00000000000E+00  0.00000000000E+00  0.40827052830E+04  0.40827052830E+04  0.00000000000E+00 0. -1.
          1   -1    0    0  501    0 -0.00000000000E+00 -0.00000000000E+00 -0.54600802418E+02  0.54600802418E+02  0.00000000000E+00 0. -1.
         25    2    1    2    0    0  0.14112324228E+03  0.88767391434E+02  0.34822333657E+03  0.40580826355E+03  0.12500174136E+03 0.  0.
          2    1    1    2  501    0 -0.54770761039E+02  0.42472607162E+01  0.58171875869E+01  0.55242331231E+02  0.00000000000E+00 0. -1.
          1    1    1    2  502    0 -0.86352481238E+02 -0.93014652150E+02  0.36740639564E+04  0.36762554906E+04  0.00000000000E+00 0. -1.
         22    1    3    3    0    0  0.78478057224E+02  0.11061385538E+02  0.56090183894E+02  0.97094121578E+02  0.00000000000E+00 0.  1.
         22    1    3    3    0    0  0.62645185053E+02  0.77706005896E+02  0.29213315268E+03  0.30871414198E+03  0.00000000000E+00 0.  1.
</event>
<event>
 7    1  0.6504590E-006  0.5962143E+02  0.7818608E-02  0.1477262E+00
          2   -1    0    0  502    0  0.00000000000E+00  0.00000000000E+00  0.19495694069E+04  0.19495694069E+04  0.00000000000E+00 0. -1.
          1   -1    0    0  501    0 -0.00000000000E+00 -0.00000000000E+00 -0.85400934963E+03  0.85400934963E+03  0.00000000000E+00 0. -1.
         25    2    1    2    0    0 -0.36699401333E+02  0.82676712324E+02 -0.81606985999E+02  0.17455803948E+03  0.12501409586E+03 0.  0.
          2    1    1    2  501    0  0.15996542462E+02 -0.56636825660E+02 -0.72458830041E+03  0.72697443180E+03  0.00000000000E+00 0. -1.
          1    1    1    2  502    0  0.20702858871E+02 -0.26039886665E+02  0.19017553437E+04  0.19020462852E+04  0.00000000000E+00 0. -1.
         22    1    3    3    0    0 -0.58932594500E+01  0.95572048899E+02 -0.10913943465E+02  0.96373550311E+02  0.00000000000E+00 0.  1.
         22    1    3    3    0    0 -0.30806141883E+02 -0.12895336574E+02 -0.70693042534E+02  0.78184489164E+02  0.00000000000E+00 0.  1.
</event>
<event>
 7    1  0.6294601E-006  0.1170690E+03  0.7818608E-02  0.1309800E+00
          2   -1    0    0  502    0  0.00000000000E+00  0.00000000000E+00  0.43907430083E+03  0.43907430083E+03  0.00000000000E+00 0. -1.
          1   -1    0    0  501    0 -0.00000000000E+00 -0.00000000000E+00 -0.17256449651E+03  0.17256449651E+03  0.00000000000E+00 0. -1.
         25    2    1    2    0    0 -0.10778227545E+03 -0.58643634983E+02 -0.23719346259E+02  0.17676086339E+03  0.12500280243E+03 0.  0.
          2    1    1    2  501    0  0.48292511084E+02 -0.43414571095E+02 -0.45288919994E+02  0.79171193526E+02  0.00000000000E+00 0. -1.
          1    1    1    2  502    0  0.59489764367E+02  0.10205820608E+03  0.33551807058E+03  0.35570674041E+03  0.00000000000E+00 0. -1.
         22    1    3    3    0    0 -0.27130782264E+02 -0.53461989029E+02 -0.62944634935E+02  0.86926927268E+02  0.00000000000E+00 0.  1.
         22    1    3    3    0    0 -0.80651493188E+02 -0.51816459538E+01  0.39225288675E+02  0.89833936126E+02  0.00000000000E+00 0.  1.
</event>
<event>
 7    1  0.6294601E-006  0.1321555E+03  0.7818608E-02  0.1337760E+00
          2   -1    0    0  502    0  0.00000000000E+00  0.00000000000E+00  0.75423844388E+03  0.75423844388E+03  0.00000000000E+00 0. -1.
          1   -1    0    0  501    0 -0.00000000000E+00 -0.00000000000E+00 -0.12658141436E+03  0.12658141436E+03  0.00000000000E+00 0. -1.
         25    2    1    2    0    0  0.14186137693E+03  0.97495661463E+02  0.44928361216E+02  0.21742657802E+03  0.12500281964E+03 0.  0.
          2    1    1    2  501    0 -0.29790574860E+02 -0.33559587321E+02 -0.18453880080E+02  0.48520819672E+02  0.00000000000E+00 0. -1.
          1    1    1    2  502    0 -0.11207080207E+03 -0.63936074142E+02  0.60118254839E+03  0.61487246055E+03  0.00000000000E+00 0. -1.
         22    1    3    3    0    0  0.12672431146E+03  0.12617700538E+03  0.47087469442E+02  0.18492408599E+03  0.00000000000E+00 0.  1.
         22    1    3    3    0    0  0.15137065476E+02 -0.28681343915E+02 -0.21591082261E+01  0.32502492032E+02  0.00000000000E+00 0.  1.
</event>
<event>
 7    1  0.6294601E-006  0.1018251E+03  0.7818608E-02  0.1399522E+00
          2   -1    0    0  502    0  0.00000000000E+00  0.00000000000E+00  0.41798843105E+03  0.41798843105E+03  0.00000000000E+00 0. -1.
          1   -1    0    0  501    0 -0.00000000000E+00 -0.00000000000E+00 -0.10241697223E+04  0.10241697223E+04  0.00000000000E+00 0. -1.
         25    2    1    2    0    0 -0.10793872627E+03 -0.21622038628E+02 -0.55363148341E+02  0.17552085747E+03  0.12499684808E+03 0.  0.
          2    1    1    2  501    0  0.19686968923E+02 -0.28797757187E+02 -0.90116757062E+03  0.90184249063E+03  0.00000000000E+00 0. -1.
          1    1    1    2  502    0  0.88251757343E+02  0.50419795815E+02  0.35034942768E+03  0.36479480528E+03  0.00000000000E+00 0. -1.
         22    1    3    3    0    0 -0.15979467985E+02  0.28628182674E+02 -0.62403089336E+02  0.70491572538E+02  0.00000000000E+00 0. -1.
         22    1    3    3    0    0 -0.91959258280E+02 -0.50250221302E+02  0.70399409948E+01  0.10502928493E+03  0.00000000000E+00 0. -1.
</event>
<event>
 7    1  0.6294601E-006  0.6147972E+02  0.7818608E-02  0.1494840E+00
          2   -1    0    0  502    0  0.00000000000E+00  0.00000000000E+00  0.25076125072E+02  0.25076125072E+02  0.00000000000E+00 0. -1.
          1   -1    0    0  501    0 -0.00000000000E+00 -0.00000000000E+00 -0.17331772994E+04  0.17331772994E+04  0.00000000000E+00 0. -1.
         25    2    1    2    0    0 -0.72376672457E+02 -0.41949738278E+01 -0.10124095173E+04  0.10226702690E+04  0.12500187148E+03 0.  0.
          2    1    1    2  501    0  0.14625858889E+02  0.24488683720E+02 -0.66763995367E+03  0.66824899484E+03  0.00000000000E+00 0. -1.
          1    1    1    2  502    0  0.57750813568E+02 -0.20293709892E+02 -0.28051703418E+02  0.67334160673E+02  0.00000000000E+00 0. -1.
         22    1    3    3    0    0  0.25829439049E+02 -0.32929978885E+02 -0.26352989288E+03  0.26683243408E+03  0.00000000000E+00 0. -1.
         22    1    3    3    0    0 -0.98206111506E+02  0.28735005057E+02 -0.74887962437E+03  0.75583783489E+03  0.00000000000E+00 0. -1.
</event>
<event>
 7    1  0.6294601E-006  0.5870416E+02  0.7818608E-02  0.1410423E+00
          2   -1    0    0  502    0  0.00000000000E+00  0.00000000000E+00  0.19770659929E+04  0.19770659929E+04  0.00000000000E+00 0. -1.
          1   -1    0    0  501    0 -0.00000000000E+00 -0.00000000000E+00 -0.75647484555E+02  0.75647484555E+02  0.00000000000E+00 0. -1.
         25    2    1    2    0    0  0.65858199588E+02 -0.23734183303E+02  0.89658085408E+02  0.16900819506E+03  0.12499833523E+03 0.  0.
          2    1    1    2  501    0 -0.52519286610E+02 -0.30178917155E+02 -0.97465926916E+01  0.61351760984E+02  0.00000000000E+00 0. -1.
          1    1    1    2  502    0 -0.13338912977E+02  0.53913100457E+02  0.18215070157E+04  0.18223535214E+04  0.00000000000E+00 0. -1.
         22    1    3    3    0    0  0.83438143451E+02  0.10604786411E+02  0.15655435750E+02  0.85553947577E+02  0.00000000000E+00 0.  1.
         22    1    3    3    0    0 -0.17579943864E+02 -0.34338969713E+02  0.74002649659E+02  0.83454247488E+02  0.00000000000E+00 0.  1.
</event>
<event>
 7    1  0.6294601E-006  0.2115124E+03  0.7818608E-02  0.1243399E+00
          2   -1    0    0  502    0  0.00000000000E+00  0.00000000000E+00  0.30261601464E+03  0.30261601464E+03  0.00000000000E+00 0. -1.
          1   -1    0    0  501    0 -0.00000000000E+00 -0.00000000000E+00 -0.12909802212E+04  0.12909802212E+04  0.00000000000E+00 0. -1.
         25    2    1    2    0    0 -0.12656114856E+03  0.73323304603E+02 -0.10010490566E+04  0.10193715622E+04  0.12500054711E+03 0.  0.
          2    1    1    2  501    0 -0.60436519349E+02  0.30891057234E+02 -0.23630410972E+03  0.24585862311E+03  0.00000000000E+00 0. -1.
          1    1    1    2  502    0  0.18699766791E+03 -0.10421436184E+03  0.24898895979E+03  0.32836605049E+03  0.00000000000E+00 0. -1.
         22    1    3    3    0    0  0.22535867573E+02  0.45005745276E+01 -0.22304663880E+03  0.22422739257E+03  0.00000000000E+00 0. -1.
         22    1    3    3    0    0 -0.14909701613E+03  0.68822730076E+02 -0.77800241782E+03  0.79514416965E+03  0.00000000000E+00 0. -1.
</event>
<event>
 7    1  0.6294601E-006  0.9673338E+02  0.7818608E-02  0.1353936E+00
          2   -1    0    0  502    0  0.00000000000E+00  0.00000000000E+00  0.65216466935E+02  0.65216466935E+02  0.00000000000E+00 0. -1.
          1   -1    0    0  501    0 -0.00000000000E+00 -0.00000000000E+00 -0.15621028399E+04  0.15621028399E+04  0.00000000000E+00 0. -1.
         25    2    1    2    0    0 -0.82522414282E+02 -0.56667496537E+02 -0.37786111168E+03  0.41039648110E+03  0.12500039184E+03 0.  0.
          2    1    1    2  501    0  0.42237215100E+02 -0.32603381680E+02 -0.11177013120E+04  0.11189741666E+04  0.00000000000E+00 0. -1.
          1    1    1    2  502    0  0.40285199181E+02  0.89270878217E+02 -0.13239492923E+01  0.97948659064E+02  0.00000000000E+00 0. -1.
         22    1    3    3    0    0 -0.64848236592E+02 -0.85506328536E+02 -0.35148879270E+03  0.36750645899E+03  0.00000000000E+00 0.  1.
         22    1    3    3    0    0 -0.17674177690E+02  0.28838831999E+02 -0.26372318977E+02  0.42890022107E+02  0.00000000000E+00 0.  1.
</event>
<event>
 7    1  0.6294601E-006  0.8392215E+02  0.7818608E-02  0.1412791E+00
          2   -1    0    0  502    0  0.00000000000E+00  0.00000000000E+00  0.24625216018E+03  0.24625216018E+03  0.00000000000E+00 0. -1.
          1   -1    0    0  501    0 -0.00000000000E+00 -0.00000000000E+00 -0.73912340170E+03  0.73912340170E+03  0.00000000000E+00 0. -1.
         25    2    1    2    0    0  0.47973426414E+02  0.55291460153E+02  0.13480651474E+02  0.14547771429E+03  0.12499376857E+03 0.  0.
          2    1    1    2  501    0  0.31839049962E+02 -0.20998880168E+02 -0.66122613419E+03  0.66232520608E+03  0.00000000000E+00 0. -1.
          1    1    1    2  502    0 -0.79812476376E+02 -0.34292579985E+02  0.15487424120E+03  0.17757264152E+03  0.00000000000E+00 0. -1.
         22    1    3    3    0    0  0.38136936631E+02  0.81404247848E+02  0.47343128941E+02  0.10159945552E+03  0.00000000000E+00 0. -1.
         22    1    3    3    0    0  0.98364897826E+01 -0.26112787695E+02 -0.33862477467E+02  0.43878258769E+02  0.00000000000E+00 0. -1.
</event>
<event>
 7    1  0.6294601E-006  0.3491943E+03  0.7818608E-02  0.1116421E+00
          2   -1    0    0  502    0  0.00000000000E+00  0.00000000000E+00  0.10453607522E+04  0.10453607522E+04  0.00000000000E+00 0. -1.
          1   -1    0    0  501    0 -0.00000000000E+00 -0.00000000000E+00 -0.83550529848E+03  0.83550529848E+03  0.00000000000E+00 0. -1.
         25    2    1    2    0    0  0.15675715594E+02 -0.20293074357E+03  0.35157105410E+03  0.42503424495E+03  0.12500115423E+03 0.  0.
          2    1    1    2  501    0 -0.10439460482E+03  0.35037793457E+03 -0.74425396850E+03  0.82920256885E+03  0.00000000000E+00 0. -1.
          1    1    1    2  502    0  0.88718889224E+02 -0.14744719100E+03  0.60253836810E+03  0.62662923685E+03  0.00000000000E+00 0. -1.
         22    1    3    3    0    0 -0.11176309395E+02 -0.57762273477E+02  0.21849616477E+03  0.22627851013E+03  0.00000000000E+00 0.  1.
         22    1    3    3    0    0  0.26852024989E+02 -0.14516847009E+03  0.13307488933E+03  0.19875573482E+03  0.00000000000E+00 0.  1.
</event>
<event>
 7    1  0.6294601E-006  0.1023973E+03  0.7818608E-02  0.1378329E+00
          2   -1    0    0  502    0  0.00000000000E+00  0.00000000000E+00  0.50665645439E+03  0.50665645439E+03  0.00000000000E+00 0. -1.
          1   -1    0    0  501    0 -0.00000000000E+00 -0.00000000000E+00 -0.42170150797E+03  0.42170150797E+03  0.00000000000E+00 0. -1.
         25    2    1    2    0    0  0.52487316579E+02 -0.13029291211E+03  0.16701414782E+03  0.25149468090E+03  0.12499875040E+03 0.  0.
          2    1    1    2  501    0 -0.27992916185E+02  0.97239136915E+02 -0.37123356501E+03  0.38477709508E+03  0.00000000000E+00 0. -1.
          1    1    1    2  502    0 -0.24494400393E+02  0.33053775199E+02  0.28917436361E+03  0.29208618638E+03  0.00000000000E+00 0. -1.
         22    1    3    3    0    0  0.20614610946E+02 -0.14713589220E+02 -0.17970566823E+02  0.31054680229E+02  0.00000000000E+00 0. -1.
         22    1    3    3    0    0  0.31872705633E+02 -0.11557932289E+03  0.18498471464E+03  0.22044000067E+03  0.00000000000E+00 0. -1.
</event>
<event>
 7    1  0.6294601E-006  0.7548856E+02  0.7818608E-02  0.1480638E+00
          2   -1    0    0  502    0  0.00000000000E+00  0.00000000000E+00  0.76710524855E+03  0.76710524855E+03  0.00000000000E+00 0. -1.
          1   -1    0    0  501    0 -0.00000000000E+00 -0.00000000000E+00 -0.25250611816E+03  0.25250611816E+03  0.00000000000E+00 0. -1.
         25    2    1    2    0    0 -0.26822455438E+02  0.83290971285E+02  0.85906478404E+02  0.17510483442E+03  0.12499979997E+03 0.  0.
          2    1    1    2  501    0  0.25498356020E+01 -0.74985418354E+02 -0.20086815095E+03  0.21442324663E+03  0.00000000000E+00 0. -1.
          1    1    1    2  502    0  0.24272619836E+02 -0.83055529309E+01  0.62956080293E+03  0.63008328567E+03  0.00000000000E+00 0. -1.
         22    1    3    3    0    0 -0.88310216122E+01  0.11147226110E+03  0.40961813665E+02  0.11908787560E+03  0.00000000000E+00 0.  1.
         22    1    3    3    0    0 -0.17991433825E+02 -0.28181289814E+02  0.44944664738E+02  0.56016958817E+02  0.00000000000E+00 0.  1.
</event>
<event>
 7    1  0.6294601E-006  0.3154695E+02  0.7818608E-02  0.1634418E+00
          2   -1    0    0  502    0  0.00000000000E+00  0.00000000000E+00  0.38447756593E+03  0.38447756593E+03  0.00000000000E+00 0. -1.
          1   -1    0    0  501    0 -0.00000000000E+00 -0.00000000000E+00 -0.40114010072E+03  0.40114010072E+03  0.00000000000E+00 0. -1.
         25    2    1    2    0    0 -0.38933191447E+02 -0.15644796769E+02 -0.28721897510E+03  0.31603317867E+03  0.12498670849E+03 0.  0.
          2    1    1    2  501    0  0.17881405997E+02  0.24984606545E+02 -0.96773299481E+02  0.10153347594E+03  0.00000000000E+00 0. -1.
          1    1    1    2  502    0  0.21051785450E+02 -0.93398097757E+01  0.36732973980E+03  0.36805101203E+03  0.00000000000E+00 0. -1.
         22    1    3    3    0    0 -0.75027886186E+01  0.44673438284E+02 -0.42776390249E+02  0.62304313557E+02  0.00000000000E+00 0. -1.
         22    1    3    3    0    0 -0.31430402828E+02 -0.60318235053E+02 -0.24444258486E+03  0.25372886512E+03  0.00000000000E+00 0. -1.
</event>
<event>
 7    1  0.6294601E-006  0.1022069E+03  0.7818608E-02  0.1361701E+00
          2   -1    0    0  502    0  0.00000000000E+00  0.00000000000E+00  0.14800915173E+04  0.14800915173E+04  0.00000000000E+00 0. -1.
          1   -1    0    0  501    0 -0.00000000000E+00 -0.00000000000E+00 -0.25459182226E+03  0.25459182226E+03  0.00000000000E+00 0. -1.
         25    2    1    2    0    0  0.31019730858E+02 -0.14028085373E+03  0.23475021523E+03  0.30228369120E+03  0.12500729895E+03 0.  0.
          2    1    1    2  501    0 -0.56631481707E+01  0.10035236882E+03 -0.20889743571E+03  0.23182063718E+03  0.00000000000E+00 0. -1.
          1    1    1    2  502    0 -0.25356582688E+02  0.39928484907E+02  0.11996469155E+04  0.12005790112E+04  0.00000000000E+00 0. -1.
         22    1    3    3    0    0 -0.11341451069E+02 -0.47542202424E+02  0.28485827880E+01  0.48959206974E+02  0.00000000000E+00 0. -1.
         22    1    3    3    0    0  0.42361181928E+02 -0.92738651305E+02  0.23190163244E+03  0.25332448423E+03  0.00000000000E+00 0. -1.
</event>
<event>
 7    1  0.6294601E-006  0.1880483E+03  0.7818608E-02  0.1261655E+00
          2   -1    0    0  502    0  0.00000000000E+00  0.00000000000E+00  0.20794115782E+04  0.20794115782E+04  0.00000000000E+00 0. -1.
          1   -1    0    0  501    0 -0.00000000000E+00 -0.00000000000E+00 -0.60659364182E+03  0.60659364182E+03  0.00000000000E+00 0. -1.
         25    2    1    2    0    0 -0.24244248596E+02 -0.16767920476E+03  0.46842008969E+03  0.51356506006E+03  0.12501036431E+03 0.  0.
          2    1    1    2  501    0  0.58932753438E+02 -0.24084076268E+02 -0.57628450764E+03  0.57979043275E+03  0.00000000000E+00 0. -1.
          1    1    1    2  502    0 -0.34688504841E+02  0.19176328102E+03  0.15806823543E+04  0.15926497272E+04  0.00000000000E+00 0. -1.
         22    1    3    3    0    0 -0.46026473484E+02 -0.10315689367E+03  0.14906506013E+03  0.18702987228E+03  0.00000000000E+00 0. -1.
         22    1    3    3    0    0  0.21782224888E+02 -0.64522311081E+02  0.31935502956E+03  0.32653518777E+03  0.00000000000E+00 0. -1.
</event>
<event>
 7    1  0.6294601E-006  0.6088877E+02  0.7818608E-02  0.1462518E+00
          2   -1    0    0  502    0  0.00000000000E+00  0.00000000000E+00  0.13118406766E+04  0.13118406766E+04  0.00000000000E+00 0. -1.
          1   -1    0    0  501    0 -0.00000000000E+00 -0.00000000000E+00 -0.35298573429E+03  0.35298573429E+03  0.00000000000E+00 0. -1.
         25    2    1    2    0    0 -0.55305123317E+01  0.45073065855E+02  0.48898483583E+03  0.50674652180E+03  0.12499479930E+03 0.  0.
          2    1    1    2  501    0  0.41729756972E+02 -0.44520905974E+02 -0.34099261460E+03  0.34640936318E+03  0.00000000000E+00 0. -1.
          1    1    1    2  502    0 -0.36199244640E+02 -0.55215988089E+00  0.81086272112E+03  0.81167052595E+03  0.00000000000E+00 0. -1.
         22    1    3    3    0    0 -0.54744251171E+02  0.50764574792E+02  0.37656218694E+03  0.38389198445E+03  0.00000000000E+00 0.  1.
         22    1    3    3    0    0  0.49213738840E+02 -0.56915089372E+01  0.11242264888E+03  0.12285453735E+03  0.00000000000E+00 0.  1.
</event>
<event>
 7    1  0.6294601E-006  0.9478107E+02  0.7818608E-02  0.1295984E+00
          2   -1    0    0  502    0  0.00000000000E+00  0.00000000000E+00  0.13917727127E+04  0.13917727127E+04  0.00000000000E+00 0. -1.
          1   -1    0    0  501    0 -0.00000000000E+00 -0.00000000000E+00 -0.69539742137E+03  0.69539742137E+03  0.00000000000E+00 0. -1.
         25    2    1    2    0    0 -0.32031186620E+02  0.90720582243E+01  0.34934355273E+03  0.37252327541E+03  0.12499749490E+03 0.  0.
          2    1    1    2  501    0 -0.50511967710E+02 -0.80199700239E+02 -0.67762070405E+03  0.68421726765E+03  0.00000000000E+00 0. -1.
          1    1    1    2  502    0  0.82543154330E+02  0.71127642015E+02  0.10246524426E+04  0.10304295910E+04  0.00000000000E+00 0. -1.
         22    1    3    3    0    0 -0.65098976406E+02  0.41319092901E+02  0.26918083070E+03  0.28000618526E+03  0.00000000000E+00 0. -1.
         22    1    3    3    0    0  0.33067789785E+02 -0.32247034676E+02  0.80162722022E+02  0.92517090144E+02  0.00000000000E+00 0. -1.
</event>
<event>
 7    1  0.6294601E-006  0.4777744E+02  0.7818608E-02  0.1477549E+00
          2   -1    0    0  502    0  0.00000000000E+00  0.00000000000E+00  0.40419375254E+03  0.40419375254E+03  0.00000000000E+00 0. -1.
          1   -1    0    0  501    0 -0.00000000000E+00 -0.00000000000E+00 -0.81980650449E+03  0.81980650449E+03  0.00000000000E+00 0. -1.
         25    2    1    2    0    0  0.26059890996E+02 -0.84027387049E+02  0.36531743455E+03  0.39600698097E+03  0.12499992520E+03 0.  0.
          2    1    1    2  501    0 -0.20788210181E+02  0.42934980922E+02 -0.78492385043E+03  0.78637205777E+03  0.00000000000E+00 0. -1.
          1    1    1    2  502    0 -0.52716808145E+01  0.41092406127E+02  0.39936639260E+01  0.41621218284E+02  0.00000000000E+00 0. -1.
         22    1    3    3    0    0 -0.32997420269E+02 -0.48827475586E+02  0.64227154550E+02  0.87166963341E+02  0.00000000000E+00 0. -1.
         22    1    3    3    0    0  0.59057311265E+02 -0.35199911463E+02  0.30109028000E+03  0.30884001763E+03  0.00000000000E+00 0. -1.
</event>
<event>
 7    1  0.6294601E-006  0.2106988E+03  0.7818608E-02  0.1264233E+00
          2   -1    0    0  502    0  0.00000000000E+00  0.00000000000E+00  0.10883057637E+04  0.10883057637E+04  0.00000000000E+00 0. -1.
          1   -1    0    0  501    0 -0.00000000000E+00 -0.00000000000E+00 -0.41452892837E+03  0.41452892837E+03  0.00000000000E+00 0. -1.
         25    2    1    2    0    0 -0.40474000163E+02 -0.16672601363E+03 -0.23086910601E+03  0.31363776128E+03  0.12502956803E+03 0.  0.
          2    1    1    2  501    0  0.31652240500E+02 -0.45473698462E+02 -0.12560538999E+03  0.13728232069E+03  0.00000000000E+00 0. -1.
          1    1    1    2  502    0  0.88217596627E+01  0.21219971210E+03  0.10302513313E+04  0.10519146101E+04  0.00000000000E+00 0. -1.
         22    1    3    3    0    0 -0.56981955768E+02 -0.12622889760E+03 -0.23165571335E+03  0.26989821674E+03  0.00000000000E+00 0.  1.
         22    1    3    3    0    0  0.16507955605E+02 -0.40497116036E+02  0.78660734215E+00  0.43739544540E+02  0.00000000000E+00 0.  1.
</event>
<event>
 7    1  0.6294601E-006  0.7956443E+02  0.7818608E-02  0.1451779E+00
          2   -1    0    0  502    0  0.00000000000E+00  0.00000000000E+00  0.36899908360E+04  0.36899908360E+04  0.00000000000E+00 0. -1.
          1   -1    0    0  501    0 -0.00000000000E+00 -0.00000000000E+00 -0.12632473616E+02  0.12632473616E+02  0.00000000000E+00 0. -1.
         25    2    1    2    0    0 -0.41050328128E+02 -0.34857136711E+02  0.22545507730E+04  0.22586554730E+04  0.12500083193E+03 0.  0.
          2    1    1    2  501    0  0.70384259702E+02  0.40963711108E+02  0.14895777611E+03  0.16976568766E+03  0.00000000000E+00 0. -1.
          1    1    1    2  502    0 -0.29333931574E+02 -0.61065743974E+01  0.12738498133E+04  0.12742021490E+04  0.00000000000E+00 0. -1.
         22    1    3    3    0    0 -0.19772828560E+02  0.38749930777E+02  0.14002438048E+04  0.14009194248E+04  0.00000000000E+00 0.  1.
         22    1    3    3    0    0 -0.21277499568E+02 -0.73607067487E+02  0.85430696820E+03  0.85773604815E+03  0.00000000000E+00 0.  1.
</event>
<event>
 7    1  0.6294601E-006  0.1880871E+03  0.7818608E-02  0.1234175E+00
          2   -1    0    0  502    0  0.00000000000E+00  0.00000000000E+00  0.11365011786E+04  0.11365011786E+04  0.00000000000E+00 0. -1.
          1   -1    0    0  501    0 -0.00000000000E+00 -0.00000000000E+00 -0.91538184732E+03  0.91538184732E+03  0.00000000000E+00 0. -1.
         25    2    1    2    0    0  0.40259261061E+02 -0.19243561343E+03  0.34041729781E+03  0.41250598937E+03  0.12499992480E+03 0.  0.
          2    1    1    2  501    0 -0.83494207740E+02  0.75832152788E+01 -0.86542558282E+03  0.86947698491E+03  0.00000000000E+00 0. -1.
          1    1    1    2  502    0  0.43234946679E+02  0.18485239816E+03  0.74612761631E+03  0.76990005166E+03  0.00000000000E+00 0. -1.
         22    1    3    3    0    0 -0.24067469162E+02 -0.31769532681E+01  0.83667178310E+02  0.87117924851E+02  0.00000000000E+00 0. -1.
         22    1    3    3    0    0  0.64326730224E+02 -0.18925866017E+03  0.25675011950E+03  0.32538806452E+03  0.00000000000E+00 0. -1.
</event>
<event>
 7    1  0.6294601E-006  0.9549707E+02  0.7818608E-02  0.1415500E+00
          2   -1    0    0  502    0  0.00000000000E+00  0.00000000000E+00  0.20482336702E+03  0.20482336702E+03  0.00000000000E+00 0. -1.
          1   -1    0    0  501    0 -0.00000000000E+00 -0.00000000000E+00 -0.39287484111E+03  0.39287484111E+03  0.00000000000E+00 0. -1.
         25    2    1    2    0    0 -0.60642941775E+01 -0.66139049388E+02 -0.18110927694E+03  0.22986360741E+03  0.12500223318E+03 0.  0.
          2    1    1    2  501    0  0.10239924892E+02 -0.31182026922E+02 -0.17258189082E+03  0.17567493818E+03  0.00000000000E+00 0. -1.
          1    1    1    2  502    0 -0.41756307146E+01  0.97321076310E+02  0.16563969368E+03  0.19215966254E+03  0.00000000000E+00 0. -1.
         22    1    3    3    0    0  0.59124050587E+02 -0.31193968144E+02 -0.97736953080E+02  0.11841127059E+03  0.00000000000E+00 0. -1.
         22    1    3    3    0    0 -0.65188344764E+02 -0.34945081245E+02 -0.83372323863E+02  0.11145233682E+03  0.00000000000E+00 0. -1.
</event>
<event>
 7    1  0.6294601E-006  0.9703545E+02  0.7818608E-02  0.1469018E+00
          2   -1    0    0  502    0  0.00000000000E+00  0.00000000000E+00  0.28026913103E+03  0.28026913103E+03  0.00000000000E+00 0. -1.
          1   -1    0    0  501    0 -0.00000000000E+00 -0.00000000000E+00 -0.87587278877E+03  0.87587278877E+03  0.00000000000E+00 0. -1.
         25    2    1    2    0    0 -0.64304037351E+02 -0.72658736000E+02 -0.59288454321E+03  0.61363749324E+03  0.12499836155E+03 0.  0.
          2    1    1    2  501    0 -0.14558842464E+02  0.16061382091E+02 -0.26342400755E+03  0.26431446355E+03  0.00000000000E+00 0. -1.
          1    1    1    2  502    0  0.78862879815E+02  0.56597353910E+02  0.26070489302E+03  0.27818996302E+03  0.00000000000E+00 0. -1.
         22    1    3    3    0    0 -0.73161814545E+02 -0.58281755789E+02 -0.20439947526E+03  0.22478558595E+03  0.00000000000E+00 0. -1.
         22    1    3    3    0    0  0.88577771935E+01 -0.14376980211E+02 -0.38848506795E+03  0.38885190729E+03  0.00000000000E+00 0. -1.
</event>
<event>
 7    1  0.6294601E-006  0.6369665E+02  0.7818608E-02  0.1490230E+00
          2   -1    0    0  502    0  0.00000000000E+00  0.00000000000E+00  0.76512260361E+03  0.76512260361E+03  0.00000000000E+00 0. -1.
          1   -1    0    0  501    0 -0.00000000000E+00 -0.00000000000E+00 -0.16745582944E+04  0.16745582944E+04  0.00000000000E+00 0. -1.
         25    2    1    2    0    0  0.17615645369E+02  0.88798642505E+02 -0.24235091320E+02  0.15622946896E+03  0.12499918978E+03 0.  0.
          2    1    1    2  501    0 -0.11999850429E+02 -0.25769517798E+02 -0.15827662651E+04  0.15830215142E+04  0.00000000000E+00 0. -1.
          1    1    1    2  502    0 -0.56157949396E+01 -0.63029124706E+02  0.69756566565E+03  0.70042991485E+03  0.00000000000E+00 0. -1.
         22    1    3    3    0    0  0.63794456259E+02  0.41080962067E+02 -0.43013989739E+02  0.87221450383E+02  0.00000000000E+00 0.  1.
         22    1    3    3    0    0 -0.46178810890E+02  0.47717680438E+02  0.18778898419E+02  0.69008018573E+02  0.00000000000E+00 0.  1.
</event>
<event>
 7    1  0.6294601E-006  0.4856667E+02  0.7818608E-02  0.1577888E+00
          2   -1    0    0  502    0  0.00000000000E+00  0.00000000000E+00  0.84666861240E+03  0.84666861240E+03  0.00000000000E+00 0. -1.
          1   -1    0    0  501    0 -0.00000000000E+00 -0.00000000000E+00 -0.20411970976E+03  0.20411970976E+03  0.00000000000E+00 0. -1.
         25    2    1    2    0    0  0.29453506413E+02  0.70560690093E+01  0.24193149205E+03  0.27399537014E+03  0.12500127544E+03 0.  0.
          2    1    1    2  501    0  0.20317169447E+02 -0.51752105295E+01 -0.18644572411E+03  0.18762083631E+03  0.00000000000E+00 0. -1.
          1    1    1    2  502    0 -0.49770675860E+02 -0.18808584798E+01  0.58706313471E+03  0.58917211572E+03  0.00000000000E+00 0. -1.
         22    1    3    3    0    0 -0.57759703887E+01  0.21210667473E+02  0.23422513996E+03  0.23525448016E+03  0.00000000000E+00 0. -1.
         22    1    3    3    0    0  0.35229476801E+02 -0.14154598464E+02  0.77063520896E+01  0.38740889973E+02  0.00000000000E+00 0. -1.
</event>
<event>
 7    1  0.6294601E-006  0.5114594E+02  0.7818608E-02  0.1551641E+00
          2   -1    0    0  502    0  0.00000000000E+00  0.00000000000E+00  0.49265090483E+03  0.49265090483E+03  0.00000000000E+00 0. -1.
          1   -1    0    0  501    0 -0.00000000000E+00 -0.00000000000E+00 -0.15609601007E+04  0.15609601007E+04  0.00000000000E+00 0. -1.
         25    2    1    2    0    0  0.30913790758E+02 -0.24895054713E+01  0.10991907238E+03  0.16931922286E+03  0.12499974665E+03 0.  0.
          2    1    1    2  501    0 -0.47514678525E+02  0.19105601506E+02 -0.15304405775E+04  0.15312971724E+04  0.00000000000E+00 0. -1.
          1    1    1    2  502    0  0.16600887767E+02 -0.16616096034E+02  0.35221230927E+03  0.35299461033E+03  0.00000000000E+00 0. -1.
         22    1    3    3    0    0  0.47372438801E+02  0.24396071433E+02  0.12387156723E+03  0.13484613983E+03  0.00000000000E+00 0.  1.
         22    1    3    3    0    0 -0.16458648043E+02 -0.26885576904E+02 -0.13952494853E+02  0.34473083029E+02  0.00000000000E+00 0.  1.
</event>
<event>
 7    1  0.6294601E-006  0.1234035E+03  0.7818608E-02  0.1274529E+00
          2   -1    0    0  502    0  0.00000000000E+00  0.00000000000E+00  0.11973714279E+04  0.11973714279E+04  0.00000000000E+00 0. -1.
          1   -1    0    0  501    0 -0.00000000000E+00 -0.00000000000E+00 -0.69969169271E+02  0.69969169271E+02  0.00000000000E+00 0. -1.
         25    2    1    2    0    0  0.16990702418E+02 -0.77305061381E+02  0.39100657811E+03  0.41806229118E+03  0.12500071480E+03 0.  0.
          2    1    1    2  501    0  0.73540525789E+02 -0.43858685403E+02 -0.11362684736E+02  0.86376523564E+02  0.00000000000E+00 0. -1.
          1    1    1    2  502    0 -0.90531228207E+02  0.12116374678E+03  0.74775836528E+03  0.76290178245E+03  0.00000000000E+00 0. -1.
         22    1    3    3    0    0  0.19080233710E+02  0.21090329739E+02  0.21099692219E+03  0.21290504574E+03  0.00000000000E+00 0. -1.
         22    1    3    3    0    0 -0.20895312915E+01 -0.98395391121E+02  0.18000965592E+03  0.20515724544E+03  0.00000000000E+00 0. -1.
</event>
<event>
 7    1  0.6294601E-006  0.8264995E+02  0.7818608E-02  0.1361685E+00
          2   -1    0    0  502    0  0.00000000000E+00  0.00000000000E+00  0.95368160644E+03  0.95368160644E+03  0.00000000000E+00 0. -1.
          1   -1    0    0  501    0 -0.00000000000E+00 -0.00000000000E+00 -0.19794659743E+04  0.19794659743E+04  0.00000000000E+00 0. -1.
         25    2    1    2    0    0  0.21329646128E+02 -0.78976279392E+02 -0.38443431471E+02  0.15425770520E+03  0.12500134272E+03 0.  0.
          2    1    1    2  501    0  0.48076665758E+02  0.33329229624E+02 -0.18807336788E+04  0.18816432643E+04  0.00000000000E+00 0. -1.
          1    1    1    2  502    0 -0.69406311886E+02  0.45647049768E+02  0.89339274240E+03  0.89724661128E+03  0.00000000000E+00 0. -1.
         22    1    3    3    0    0  0.64873308410E+02 -0.81831022422E+02 -0.36343938130E+02  0.11057008734E+03  0.00000000000E+00 0.  1.
         22    1    3    3    0    0 -0.43543662283E+02  0.28547430300E+01 -0.20994933411E+01  0.43687617869E+02  0.00000000000E+00 0.  1.
</event>
<event>
 7    1  0.6294601E-006  0.1007640E+03  0.7818608E-02  0.1395184E+00
          2   -1    0    0  502    0  0.00000000000E+00  0.00000000000E+00  0.26687005564E+04  0.26687005564E+04  0.00000000000E+00 0. -1.
          1   -1    0    0  501    0 -0.00000000000E+00 -0.00000000000E+00 -0.66136627651E+02  0.66136627651E+02  0.00000000000E+00 0. -1.
         25    2    1    2    0    0  0.14778104838E+02  0.65276049062E+02  0.58484092004E+03  0.60178166783E+03  0.12499167583E+03 0.  0.
          2    1    1    2  501    0 -0.22689370744E+02 -0.10089602836E+03 -0.11004782728E+02  0.10399962176E+03  0.00000000000E+00 0. -1.
          1    1    1    2  502    0  0.79112659055E+01  0.35619979302E+02  0.20287277914E+04  0.20290558944E+04  0.00000000000E+00 0. -1.
         22    1    3    3    0    0  0.35625504041E+02  0.40050203785E+02  0.55472203905E+03  0.55730578319E+03  0.00000000000E+00 0.  1.
         22    1    3    3    0    0 -0.20847399202E+02  0.25225845277E+02  0.30118880986E+02  0.44475884648E+02  0.00000000000E+00 0.  1.
</event>
<event>
 7    1  0.7283764E-006  0.9662660E+02  0.7818608E-02  0.1388232E+00
          2   -1    0    0  502    0  0.00000000000E+00  0.00000000000E+00  0.55004340010E+03  0.55004340010E+03  0.00000000000E+00 0. -1.
          1   -1    0    0  501    0 -0.00000000000E+00 -0.00000000000E+00 -0.13069214687E+04  0.13069214687E+04  0.00000000000E+00 0. -1.
         25    2    1    2    0    0 -0.86700505200E+02  0.95496305638E+02 -0.66105671084E+03  0.68502384990E+03  0.12500071198E+03 0.  0.
          2    1    1    2  501    0  0.82792071101E+01 -0.39369536023E+02 -0.62891216844E+03  0.63019760492E+03  0.00000000000E+00 0. -1.
          1    1    1    2  502    0  0.78421298090E+02 -0.56126769615E+02  0.53309081063E+03  0.54174341403E+03  0.00000000000E+00 0. -1.
         22    1    3    3    0    0 -0.84162523602E+02  0.12303930400E+03 -0.50529870202E+03  0.52682898456E+03  0.00000000000E+00 0.  1.
         22    1    3    3    0    0 -0.25379815982E+01 -0.27542998362E+02 -0.15575800882E+03  0.15819486534E+03  0.00000000000E+00 0.  1.
</event>
<event>
 7    1  0.6294601E-006  0.4829100E+02  0.7818608E-02  0.1476426E+00
          2   -1    0    0  502    0  0.00000000000E+00  0.00000000000E+00  0.25739121565E+03  0.25739121565E+03  0.00000000000E+00 0. -1.
          1   -1    0    0  501    0 -0.00000000000E+00 -0.00000000000E+00 -0.33583717954E+03  0.33583717954E+03  0.00000000000E+00 0. -1.
         25    2    1    2    0    0  0.50316614213E+02 -0.23863330084E+02 -0.36608951471E+02  0.14165451487E+03  0.12499826425E+03 0.  0.
          2    1    1    2  501    0 -0.45570666227E+02 -0.17179820574E+02 -0.24217315847E+03  0.24702159934E+03  0.00000000000E+00 0. -1.
          1    1    1    2  502    0 -0.47459479859E+01  0.41043150657E+02  0.20033614605E+03  0.20455228098E+03  0.00000000000E+00 0. -1.
         22    1    3    3    0    0  0.63634911131E+02  0.15990996947E+02  0.22295478305E+02  0.69297923856E+02  0.00000000000E+00 0. -1.
         22    1    3    3    0    0 -0.13318296918E+02 -0.39854327031E+02 -0.58904429776E+02  0.72356591013E+02  0.00000000000E+00 0. -1.
</event>
<event>
 7    1  0.6294601E-006  0.7039069E+02  0.7818608E-02  0.1483425E+00
          2   -1    0    0  502    0  0.00000000000E+00  0.00000000000E+00  0.20180832988E+04  0.20180832988E+04  0.00000000000E+00 0. -1.
          1   -1    0    0  501    0 -0.00000000000E+00 -0.00000000000E+00 -0.35938038994E+03  0.35938038994E+03  0.00000000000E+00 0. -1.
         25    2    1    2    0    0  0.52394672350E+02 -0.32823071471E+02  0.24337258732E+03  0.28049822116E+03  0.12500592026E+03 0.  0.
          2    1    1    2  501    0 -0.10919437938E+02 -0.24668858520E+02 -0.33956696044E+03  0.34063691422E+03  0.00000000000E+00 0. -1.
          1    1    1    2  502    0 -0.41475234412E+02  0.57491929991E+02  0.17548972819E+04  0.17563285533E+04  0.00000000000E+00 0. -1.
         22    1    3    3    0    0  0.38814557233E+01 -0.72884980500E+02  0.16163312699E+03  0.17734867866E+03  0.00000000000E+00 0. -1.
         22    1    3    3    0    0  0.48513216627E+02  0.40061909029E+02  0.81739460335E+02  0.10314954250E+03  0.00000000000E+00 0. -1.
</event>
<event>
 7    1  0.6294601E-006  0.1587888E+03  0.7818608E-02  0.1254096E+00
          2   -1    0    0  502    0  0.00000000000E+00  0.00000000000E+00  0.78986565222E+03  0.78986565222E+03  0.00000000000E+00 0. -1.
          1   -1    0    0  501    0 -0.00000000000E+00 -0.00000000000E+00 -0.11530084831E+04  0.11530084831E+04  0.00000000000E+00 0. -1.
         25    2    1    2    0    0 -0.53350389220E+02 -0.18396606414E+03 -0.18533586038E+03  0.29438735437E+03  0.12499902593E+03 0.  0.
          2    1    1    2  501    0  0.10194056837E+03  0.11887160860E+03 -0.90415249722E+03  0.91761325026E+03  0.00000000000E+00 0. -1.
          1    1    1    2  502    0 -0.48590179149E+02  0.65094455537E+02  0.72634552674E+03  0.73087353069E+03  0.00000000000E+00 0. -1.
         22    1    3    3    0    0 -0.74569771419E+02 -0.16838427056E+03 -0.19320338051E+03  0.26691095823E+03  0.00000000000E+00 0.  1.
         22    1    3    3    0    0  0.21219382198E+02 -0.15581793574E+02  0.78675201268E+01  0.27476396139E+02  0.00000000000E+00 0.  1.
</event>
<event>
 7    1  0.6294601E-006  0.1654009E+03  0.7818608E-02  0.1305994E+00
          2   -1    0    0  502    0  0.00000000000E+00  0.00000000000E+00  0.12026268476E+04  0.12026268476E+04  0.00000000000E+00 0. -1.
          1   -1    0    0  501    0 -0.00000000000E+00 -0.00000000000E+00 -0.10248002543E+03  0.10248002543E+03  0.00000000000E+00 0. -1.
         25    2    1    2    0    0 -0.74725778848E+02  0.18717692434E+03  0.41394475091E+03  0.47706851490E+03  0.12499987228E+03 0.  0.
          2    1    1    2  501    0  0.74744682238E+02 -0.13959362480E+03  0.19386709051E+02  0.15952740233E+03  0.00000000000E+00 0. -1.
          1    1    1    2  502    0 -0.18903390029E-01 -0.47583299541E+02  0.66681536216E+03  0.66851095576E+03  0.00000000000E+00 0. -1.
         22    1    3    3    0    0  0.31708258031E+02  0.80257760339E+02  0.15086571964E+03  0.17380214925E+03  0.00000000000E+00 0. -1.
         22    1    3    3    0    0 -0.10643403688E+03  0.10691916400E+03  0.26307903127E+03  0.30326636565E+03  0.00000000000E+00 0. -1.
</event>
<event>
 7    1  0.6294601E-006  0.1669642E+03  0.7818608E-02  0.1344924E+00
          2   -1    0    0  502    0  0.00000000000E+00  0.00000000000E+00  0.22941208431E+03  0.22941208431E+03  0.00000000000E+00 0. -1.
          1   -1    0    0  501    0 -0.00000000000E+00 -0.00000000000E+00 -0.42749282627E+03  0.42749282627E+03  0.00000000000E+00 0. -1.
         25    2    1    2    0    0 -0.32160232945E+02 -0.18161446399E+03 -0.26914368699E+02  0.22442702012E+03  0.12500004002E+03 0.  0.
          2    1    1    2  501    0  0.42240895490E+01  0.16333316607E+03 -0.27694835217E+03  0.32155241538E+03  0.00000000000E+00 0. -1.
          1    1    1    2  502    0  0.27936143397E+02  0.18281297922E+02  0.10578197890E+03  0.11092547508E+03  0.00000000000E+00 0. -1.
         22    1    3    3    0    0 -0.31445694452E+02 -0.12148716959E+03 -0.76081998228E+02  0.14675297110E+03  0.00000000000E+00 0. -1.
         22    1    3    3    0    0 -0.71453849338E+00 -0.60127294401E+02  0.49167629529E+02  0.77674049017E+02  0.00000000000E+00 0. -1.
</event>
<event>
 7    1  0.6294601E-006  0.1085090E+03  0.7818608E-02  0.1390847E+00
          2   -1    0    0  502    0  0.00000000000E+00  0.00000000000E+00  0.78969621322E+03  0.78969621322E+03  0.00000000000E+00 0. -1.
          1   -1    0    0  501    0 -0.00000000000E+00 -0.00000000000E+00 -0.16648492860E+04  0.16648492860E+04  0.00000000000E+00 0. -1.
         25    2    1    2    0    0 -0.78947956799E+02 -0.13982126500E+01  0.99556936063E+01  0.14818683860E+03  0.12500195365E+03 0.  0.
          2    1    1    2  501    0  0.10687106666E+03  0.22632309943E+02 -0.15934295208E+04  0.15971697731E+04  0.00000000000E+00 0. -1.
          1    1    1    2  502    0 -0.27923109860E+02 -0.21234097293E+02  0.70832075445E+03  0.70918888749E+03  0.00000000000E+00 0. -1.
         22    1    3    3    0    0  0.16692308486E+02  0.20341526835E+02 -0.32068909100E+02  0.41482837505E+02  0.00000000000E+00 0.  1.
         22    1    3    3    0    0 -0.95640265286E+02 -0.21739739485E+02  0.42024602707E+02  0.10670400109E+03  0.00000000000E+00 0.  1.
</event>
<event>
 7    1  0.6294601E-006  0.9327159E+02  0.7818608E-02  0.1405493E+00
          2   -1    0    0  502    0  0.00000000000E+00  0.00000000000E+00  0.17288342627E+03  0.17288342627E+03  0.00000000000E+00 0. -1.
          1   -1    0    0  501    0 -0.00000000000E+00 -0.00000000000E+00 -0.10985959770E+04  0.10985959770E+04  0.00000000000E+00 0. -1.
         25    2    1    2    0    0  0.81744599259E+02  0.99752527476E+02 -0.84997504059E+03  0.86874329683E+03  0.12499839970E+03 0.  0.
          2    1    1    2  501    0 -0.24605302757E+02 -0.26729891736E+02 -0.22451246275E+03  0.22743296588E+03  0.00000000000E+00 0. -1.
          1    1    1    2  502    0 -0.57139296501E+02 -0.73022635740E+02  0.14877495266E+03  0.17530314052E+03  0.00000000000E+00 0. -1.
         22    1    3    3    0    0  0.53790328740E+02  0.11338128237E+02 -0.10990272130E+03  0.12288433898E+03  0.00000000000E+00 0.  1.
         22    1    3    3    0    0  0.27954270519E+02  0.88414399239E+02 -0.74007231929E+03  0.74585895785E+03  0.00000000000E+00 0.  1.
</event>
<event>
 7    1  0.6294601E-006  0.6856146E+02  0.7818608E-02  0.1409329E+00
          2   -1    0    0  502    0  0.00000000000E+00  0.00000000000E+00  0.35630135445E+03  0.35630135445E+03  0.00000000000E+00 0. -1.
          1   -1    0    0  501    0 -0.00000000000E+00 -0.00000000000E+00 -0.97787908500E+03  0.97787908500E+03  0.00000000000E+00 0. -1.
         25    2    1    2    0    0  0.29332080194E+02  0.58742401386E+02 -0.23269698943E+03  0.27218630038E+03  0.12500581017E+03 0.  0.
          2    1    1    2  501    0 -0.47340669315E+02  0.76918591583E+01 -0.72111315384E+03  0.72270636105E+03  0.00000000000E+00 0. -1.
          1    1    1    2  502    0  0.18008589121E+02 -0.66434260545E+02  0.33223241272E+03  0.33928777802E+03  0.00000000000E+00 0. -1.
         22    1    3    3    0    0  0.48863793394E+02  0.46069408901E+02 -0.40164622003E+02  0.78251246648E+02  0.00000000000E+00 0.  1.
         22    1    3    3    0    0 -0.19531713200E+02  0.12672992485E+02 -0.19253236742E+03  0.19393505373E+03  0.00000000000E+00 0.  1.
</event>
<event>
 7    1  0.6294601E-006  0.1058204E+03  0.7818608E-02  0.1446243E+00
          2   -1    0    0  502    0  0.00000000000E+00  0.00000000000E+00  0.13862882674E+04  0.13862882674E+04  0.00000000000E+00 0. -1.
          1   -1    0    0  501    0 -0.00000000000E+00 -0.00000000000E+00 -0.10111222833E+04  0.10111222833E+04  0.00000000000E+00 0. -1.
         25    2    1    2    0    0  0.71702284725E+02 -0.96012001480E+02  0.43878741046E+03  0.47171869312E+03  0.12499844720E+03 0.  0.
          2    1    1    2  501    0 -0.48316017831E+02  0.94060451923E+02 -0.99169742609E+03  0.99731920222E+03  0.00000000000E+00 0. -1.
          1    1    1    2  502    0 -0.23386266894E+02  0.19515495570E+01  0.92807599966E+03  0.92837265534E+03  0.00000000000E+00 0. -1.
         22    1    3    3    0    0 -0.12452204052E+02 -0.61765677854E+02  0.81252620539E+02  0.10282044880E+03  0.00000000000E+00 0.  1.
         22    1    3    3    0    0  0.84154488777E+02 -0.34246323626E+02  0.35753478992E+03  0.36889824432E+03  0.00000000000E+00 0.  1.
</event>
<event>
 7    1  0.6294601E-006  0.7748143E+02  0.7818608E-02  0.1348943E+00
          2   -1    0    0  502    0  0.00000000000E+00  0.00000000000E+00  0.11025338568E+04  0.11025338568E+04  0.00000000000E+00 0. -1.
          1   -1    0    0  501    0 -0.00000000000E+00 -0.00000000000E+00 -0.80521970386E+03  0.80521970386E+03  0.00000000000E+00 0. -1.
         25    2    1    2    0    0 -0.76529187315E+02  0.77358125602E+01 -0.12449971949E+02  0.14729758511E+03  0.12500006988E+03 0.  0.
          2    1    1    2  501    0  0.36400766641E+02  0.59213541394E+02 -0.72220353888E+03  0.72554063351E+03  0.00000000000E+00 0. -1.
          1    1    1    2  502    0  0.40128420675E+02 -0.66949353954E+02  0.10319676638E+04  0.10349153421E+04  0.00000000000E+00 0. -1.
         22    1    3    3    0    0 -0.17713872157E+02 -0.56691758050E+02 -0.81977873727E+01  0.59957821970E+02  0.00000000000E+00 0. -1.
         22    1    3    3    0    0 -0.58815315158E+02  0.64427570611E+02 -0.42521845759E+01  0.87339763141E+02  0.00000000000E+00 0. -1.
</event>
<event>
 7    1  0.6294601E-006  0.5963178E+02  0.7818608E-02  0.1506575E+00
          2   -1    0    0  502    0  0.00000000000E+00  0.00000000000E+00  0.15248671946E+04  0.15248671946E+04  0.00000000000E+00 0. -1.
          1   -1    0    0  501    0 -0.00000000000E+00 -0.00000000000E+00 -0.31064557744E+03  0.31064557744E+03  0.00000000000E+00 0. -1.
         25    2    1    2    0    0  0.16056946307E+02  0.85064289366E+02 -0.10613090833E+03  0.18540268217E+03  0.12496649952E+03 0.  0.
          2    1    1    2  501    0 -0.32539951072E+01 -0.26935874804E+02 -0.16316176626E+03  0.16540221222E+03  0.00000000000E+00 0. -1.
          1    1    1    2  502    0 -0.12802951200E+02 -0.58128414562E+02  0.14835142918E+04  0.14847078777E+04  0.00000000000E+00 0. -1.
         22    1    3    3    0    0  0.70356195575E+02  0.48066861208E+02 -0.70900013801E+02  0.11084777562E+03  0.00000000000E+00 0. -1.
         22    1    3    3    0    0 -0.54299249268E+02  0.36997428158E+02 -0.35230894533E+02  0.74554906552E+02  0.00000000000E+00 0. -1.
</event>
<event>
 7    1  0.6294601E-006  0.6036464E+02  0.7818608E-02  0.1439786E+00
          2   -1    0    0  502    0  0.00000000000E+00  0.00000000000E+00  0.13477442772E+04  0.13477442772E+04  0.00000000000E+00 0. -1.
          1   -1    0    0  501    0 -0.00000000000E+00 -0.00000000000E+00 -0.39216029718E+03  0.39216029718E+03  0.00000000000E+00 0. -1.
         25    2    1    2    0    0 -0.21385502420E+02  0.95822258896E+02  0.73568841534E+03  0.75266300685E+03  0.12499964959E+03 0.  0.
          2    1    1    2  501    0 -0.29644674279E+01 -0.60182390190E+02 -0.38052770412E+03  0.38526879157E+03  0.00000000000E+00 0. -1.
          1    1    1    2  502    0  0.24349969848E+02 -0.35639868705E+02  0.60042326880E+03  0.60197277595E+03  0.00000000000E+00 0. -1.
         22    1    3    3    0    0 -0.21107645839E+02  0.10216226493E+03  0.73842109577E+03  0.74575356236E+03  0.00000000000E+00 0. -1.
         22    1    3    3    0    0 -0.27785658101E+00 -0.63400060381E+01 -0.27326804298E+01  0.69094444909E+01  0.00000000000E+00 0. -1.
</event>
<event>
 7    1  0.6371016E-006  0.1016259E+03  0.7818608E-02  0.1303623E+00
          2   -1    0    0  502    0  0.00000000000E+00  0.00000000000E+00  0.63450001248E+03  0.63450001248E+03  0.00000000000E+00 0. -1.
          1   -1    0    0  501    0 -0.00000000000E+00 -0.00000000000E+00 -0.22272059405E+04  0.22272059405E+04  0.00000000000E+00 0. -1.
         25    2    1    2    0    0  0.60072174267E+01 -0.66935205387E+02 -0.25510035787E+03  0.29192110937E+03  0.12500133252E+03 0.  0.
          2    1    1    2  501    0 -0.85063871457E+02  0.63251236495E+02 -0.19497078677E+04  0.19525873477E+04  0.00000000000E+00 0. -1.
          1    1    1    2  502    0  0.79056654030E+02  0.36839688924E+01  0.61210229758E+03  0.61719749584E+03  0.00000000000E+00 0. -1.
         22    1    3    3    0    0 -0.58656066850E+01 -0.73045790712E+02 -0.55629955999E+02  0.92004265591E+02  0.00000000000E+00 0. -1.
         22    1    3    3    0    0  0.11872824112E+02  0.61105853243E+01 -0.19947040187E+03  0.19991684378E+03  0.00000000000E+00 0. -1.
</event>
<event>
 7    1  0.6294601E-006  0.8742602E+02  0.7818608E-02  0.1356054E+00
          2   -1    0    0  502    0  0.00000000000E+00  0.00000000000E+00  0.24261795292E+03  0.24261795292E+03  0.00000000000E+00 0. -1.
          1   -1    0    0  501    0 -0.00000000000E+00 -0.00000000000E+00 -0.11481808255E+04  0.11481808255E+04  0.00000000000E+00 0. -1.
         25    2    1    2    0    0  0.19708183952E+02 -0.11118571910E+03 -0.20033804880E+02  0.16963613811E+03  0.12499755745E+03 0.  0.
          2    1    1    2  501    0 -0.56512038648E+02  0.66373935189E+02 -0.10464695278E+04  0.10500940827E+04  0.00000000000E+00 0. -1.
          1    1    1    2  502    0  0.36803854695E+02  0.44811783910E+02  0.16094046014E+03  0.17106855762E+03  0.00000000000E+00 0. -1.
         22    1    3    3    0    0  0.30895093786E+02 -0.41945631863E+02  0.48786970500E+02  0.71373043532E+02  0.00000000000E+00 0.  1.
         22    1    3    3    0    0 -0.11186909834E+02 -0.69240087237E+02 -0.68820775379E+02  0.98263094578E+02  0.00000000000E+00 0.  1.
</event>
<event>
 7    1  0.6294601E-006  0.1294987E+03  0.7818608E-02  0.1231891E+00
          2   -1    0    0  502    0  0.00000000000E+00  0.00000000000E+00  0.23353628722E+04  0.23353628722E+04  0.00000000000E+00 0. -1.
          1   -1    0    0  501    0 -0.00000000000E+00 -0.00000000000E+00 -0.65908334263E+02  0.65908334263E+02  0.00000000000E+00 0. -1.
         25    2    1    2    0    0 -0.36652426944E+02 -0.54561452729E+02  0.62321190191E+03  0.63901400598E+03  0.12500189050E+03 0.  0.
          2    1    1    2  501    0  0.14309704017E+03 -0.10318875469E+02  0.36959106311E+02  0.14815268352E+03  0.00000000000E+00 0. -1.
          1    1    1    2  502    0 -0.10644461322E+03  0.64880328198E+02  0.16092835297E+04  0.16141045170E+04  0.00000000000E+00 0. -1.
         22    1    3    3    0    0 -0.42730982767E+02  0.98798616491E+01  0.47825989758E+03  0.48026667404E+03  0.00000000000E+00 0.  1.
         22    1    3    3    0    0  0.60785558234E+01 -0.64441314378E+02  0.14495200433E+03  0.15874733194E+03  0.00000000000E+00 0.  1.
</event>
<event>
 7    1  0.6294601E-006  0.6045459E+02  0.7818608E-02  0.1449381E+00
          2   -1    0    0  502    0  0.00000000000E+00  0.00000000000E+00  0.24249847243E+04  0.24249847243E+04  0.00000000000E+00 0. -1.
          1   -1    0    0  501    0 -0.00000000000E+00 -0.00000000000E+00 -0.43295019386E+03  0.43295019386E+03  0.00000000000E+00 0. -1.
         25    2    1    2    0    0 -0.14260253146E+02  0.97882783535E+02  0.12083346722E+04  0.12188022490E+04  0.12498739121E+03 0.  0.
          2    1    1    2  501    0  0.17289784292E+02 -0.57860802529E+02 -0.42525015102E+03  0.42951658879E+03  0.00000000000E+00 0. -1.
          1    1    1    2  502    0 -0.30295311465E+01 -0.40021981006E+02  0.12089500093E+04  0.12096160804E+04  0.00000000000E+00 0. -1.
         22    1    3    3    0    0 -0.38650401516E+02  0.11646241447E+03  0.10753654446E+04  0.10823438396E+04  0.00000000000E+00 0.  1.
         22    1    3    3    0    0  0.24390148370E+02 -0.18579630939E+02  0.13296922755E+03  0.13645840941E+03  0.00000000000E+00 0.  1.
</event>
<event>
 7    1  0.6294601E-006  0.7865262E+02  0.7818608E-02  0.1411162E+00
          2   -1    0    0  502    0  0.00000000000E+00  0.00000000000E+00  0.26104673255E+03  0.26104673255E+03  0.00000000000E+00 0. -1.
          1   -1    0    0  501    0 -0.00000000000E+00 -0.00000000000E+00 -0.56949017451E+03  0.56949017451E+03  0.00000000000E+00 0. -1.
         25    2    1    2    0    0 -0.26320238277E+02 -0.56391160249E+02  0.11370768836E+03  0.18008706459E+03  0.12501677704E+03 0.  0.
          2    1    1    2  501    0  0.24587816216E+02 -0.33077047590E+02 -0.51781750706E+03  0.51945512068E+03  0.00000000000E+00 0. -1.
          1    1    1    2  502    0  0.17324220610E+01  0.89468207838E+02  0.95666376738E+02  0.13099472180E+03  0.00000000000E+00 0. -1.
         22    1    3    3    0    0 -0.40239975861E+02 -0.87454829164E+02  0.51507351630E+02  0.10918154640E+03  0.00000000000E+00 0.  1.
         22    1    3    3    0    0  0.13919737584E+02  0.31063668915E+02  0.62200336726E+02  0.70905518190E+02  0.00000000000E+00 0.  1.
</event>
<event>
 7    1  0.6294601E-006  0.8164988E+02  0.7818608E-02  0.1398757E+00
          2   -1    0    0  502    0  0.00000000000E+00  0.00000000000E+00  0.25559101590E+04  0.25559101590E+04  0.00000000000E+00 0. -1.
          1   -1    0    0  501    0 -0.00000000000E+00 -0.00000000000E+00 -0.47700289560E+03  0.47700289560E+03  0.00000000000E+00 0. -1.
         25    2    1    2    0    0 -0.13928898515E+02  0.36832632847E+02  0.21573712471E+03  0.25242178132E+03  0.12499436646E+03 0.  0.
          2    1    1    2  501    0  0.40187462899E+02 -0.71848581439E+02 -0.45475826622E+03  0.46214968519E+03  0.00000000000E+00 0. -1.
          1    1    1    2  502    0 -0.26258564384E+02  0.35015948592E+02  0.23179284049E+04  0.23183415881E+04  0.00000000000E+00 0. -1.
         22    1    3    3    0    0 -0.47684074492E+02  0.32367519126E+02  0.32736522012E+02  0.66280518465E+02  0.00000000000E+00 0. -1.
         22    1    3    3    0    0  0.33755175978E+02  0.44651137206E+01  0.18300060270E+03  0.18614126285E+03  0.00000000000E+00 0. -1.
</event>
<event>
 7    1  0.6294601E-006  0.1015336E+03  0.7818608E-02  0.1402585E+00
          2   -1    0    0  502    0  0.00000000000E+00  0.00000000000E+00  0.79327839219E+03  0.79327839219E+03  0.00000000000E+00 0. -1.
          1   -1    0    0  501    0 -0.00000000000E+00 -0.00000000000E+00 -0.57714423274E+03  0.57714423274E+03  0.00000000000E+00 0. -1.
         25    2    1    2    0    0 -0.77567543578E+02 -0.39112546785E+02 -0.59671467106E+02  0.16351398982E+03  0.12501850163E+03 0.  0.
          2    1    1    2  501    0  0.58781885761E+01 -0.33637262145E+02 -0.46139974902E+03  0.46266159004E+03  0.00000000000E+00 0. -1.
          1    1    1    2  502    0  0.71689355002E+02  0.72749808930E+02  0.73720537557E+03  0.74424704507E+03  0.00000000000E+00 0. -1.
         22    1    3    3    0    0 -0.95682905844E+02 -0.59313975363E+02 -0.18323134436E+02  0.11405745657E+03  0.00000000000E+00 0.  1.
         22    1    3    3    0    0  0.18115362266E+02  0.20201428578E+02 -0.41348332670E+02  0.49456533252E+02  0.00000000000E+00 0.  1.
</event>
<event>
 7    1  0.6294601E-006  0.6217438E+02  0.7818608E-02  0.1474044E+00
          2   -1    0    0  502    0  0.00000000000E+00  0.00000000000E+00  0.55633924886E+03  0.55633924886E+03  0.00000000000E+00 0. -1.
          1   -1    0    0  501    0 -0.00000000000E+00 -0.00000000000E+00 -0.13975583248E+03  0.13975583248E+03  0.00000000000E+00 0. -1.
         25    2    1    2    0    0  0.16656559883E+02 -0.43646154525E+02  0.16180742113E+02  0.13442156963E+03  0.12499965669E+03 0.  0.
          2    1    1    2  501    0 -0.26927345655E+02 -0.18444706707E+02 -0.75172415916E+02  0.81952310915E+02  0.00000000000E+00 0. -1.
          1    1    1    2  502    0  0.10270785772E+02  0.62090861232E+02  0.47557509019E+03  0.47972120080E+03  0.00000000000E+00 0. -1.
         22    1    3    3    0    0  0.18792618980E+02 -0.47168561197E+02  0.66648597595E+02  0.83785865484E+02  0.00000000000E+00 0.  1.
         22    1    3    3    0    0 -0.21360590969E+01  0.35224066717E+01 -0.50467855481E+02  0.50635704144E+02  0.00000000000E+00 0.  1.
</event>
<event>
 7    1  0.6294601E-006  0.1379671E+03  0.7818608E-02  0.1283297E+00
          2   -1    0    0  502    0  0.00000000000E+00  0.00000000000E+00  0.15182837230E+03  0.15182837230E+03  0.00000000000E+00 0. -1.
          1   -1    0    0  501    0 -0.00000000000E+00 -0.00000000000E+00 -0.87933465825E+03  0.87933465825E+03  0.00000000000E+00 0. -1.
         25    2    1    2    0    0 -0.14429120035E+03 -0.96212326493E+01 -0.96983570363E+02  0.21434616764E+03  0.12500379212E+03 0.  0.
          2    1    1    2  501    0  0.12616085870E+03 -0.58451989604E+02 -0.70248484854E+03  0.71611323112E+03  0.00000000000E+00 0. -1.
          1    1    1    2  502    0  0.18130341644E+02  0.68073222253E+02  0.71962132955E+02  0.10070363179E+03  0.00000000000E+00 0. -1.
         22    1    3    3    0    0 -0.10923644937E+03  0.13384747976E+02 -0.15019983322E+01  0.11006366044E+03  0.00000000000E+00 0.  1.
         22    1    3    3    0    0 -0.35054750973E+02 -0.23005980625E+02 -0.95481572031E+02  0.10428250720E+03  0.00000000000E+00 0.  1.
</event>
<event>
 7    1  0.6294601E-006  0.5076910E+02  0.7818608E-02  0.1520934E+00
          2   -1    0    0  502    0  0.00000000000E+00  0.00000000000E+00  0.17961576489E+04  0.17961576489E+04  0.00000000000E+00 0. -1.
          1   -1    0    0  501    0 -0.00000000000E+00 -0.00000000000E+00 -0.61213768108E+02  0.61213768108E+02  0.00000000000E+00 0. -1.
         25    2    1    2    0    0 -0.25527491193E+02 -0.74438663560E+02  0.16147497317E+03  0.21884014480E+03  0.12499629824E+03 0.  0.
          2    1    1    2  501    0  0.13759985557E+02  0.25444504321E+02 -0.25624496655E+02  0.38644208253E+02  0.00000000000E+00 0. -1.
          1    1    1    2  502    0  0.11767505636E+02  0.48994159239E+02  0.15990934043E+04  0.15998870640E+04  0.00000000000E+00 0. -1.
         22    1    3    3    0    0 -0.15385378793E+01 -0.32449547460E+02 -0.15055989056E+02  0.35805349260E+02  0.00000000000E+00 0. -1.
         22    1    3    3    0    0 -0.23988953313E+02 -0.41989116100E+02  0.17653096223E+03  0.18303479554E+03  0.00000000000E+00 0. -1.
</event>
<event>
 7    1  0.6294601E-006  0.1334178E+03  0.7818608E-02  0.1235844E+00
          2   -1    0    0  502    0  0.00000000000E+00  0.00000000000E+00  0.16431598167E+03  0.16431598167E+03  0.00000000000E+00 0. -1.
          1   -1    0    0  501    0 -0.00000000000E+00 -0.00000000000E+00 -0.13546289268E+04  0.13546289268E+04  0.00000000000E+00 0. -1.
         25    2    1    2    0    0 -0.25955466894E+01  0.21407903253E+03 -0.30050587003E+03  0.38957086640E+03  0.12500045198E+03 0.  0.
          2    1    1    2  501    0  0.59136134862E+02 -0.10001357700E+03 -0.97129411031E+03  0.97821881333E+03  0.00000000000E+00 0. -1.
          1    1    1    2  502    0 -0.56540588173E+02 -0.11406545553E+03  0.81487035237E+02  0.15115522872E+03  0.00000000000E+00 0. -1.
         22    1    3    3    0    0 -0.19698713433E+02 -0.72308497009E+01 -0.53578869918E+02  0.57541461574E+02  0.00000000000E+00 0.  1.
         22    1    3    3    0    0  0.17103166744E+02  0.22130988223E+03 -0.24692700011E+03  0.33202940483E+03  0.00000000000E+00 0.  1.
</event>
<event>
 7    1  0.6294601E-006  0.2500879E+03  0.7818608E-02  0.1347330E+00
          2   -1    0    0  502    0  0.00000000000E+00  0.00000000000E+00  0.15144045357E+04  0.15144045357E+04  0.00000000000E+00 0. -1.
          1   -1    0    0  501    0 -0.00000000000E+00 -0.00000000000E+00 -0.23098248982E+03  0.23098248982E+03  0.00000000000E+00 0. -1.
         25    2    1    2    0    0  0.16556416311E+03 -0.17580446883E+03 -0.66587122225E+02  0.27996570785E+03  0.12501299676E+03 0.  0.
          2    1    1    2  501    0 -0.89267344636E+01 -0.19925517411E+02 -0.43963217286E+02  0.49086426906E+02  0.00000000000E+00 0. -1.
          1    1    1    2  502    0 -0.15663742864E+03  0.19572998624E+03  0.13939723854E+04  0.14163348907E+04  0.00000000000E+00 0. -1.
         22    1    3    3    0    0  0.17356979709E+03 -0.12176642385E+03 -0.29800948295E+02  0.21410659251E+03  0.00000000000E+00 0.  1.
         22    1    3    3    0    0 -0.80056339789E+01 -0.54038044978E+02 -0.36786173930E+02  0.65859115336E+02  0.00000000000E+00 0.  1.
</event>
<event>
 7    1  0.6294601E-006  0.6150119E+02  0.7818608E-02  0.1466736E+00
          2   -1    0    0  502    0  0.00000000000E+00  0.00000000000E+00  0.21845352959E+04  0.21845352959E+04  0.00000000000E+00 0. -1.
          1   -1    0    0  501    0 -0.00000000000E+00 -0.00000000000E+00 -0.77053608574E+03  0.77053608574E+03  0.00000000000E+00 0. -1.
         25    2    1    2    0    0  0.64792596956E+02  0.17973496094E+02  0.46370295889E+03  0.48493866456E+03  0.12499578843E+03 0.  0.
          2    1    1    2  501    0 -0.53329059285E+01 -0.34356838770E+02 -0.75896407580E+03  0.75976002831E+03  0.00000000000E+00 0. -1.
          1    1    1    2  502    0 -0.59459691028E+02  0.16383342676E+02  0.17092603271E+04  0.17103726888E+04  0.00000000000E+00 0. -1.
         22    1    3    3    0    0  0.39040993048E+02  0.44677304522E+02  0.80807465965E+02  0.10025022311E+03  0.00000000000E+00 0. -1.
         22    1    3    3    0    0  0.25751603908E+02 -0.26703808427E+02  0.38289549292E+03  0.38468844146E+03  0.00000000000E+00 0. -1.
</event>
<event>
 7    1  0.6294601E-006  0.5299702E+02  0.7818608E-02  0.1431514E+00
          2   -1    0    0  502    0  0.00000000000E+00  0.00000000000E+00  0.28720475070E+04  0.28720475070E+04  0.00000000000E+00 0. -1.
          1   -1    0    0  501    0 -0.00000000000E+00 -0.00000000000E+00 -0.68159087795E+02  0.68159087795E+02  0.00000000000E+00 0. -1.
         25    2    1    2    0    0  0.31635864655E+02  0.54701790599E+02  0.17269589661E+03  0.22235577838E+03  0.12500042259E+03 0.  0.
          2    1    1    2  501    0 -0.53015778274E+02 -0.62086619514E+01 -0.26524730520E+02  0.59605214188E+02  0.00000000000E+00 0. -1.
          1    1    1    2  502    0  0.21379913618E+02 -0.48493128647E+02  0.26577172532E+04  0.26582456023E+04  0.00000000000E+00 0. -1.
         22    1    3    3    0    0  0.19720924370E+02  0.84376564811E+02  0.16931561721E+03  0.19020015189E+03  0.00000000000E+00 0. -1.
         22    1    3    3    0    0  0.11914940285E+02 -0.29674774212E+02  0.33802794019E+01  0.32155626497E+02  0.00000000000E+00 0. -1.
</event>
<event>
 7    1  0.6294601E-006  0.8870307E+02  0.7818608E-02  0.1363013E+00
          2   -1    0    0  502    0  0.00000000000E+00  0.00000000000E+00  0.39049232702E+03  0.39049232702E+03  0.00000000000E+00 0. -1.
          1   -1    0    0  501    0 -0.00000000000E+00 -0.00000000000E+00 -0.24214597298E+03  0.24214597298E+03  0.00000000000E+00 0. -1.
         25    2    1    2    0    0 -0.68969835708E+02  0.11294870334E+03  0.17172574549E+03  0.25025755190E+03  0.12499945117E+03 0.  0.
          2    1    1    2  501    0  0.63563098500E+02 -0.59315794006E+02 -0.18909202347E+03  0.20812117684E+03  0.00000000000E+00 0. -1.
          1    1    1    2  502    0  0.54067372076E+01 -0.53632909336E+02  0.16571263201E+03  0.17425957127E+03  0.00000000000E+00 0. -1.
         22    1    3    3    0    0  0.31202935646E+02  0.61285270549E+02  0.74714287576E+02  0.10154670033E+03  0.00000000000E+00 0. -1.
         22    1    3    3    0    0 -0.10017277135E+03  0.51663432794E+02  0.97011457914E+02  0.14871085157E+03  0.00000000000E+00 0. -1.
</event>
<event>
 7    1  0.6294601E-006  0.5008322E+02  0.7818608E-02  0.1506420E+00
          2   -1    0    0  502    0  0.00000000000E+00  0.00000000000E+00  0.67268647204E+03  0.67268647204E+03  0.00000000000E+00 0. -1.
          1   -1    0    0  501    0 -0.00000000000E+00 -0.00000000000E+00 -0.13132711685E+04  0.13132711685E+04  0.00000000000E+00 0. -1.
         25    2    1    2    0    0 -0.79485492134E+02 -0.17488276958E+02 -0.12401432042E+03  0.19398119730E+03  0.12500147978E+03 0.  0.
          2    1    1    2  501    0  0.47228835290E+02  0.15189922394E+02 -0.11533298164E+04  0.11543963626E+04  0.00000000000E+00 0. -1.
          1    1    1    2  502    0  0.32256656843E+02  0.22983545636E+01  0.63675944034E+03  0.63758008063E+03  0.00000000000E+00 0. -1.
         22    1    3    3    0    0  0.17163176723E+01  0.38851918636E+02 -0.73108334977E+02  0.82808489729E+02  0.00000000000E+00 0. -1.
         22    1    3    3    0    0 -0.81201809806E+02 -0.56340195594E+02 -0.50905985443E+02  0.11117270757E+03  0.00000000000E+00 0. -1.
</event>
<event>
 7    1  0.6294601E-006  0.5174715E+02  0.7818608E-02  0.1545763E+00
          2   -1    0    0  502    0  0.00000000000E+00  0.00000000000E+00  0.37054665414E+03  0.37054665414E+03  0.00000000000E+00 0. -1.
          1   -1    0    0  501    0 -0.00000000000E+00 -0.00000000000E+00 -0.33931595639E+02  0.33931595639E+02  0.00000000000E+00 0. -1.
         25    2    1    2    0    0 -0.33551387718E+02 -0.15491182984E+02  0.21016151102E+03  0.24732698038E+03  0.12504839920E+03 0.  0.
          2    1    1    2  501    0  0.40400007269E+02  0.38607884889E+02  0.43649025415E+02  0.70908157378E+02  0.00000000000E+00 0. -1.
          1    1    1    2  502    0 -0.68486195508E+01 -0.23116701905E+02  0.82804522066E+02  0.86243112023E+02  0.00000000000E+00 0. -1.
         22    1    3    3    0    0  0.37589511581E+02 -0.52826611491E+01  0.17696963042E+02  0.41881504159E+02  0.00000000000E+00 0.  1.
         22    1    3    3    0    0 -0.71140899299E+02 -0.10208521835E+02  0.19246454798E+03  0.20544547622E+03  0.00000000000E+00 0.  1.
</event>
<event>
 7    1  0.6294601E-006  0.7834514E+02  0.7818608E-02  0.1404820E+00
          2   -1    0    0  502    0  0.00000000000E+00  0.00000000000E+00  0.31005983657E+03  0.31005983657E+03  0.00000000000E+00 0. -1.
          1   -1    0    0  501    0 -0.00000000000E+00 -0.00000000000E+00 -0.17181750398E+04  0.17181750398E+04  0.00000000000E+00 0. -1.
         25    2    1    2    0    0  0.13461018687E+02  0.11550266357E+03 -0.34344049170E+03  0.38353062035E+03  0.12498920390E+03 0.  0.
          2    1    1    2  501    0  0.51912434342E+01 -0.76224956241E+02 -0.13519750946E+04  0.13541321388E+04  0.00000000000E+00 0. -1.
          1    1    1    2  502    0 -0.18652262121E+02 -0.39277707333E+02  0.28730038308E+03  0.29057211720E+03  0.00000000000E+00 0. -1.
         22    1    3    3    0    0 -0.44429848949E+02  0.71232142394E+02 -0.25755157292E+03  0.27088898520E+03  0.00000000000E+00 0. -1.
         22    1    3    3    0    0  0.57890867636E+02  0.44270521180E+02 -0.85888918782E+02  0.11264163516E+03  0.00000000000E+00 0. -1.
</event>
<event>
 7    1  0.6294601E-006  0.2244575E+03  0.7818608E-02  0.1142709E+00
          2   -1    0    0  502    0  0.00000000000E+00  0.00000000000E+00  0.14973515310E+04  0.14973515310E+04  0.00000000000E+00 0. -1.
          1   -1    0    0  501    0 -0.00000000000E+00 -0.00000000000E+00 -0.24517463138E+03  0.24517463138E+03  0.00000000000E+00 0. -1.
         25    2    1    2    0    0 -0.17359192610E+03  0.14322269898E+03  0.57672906746E+03  0.63157904928E+03  0.12501511878E+03 0.  0.
          2    1    1    2  501    0  0.22848325603E+03  0.42636014269E+02 -0.14097494430E+03  0.27183885470E+03  0.00000000000E+00 0. -1.
          1    1    1    2  502    0 -0.54891329935E+02 -0.18585871325E+03  0.81642277644E+03  0.83910825838E+03  0.00000000000E+00 0. -1.
         22    1    3    3    0    0 -0.10460278370E+03  0.10962885306E+02  0.19158717785E+03  0.21855794181E+03  0.00000000000E+00 0.  1.
         22    1    3    3    0    0 -0.68989142402E+02  0.13225981368E+03  0.38514188961E+03  0.41302110747E+03  0.00000000000E+00 0.  1.
</event>
<event>
 7    1  0.6294601E-006  0.4031538E+02  0.7818608E-02  0.1524056E+00
          2   -1    0    0  502    0  0.00000000000E+00  0.00000000000E+00  0.21058667280E+03  0.21058667280E+03  0.00000000000E+00 0. -1.
          1   -1    0    0  501    0 -0.00000000000E+00 -0.00000000000E+00 -0.16698683925E+04  0.16698683925E+04  0.00000000000E+00 0. -1.
         25    2    1    2    0    0  0.88845720119E+01  0.69677850252E+02 -0.85566810099E+03  0.86759848507E+03  0.12500117522E+03 0.  0.
          2    1    1    2  501    0  0.68239057612E+01 -0.37644643878E+02 -0.80622286107E+03  0.80713009274E+03  0.00000000000E+00 0. -1.
          1    1    1    2  502    0 -0.15708477773E+02 -0.32033206374E+02  0.20260924233E+03  0.20572648751E+03  0.00000000000E+00 0. -1.
         22    1    3    3    0    0  0.39632801195E+02  0.40937243801E+02 -0.14662148996E+03  0.15730377675E+03  0.00000000000E+00 0.  1.
         22    1    3    3    0    0 -0.30748229183E+02  0.28740606451E+02 -0.70904661103E+03  0.71029470832E+03  0.00000000000E+00 0.  1.
</event>
<event>
 7    1  0.6294601E-006  0.4777761E+02  0.7818608E-02  0.1476162E+00
          2   -1    0    0  502    0  0.00000000000E+00  0.00000000000E+00  0.20405304976E+04  0.20405304976E+04  0.00000000000E+00 0. -1.
          1   -1    0    0  501    0 -0.00000000000E+00 -0.00000000000E+00 -0.12216635063E+04  0.12216635063E+04  0.00000000000E+00 0. -1.
         25    2    1    2    0    0 -0.47135574756E+02 -0.64420180766E+02  0.96953236763E+03  0.98081089514E+03  0.12500111225E+03 0.  0.
          2    1    1    2  501    0  0.81110925359E+01  0.41045065355E+02 -0.12151784664E+04  0.12158985124E+04  0.00000000000E+00 0. -1.
          1    1    1    2  502    0  0.39024482220E+02  0.23375115411E+02  0.10645130901E+04  0.10654845964E+04  0.00000000000E+00 0. -1.
         22    1    3    3    0    0  0.26738176556E+02 -0.86247061578E+01  0.57004759034E+03  0.57073949477E+03  0.00000000000E+00 0.  1.
         22    1    3    3    0    0 -0.73873751312E+02 -0.55795474608E+02  0.39948477729E+03  0.41007140037E+03  0.00000000000E+00 0.  1.
</event>
<event>
 7    1  0.6294601E-006  0.8346748E+02  0.7818608E-02  0.1332663E+00
          2   -1    0    0  502    0  0.00000000000E+00  0.00000000000E+00  0.12107709276E+04  0.12107709276E+04  0.00000000000E+00 0. -1.
          1   -1    0    0  501    0 -0.00000000000E+00 -0.00000000000E+00 -0.11204514575E+03  0.11204514575E+03  0.00000000000E+00 0. -1.
         25    2    1    2    0    0  0.19934659227E+02  0.23712321052E+00  0.52386000559E+03  0.53893600493E+03  0.12500106034E+03 0.  0.
          2    1    1    2  501    0  0.83349352685E+02  0.44390347920E+01 -0.83135098500E+02  0.11780604494E+03  0.00000000000E+00 0. -1.
          1    1    1    2  502    0 -0.10328401191E+03 -0.46761580025E+01  0.65800087477E+03  0.66607402349E+03  0.00000000000E+00 0. -1.
         22    1    3    3    0    0  0.88487457450E+01  0.59067398209E+02  0.34995699839E+03  0.35501712431E+03  0.00000000000E+00 0.  1.
         22    1    3    3    0    0  0.11085913482E+02 -0.58830274999E+02  0.17390300720E+03  0.18391888061E+03  0.00000000000E+00 0.  1.
</event>
<event>
 7    1  0.6294601E-006  0.5992129E+02  0.7818608E-02  0.1520899E+00
          2   -1    0    0  502    0  0.00000000000E+00  0.00000000000E+00  0.10698007594E+04  0.10698007594E+04  0.00000000000E+00 0. -1.
          1   -1    0    0  501    0 -0.00000000000E+00 -0.00000000000E+00 -0.17369623794E+02  0.17369623794E+02  0.00000000000E+00 0. -1.
         25    2    1    2    0    0 -0.31829664604E+02 -0.22118424098E+02  0.62223943443E+03  0.63585404202E+03  0.12500438697E+03 0.  0.
          2    1    1    2  501    0  0.51059202805E+02  0.37323203468E+02  0.88663739998E+02  0.10890969883E+03  0.00000000000E+00 0. -1.
          1    1    1    2  502    0 -0.19229538201E+02 -0.15204779370E+02  0.34152796115E+03  0.34240664232E+03  0.00000000000E+00 0. -1.
         22    1    3    3    0    0 -0.64366149362E+01  0.15805732998E+02  0.55089972138E+03  0.55116399939E+03  0.00000000000E+00 0. -1.
         22    1    3    3    0    0 -0.25393049668E+02 -0.37924157096E+02  0.71339713050E+02  0.84690042631E+02  0.00000000000E+00 0. -1.
</event>
<event>
 7    1  0.6294601E-006  0.9876754E+02  0.7818608E-02  0.1359425E+00
          2   -1    0    0  502    0  0.00000000000E+00  0.00000000000E+00  0.13742320537E+04  0.13742320537E+04  0.00000000000E+00 0. -1.
          1   -1    0    0  501    0 -0.00000000000E+00 -0.00000000000E+00 -0.36507481799E+02  0.36507481799E+02  0.00000000000E+00 0. -1.
         25    2    1    2    0    0 -0.47781959534E+02  0.12807139520E+03  0.39260636907E+03  0.43410846920E+03  0.12500001629E+03 0.  0.
          2    1    1    2  501    0  0.35094535352E+02 -0.79820859450E+02  0.11161723462E+03  0.14163828253E+03  0.00000000000E+00 0. -1.
          1    1    1    2  502    0  0.12687424182E+02 -0.48250535747E+02  0.83350096824E+03  0.83499278380E+03  0.00000000000E+00 0. -1.
         22    1    3    3    0    0 -0.47770635660E+02  0.14423005314E+03  0.38890660109E+03  0.41753165895E+03  0.00000000000E+00 0. -1.
         22    1    3    3    0    0 -0.11323874218E-01 -0.16158657941E+02  0.36997679783E+01  0.16576810242E+02  0.00000000000E+00 0. -1.
</event>
<event>
 7    1  0.6294601E-006  0.5889620E+02  0.7818608E-02  0.1452584E+00
          2   -1    0    0  502    0  0.00000000000E+00  0.00000000000E+00  0.63404965137E+03  0.63404965137E+03  0.00000000000E+00 0. -1.
          1   -1    0    0  501    0 -0.00000000000E+00 -0.00000000000E+00 -0.10127736324E+03  0.10127736324E+03  0.00000000000E+00 0. -1.
         25    2    1    2    0    0 -0.89165112418E+01  0.54466740114E+02  0.24459396585E+03  0.28018079748E+03  0.12501576379E+03 0.  0.
          2    1    1    2  501    0  0.45722239018E+02 -0.38202972195E+02 -0.71586752043E+02  0.93137818814E+02  0.00000000000E+00 0. -1.
          1    1    1    2  502    0 -0.36805727777E+02 -0.16263767919E+02  0.35976507432E+03  0.36200839831E+03  0.00000000000E+00 0. -1.
         22    1    3    3    0    0  0.10384534291E+02 -0.30154515237E+02  0.16035064718E+02  0.35696731533E+02  0.00000000000E+00 0.  1.
         22    1    3    3    0    0 -0.19301045532E+02  0.84621255351E+02  0.22855890113E+03  0.24448406595E+03  0.00000000000E+00 0.  1.
</event>
<event>
 7    1  0.6294601E-006  0.1113457E+03  0.7818608E-02  0.1366871E+00
          2   -1    0    0  502    0  0.00000000000E+00  0.00000000000E+00  0.25434302530E+04  0.25434302530E+04  0.00000000000E+00 0. -1.
          1   -1    0    0  501    0 -0.00000000000E+00 -0.00000000000E+00 -0.95752970803E+02  0.95752970803E+02  0.00000000000E+00 0. -1.
         25    2    1    2    0    0 -0.32592975349E+02 -0.84183456166E+02  0.50601076906E+03  0.52898089834E+03  0.12499894429E+03 0.  0.
          2    1    1    2  501    0  0.28049660525E+02 -0.30697941457E+02 -0.77401102302E+02  0.87863972724E+02  0.00000000000E+00 0. -1.
          1    1    1    2  502    0  0.45433148236E+01  0.11488139762E+03  0.20190676155E+04  0.20223383528E+04  0.00000000000E+00 0. -1.
         22    1    3    3    0    0 -0.79438474989E+02 -0.55527838483E+02  0.27660940573E+03  0.29309823523E+03  0.00000000000E+00 0.  1.
         22    1    3    3    0    0  0.46845499641E+02 -0.28655617683E+02  0.22940136332E+03  0.23588266311E+03  0.00000000000E+00 0.  1.
</event>
<event>
 7    1  0.6294601E-006  0.3578594E+02  0.7818608E-02  0.1597258E+00
          2   -1    0    0  502    0  0.00000000000E+00  0.00000000000E+00  0.32249519013E+03  0.32249519013E+03  0.00000000000E+00 0. -1.
          1   -1    0    0  501    0 -0.00000000000E+00 -0.00000000000E+00 -0.14484702484E+04  0.14484702484E+04  0.00000000000E+00 0. -1.
         25    2    1    2    0    0 -0.74074735265E+01 -0.26695695900E+02 -0.99312499559E+03  0.10013439092E+04  0.12499934734E+03 0.  0.
          2    1    1    2  501    0 -0.23657765030E+02  0.88982921634E+01 -0.44987344480E+03  0.45058293996E+03  0.00000000000E+00 0. -1.
          1    1    1    2  502    0  0.31065238557E+02  0.17797403736E+02  0.31702338216E+03  0.31903858930E+03  0.00000000000E+00 0. -1.
         22    1    3    3    0    0  0.41144824255E+02  0.79600583594E+01 -0.74389995575E+03  0.74507946103E+03  0.00000000000E+00 0. -1.
         22    1    3    3    0    0 -0.48552297782E+02 -0.34655754259E+02 -0.24922503985E+03  0.25626444820E+03  0.00000000000E+00 0. -1.
</event>
<event>
 7    1  0.6294601E-006  0.1638695E+03  0.7818608E-02  0.1252084E+00
          2   -1    0    0  502    0  0.00000000000E+00  0.00000000000E+00  0.86536091736E+03  0.86536091736E+03  0.00000000000E+00 0. -1.
          1   -1    0    0  501    0 -0.00000000000E+00 -0.00000000000E+00 -0.24198457203E+04  0.24198457203E+04  0.00000000000E+00 0. -1.
         25    2    1    2    0    0 -0.10191820742E+03 -0.25840447143E+01  0.10722877723E+03  0.19369393375E+03  0.12500132405E+03 0.  0.
          2    1    1    2  501    0  0.15156532246E+03  0.65698510131E+02 -0.23714758409E+04  0.23772223298E+04  0.00000000000E+00 0. -1.
          1    1    1    2  502    0 -0.49647115041E+02 -0.63114465417E+02  0.70976226074E+03  0.71429037411E+03  0.00000000000E+00 0. -1.
         22    1    3    3    0    0 -0.81154837908E+02  0.38861857357E+02  0.16039036328E+02  0.91398043521E+02  0.00000000000E+00 0. -1.
         22    1    3    3    0    0 -0.20763369515E+02 -0.41445902072E+02  0.91189740904E+02  0.10229589023E+03  0.00000000000E+00 0. -1.
</event>
<event>
 7    1  0.6294601E-006  0.4141199E+02  0.7818608E-02  0.1510018E+00
          2   -1    0    0  502    0  0.00000000000E+00  0.00000000000E+00  0.10833629344E+02  0.10833629344E+02  0.00000000000E+00 0. -1.
          1   -1    0    0  501    0 -0.00000000000E+00 -0.00000000000E+00 -0.12262991588E+04  0.12262991588E+04  0.00000000000E+00 0. -1.
         25    2    1    2    0    0 -0.36800869072E+02 -0.31941091445E+02 -0.68000472421E+03  0.69311367657E+03  0.12500242563E+03 0.  0.
          2    1    1    2  501    0 -0.55155572571E+01  0.37764661790E+02 -0.40386518872E+03  0.40566449402E+03  0.00000000000E+00 0. -1.
          1    1    1    2  502    0  0.42316426329E+02 -0.58235703445E+01 -0.13159561657E+03  0.13835461760E+03  0.00000000000E+00 0. -1.
         22    1    3    3    0    0 -0.75048003937E+02 -0.32970521441E+02 -0.29387767589E+03  0.30509563512E+03  0.00000000000E+00 0. -1.
         22    1    3    3    0    0  0.38247134866E+02  0.10294299963E+01 -0.38612704831E+03  0.38801804145E+03  0.00000000000E+00 0. -1.
</event>
<event>
 7    1  0.6294601E-006  0.7533900E+02  0.7818608E-02  0.1416841E+00
          2   -1    0    0  502    0  0.00000000000E+00  0.00000000000E+00  0.80848718002E+03  0.80848718002E+03  0.00000000000E+00 0. -1.
          1   -1    0    0  501    0 -0.00000000000E+00 -0.00000000000E+00 -0.49372902141E+02  0.49372902141E+02  0.00000000000E+00 0. -1.
         25    2    1    2    0    0 -0.17033352110E+02 -0.48072730194E+02  0.34551881176E+03  0.37095778946E+03  0.12500123923E+03 0.  0.
          2    1    1    2  501    0 -0.11034147067E+02  0.78195987526E+02  0.81706723469E+01  0.79392220987E+02  0.00000000000E+00 0. -1.
          1    1    1    2  502    0  0.28067499178E+02 -0.30123257332E+02  0.40542479377E+03  0.40751007172E+03  0.00000000000E+00 0. -1.
         22    1    3    3    0    0  0.35494912089E+02 -0.67268479291E+02  0.15936600062E+03  0.17658555785E+03  0.00000000000E+00 0. -1.
         22    1    3    3    0    0 -0.52528264199E+02  0.19195749098E+02  0.18615281114E+03  0.19437223161E+03  0.00000000000E+00 0. -1.
</event>
<event>
 7    1  0.6294601E-006  0.5486720E+02  0.7818608E-02  0.1473446E+00
          2   -1    0    0  502    0  0.00000000000E+00  0.00000000000E+00  0.26487986140E+02  0.26487986140E+02  0.00000000000E+00 0. -1.
          1   -1    0    0  501    0 -0.00000000000E+00 -0.00000000000E+00 -0.15109071035E+04  0.15109071035E+04  0.00000000000E+00 0. -1.
         25    2    1    2    0    0 -0.29223496201E+02  0.53416554529E+01 -0.39263462528E+03  0.41312162544E+03  0.12499992971E+03 0.  0.
          2    1    1    2  501    0 -0.14252137271E+02  0.34300313574E+02 -0.10533323214E+04  0.10539870086E+04  0.00000000000E+00 0. -1.
          1    1    1    2  502    0  0.43475633472E+02 -0.39641969027E+02 -0.38452170671E+02  0.70286455618E+02  0.00000000000E+00 0. -1.
         22    1    3    3    0    0  0.38769971310E+02  0.20583748224E+02 -0.25609243823E+03  0.25982713154E+03  0.00000000000E+00 0. -1.
         22    1    3    3    0    0 -0.67993467511E+02 -0.15242092771E+02 -0.13654218705E+03  0.15329449391E+03  0.00000000000E+00 0. -1.
</event>
<event>
 7    1  0.6294601E-006  0.8845253E+02  0.7818608E-02  0.1456181E+00
          2   -1    0    0  502    0  0.00000000000E+00  0.00000000000E+00  0.28797756636E+03  0.28797756636E+03  0.00000000000E+00 0. -1.
          1   -1    0    0  501    0 -0.00000000000E+00 -0.00000000000E+00 -0.19606149982E+04  0.19606149982E+04  0.00000000000E+00 0. -1.
         25    2    1    2    0    0 -0.28260479770E+02  0.98939465271E+02 -0.71620716293E+02  0.17703547293E+03  0.12499743664E+03 0.  0.
          2    1    1    2  501    0 -0.13902193721E+02 -0.22085336568E+02 -0.18280251929E+04  0.18282114590E+04  0.00000000000E+00 0. -1.
          1    1    1    2  502    0  0.42162673491E+02 -0.76854128702E+02  0.22700847733E+03  0.24334563262E+03  0.00000000000E+00 0. -1.
         22    1    3    3    0    0 -0.51688318159E+01  0.12393642784E+03 -0.39347527553E+02  0.13013524847E+03  0.00000000000E+00 0. -1.
         22    1    3    3    0    0 -0.23091647954E+02 -0.24996962573E+02 -0.32273188740E+02  0.46900224462E+02  0.00000000000E+00 0. -1.
</event>
<event>
 7    1  0.6294601E-006  0.3353329E+02  0.7818608E-02  0.1584719E+00
          2   -1    0    0  502    0  0.00000000000E+00  0.00000000000E+00  0.13516234174E+04  0.13516234174E+04  0.00000000000E+00 0. -1.
          1   -1    0    0  501    0 -0.00000000000E+00 -0.00000000000E+00 -0.73137577241E+02  0.73137577241E+02  0.00000000000E+00 0. -1.
         25    2    1    2    0    0  0.64690103022E+01  0.51140795978E+02  0.52974984327E+02  0.14521984623E+03  0.12500090266E+03 0.  0.
          2    1    1    2  501    0  0.13131133415E+02 -0.29613848619E+02 -0.17071680766E+02  0.36617604768E+02  0.00000000000E+00 0. -1.
          1    1    1    2  502    0 -0.19600143718E+02 -0.21526947359E+02  0.12425825366E+04  0.12429235436E+04  0.00000000000E+00 0. -1.
         22    1    3    3    0    0 -0.15162806954E+02  0.80367307560E+02  0.10033354836E+01  0.81791329133E+02  0.00000000000E+00 0.  1.
         22    1    3    3    0    0  0.21631817256E+02 -0.29226511582E+02  0.51971648843E+02  0.63428517093E+02  0.00000000000E+00 0.  1.
</event>
<event>
 7    1  0.6294601E-006  0.9537007E+02  0.7818608E-02  0.1402968E+00
          2   -1    0    0  502    0  0.00000000000E+00  0.00000000000E+00  0.22188315077E+03  0.22188315077E+03  0.00000000000E+00 0. -1.
          1   -1    0    0  501    0 -0.00000000000E+00 -0.00000000000E+00 -0.25396351583E+03  0.25396351583E+03  0.00000000000E+00 0. -1.
         25    2    1    2    0    0 -0.18718719081E+02  0.12420180620E+03  0.25731608796E+02  0.17906156701E+03  0.12499779990E+03 0.  0.
          2    1    1    2  501    0  0.23573892429E+01 -0.91860700908E+02 -0.16212449137E+03  0.18635529603E+03  0.00000000000E+00 0. -1.
          1    1    1    2  502    0  0.16361329838E+02 -0.32341105296E+02  0.10431251751E+03  0.11042980357E+03  0.00000000000E+00 0. -1.
         22    1    3    3    0    0  0.87300790073E+01  0.49231261800E+02 -0.48781811583E+02  0.69854109108E+02  0.00000000000E+00 0.  1.
         22    1    3    3    0    0 -0.27448798089E+02  0.74970544405E+02  0.74513420379E+02  0.10920745790E+03  0.00000000000E+00 0.  1.
</event>
<event>
 7    1  0.6294601E-006  0.1387865E+03  0.7818608E-02  0.1355422E+00
          2   -1    0    0  502    0  0.00000000000E+00  0.00000000000E+00  0.97089833609E+03  0.97089833609E+03  0.00000000000E+00 0. -1.
          1   -1    0    0  501    0 -0.00000000000E+00 -0.00000000000E+00 -0.57882411406E+03  0.57882411406E+03  0.00000000000E+00 0. -1.
         25    2    1    2    0    0  0.75863250207E+02 -0.13305888972E+03 -0.45059330869E+02  0.20276666580E+03  0.12499630633E+03 0.  0.
          2    1    1    2  501    0 -0.39165870138E+02  0.13165148772E+03 -0.44415196685E+03  0.46490541969E+03  0.00000000000E+00 0. -1.
          1    1    1    2  502    0 -0.36697380069E+02  0.14074020058E+01  0.88128551974E+03  0.88205036466E+03  0.00000000000E+00 0. -1.
         22    1    3    3    0    0  0.10705281481E+03 -0.11674463676E+03 -0.52344643291E+02  0.16682199211E+03  0.00000000000E+00 0.  1.
         22    1    3    3    0    0 -0.31189564600E+02 -0.16314252961E+02  0.72853124219E+01  0.35944673690E+02  0.00000000000E+00 0.  1.
</event>
<event>
 7    1  0.6294601E-006  0.2317544E+02  0.7818608E-02  0.1711031E+00
          2   -1    0    0  502    0  0.00000000000E+00  0.00000000000E+00  0.15377790319E+04  0.15377790319E+04  0.00000000000E+00 0. -1.
          1   -1    0    0  501    0 -0.00000000000E+00 -0.00000000000E+00 -0.21789409023E+03  0.21789409023E+03  0.00000000000E+00 0. -1.
         25    2    1    2    0    0  0.18615135129E+01 -0.34084192327E+02  0.51235882027E+03  0.52848996734E+03  0.12499954989E+03 0.  0.
          2    1    1    2  501    0  0.12603253344E+02  0.19442404763E+02 -0.20908440881E+03  0.21036430093E+03  0.00000000000E+00 0. -1.
          1    1    1    2  502    0 -0.14464766857E+02  0.14641787564E+02  0.10166105302E+04  0.10168188538E+04  0.00000000000E+00 0. -1.
         22    1    3    3    0    0 -0.55726836890E+02 -0.43885600334E+02  0.26530149284E+03  0.27462029854E+03  0.00000000000E+00 0. -1.
         22    1    3    3    0    0  0.57588350403E+02  0.98014080064E+01  0.24705732742E+03  0.25386966880E+03  0.00000000000E+00 0. -1.
</event>
<event>
 7    1  0.6294601E-006  0.6703854E+02  0.7818608E-02  0.1401842E+00
          2   -1    0    0  502    0  0.00000000000E+00  0.00000000000E+00  0.12806612701E+04  0.12806612701E+04  0.00000000000E+00 0. -1.
          1   -1    0    0  501    0 -0.00000000000E+00 -0.00000000000E+00 -0.18151812633E+04  0.18151812633E+04  0.00000000000E+00 0. -1.
         25    2    1    2    0    0 -0.40405409677E+02 -0.49586865945E+02 -0.93210066554E+02  0.16855534659E+03  0.12502533323E+03 0.  0.
          2    1    1    2  501    0 -0.86546000840E+01  0.66889089861E+02 -0.16830785244E+04  0.16844293906E+04  0.00000000000E+00 0. -1.
          1    1    1    2  502    0  0.49060009761E+02 -0.17302223916E+02  0.12417685977E+04  0.12428577963E+04  0.00000000000E+00 0. -1.
         22    1    3    3    0    0 -0.82040608608E+02 -0.43622717599E+02 -0.84518591549E+02  0.12560650966E+03  0.00000000000E+00 0. -1.
         22    1    3    3    0    0  0.41635198931E+02 -0.59641483460E+01 -0.86914750050E+01  0.42948836926E+02  0.00000000000E+00 0. -1.
</event>
<event>
 7    1  0.6294601E-006  0.1150821E+03  0.7818608E-02  0.1357497E+00
          2   -1    0    0  502    0  0.00000000000E+00  0.00000000000E+00  0.40702675605E+03  0.40702675605E+03  0.00000000000E+00 0. -1.
          1   -1    0    0  501    0 -0.00000000000E+00 -0.00000000000E+00 -0.52073878161E+03  0.52073878161E+03  0.00000000000E+00 0. -1.
         25    2    1    2    0    0 -0.10338480336E+03 -0.22563184907E+02 -0.29497662457E+03  0.33739260326E+03  0.12500017924E+03 0.  0.
          2    1    1    2  501    0  0.80773945445E+01 -0.42762831358E+02 -0.19343097920E+03  0.19826610342E+03  0.00000000000E+00 0. -1.
          1    1    1    2  502    0  0.95307408818E+02  0.65326016265E+02  0.37469557821E+03  0.39210683098E+03  0.00000000000E+00 0. -1.
         22    1    3    3    0    0 -0.67366800028E+01  0.27776159738E+02 -0.69119515468E+01  0.29405322332E+02  0.00000000000E+00 0. -1.
         22    1    3    3    0    0 -0.96648123360E+02 -0.50339344645E+02 -0.28806467302E+03  0.30798728092E+03  0.00000000000E+00 0. -1.
</event>
<event>
 7    1  0.6294601E-006  0.1303440E+03  0.7818608E-02  0.1263040E+00
          2   -1    0    0  502    0  0.00000000000E+00  0.00000000000E+00  0.15322442823E+04  0.15322442823E+04  0.00000000000E+00 0. -1.
          1   -1    0    0  501    0 -0.00000000000E+00 -0.00000000000E+00 -0.14673673176E+03  0.14673673176E+03  0.00000000000E+00 0. -1.
         25    2    1    2    0    0  0.17605616028E+03  0.11683176863E+02  0.15490513020E+03  0.26599485008E+03  0.12500157085E+03 0.  0.
          2    1    1    2  501    0 -0.68465429098E+02  0.59353608896E+02 -0.64664421801E+02  0.11131870156E+03  0.00000000000E+00 0. -1.
          1    1    1    2  502    0 -0.10759073118E+03 -0.71036785759E+02  0.12952668421E+04  0.13016674624E+04  0.00000000000E+00 0. -1.
         22    1    3    3    0    0  0.52496723234E+02  0.33663078092E+02  0.12079433969E+03  0.13594256610E+03  0.00000000000E+00 0.  1.
         22    1    3    3    0    0  0.12355943704E+03 -0.21979901229E+02  0.34110790516E+02  0.13005228399E+03  0.00000000000E+00 0.  1.
</event>
<event>
 7    1  0.6294601E-006  0.6803310E+02  0.7818608E-02  0.1473712E+00
          2   -1    0    0  502    0  0.00000000000E+00  0.00000000000E+00  0.11308238260E+04  0.11308238260E+04  0.00000000000E+00 0. -1.
          1   -1    0    0  501    0 -0.00000000000E+00 -0.00000000000E+00 -0.12835430799E+03  0.12835430799E+03  0.00000000000E+00 0. -1.
         25    2    1    2    0    0  0.15401588557E+02 -0.59760038049E+02  0.37738903573E+02  0.14442184902E+03  0.12499989821E+03 0.  0.
          2    1    1    2  501    0 -0.44732738475E+02  0.53961880235E+02 -0.58373096904E+02  0.91215792778E+02  0.00000000000E+00 0. -1.
          1    1    1    2  502    0  0.29331149918E+02  0.57981578140E+01  0.10231037113E+04  0.10235404922E+04  0.00000000000E+00 0. -1.
         22    1    3    3    0    0  0.34153958324E+02  0.30521505286E+02  0.30562048925E+01  0.45906378015E+02  0.00000000000E+00 0.  1.
         22    1    3    3    0    0 -0.18752369767E+02 -0.90281543335E+02  0.34682698680E+02  0.98515471001E+02  0.00000000000E+00 0.  1.
</event>
<event>
 7    1  0.6294601E-006  0.4611083E+02  0.7818608E-02  0.1581082E+00
          2   -1    0    0  502    0  0.00000000000E+00  0.00000000000E+00  0.78375239122E+02  0.78375239122E+02  0.00000000000E+00 0. -1.
          1   -1    0    0  501    0 -0.00000000000E+00 -0.00000000000E+00 -0.52571202728E+03  0.52571202728E+03  0.00000000000E+00 0. -1.
         25    2    1    2    0    0 -0.35981054154E+02  0.36568846408E+02 -0.26263131102E+02  0.13762371682E+03  0.12497447175E+03 0.  0.
          2    1    1    2  501    0  0.15447479758E+02 -0.43434573446E+02 -0.43710133640E+03  0.43952561368E+03  0.00000000000E+00 0. -1.
          1    1    1    2  502    0  0.20533574397E+02  0.68657270376E+01  0.16027679345E+02  0.26937935898E+02  0.00000000000E+00 0. -1.
         22    1    3    3    0    0 -0.49893547855E+02  0.31435116055E+02 -0.69948775535E+02  0.91489692522E+02  0.00000000000E+00 0.  1.
         22    1    3    3    0    0  0.13912493701E+02  0.51337303538E+01  0.43685644433E+02  0.46134024297E+02  0.00000000000E+00 0.  1.
</event>
<event>
 7    1  0.6294601E-006  0.1241597E+03  0.7818608E-02  0.1435132E+00
          2   -1    0    0  502    0  0.00000000000E+00  0.00000000000E+00  0.86985515896E+03  0.86985515896E+03  0.00000000000E+00 0. -1.
          1   -1    0    0  501    0 -0.00000000000E+00 -0.00000000000E+00 -0.18773273140E+03  0.18773273140E+03  0.00000000000E+00 0. -1.
         25    2    1    2    0    0 -0.12060363819E+03 -0.14009589474E+02  0.59624686523E+02  0.18417648634E+03  0.12499747492E+03 0.  0.
          2    1    1    2  501    0  0.12003469289E+03  0.35733329816E+02 -0.93994829798E+02  0.15658935592E+03  0.00000000000E+00 0. -1.
          1    1    1    2  502    0  0.56894529458E+00 -0.21723740341E+02  0.71649257083E+03  0.71682204810E+03  0.00000000000E+00 0. -1.
         22    1    3    3    0    0 -0.78954592676E+02 -0.51151852851E+02 -0.10384097096E+02  0.94647605502E+02  0.00000000000E+00 0. -1.
         22    1    3    3    0    0 -0.41649045510E+02  0.37142263377E+02  0.70008783619E+02  0.89528880840E+02  0.00000000000E+00 0. -1.
</event>
<event>
 7    1  0.6294601E-006  0.1094499E+03  0.7818608E-02  0.1401886E+00
          2   -1    0    0  502    0  0.00000000000E+00  0.00000000000E+00  0.26123663543E+03  0.26123663543E+03  0.00000000000E+00 0. -1.
          1   -1    0    0  501    0 -0.00000000000E+00 -0.00000000000E+00 -0.19435867590E+04  0.19435867590E+04  0.00000000000E+00 0. -1.
         25    2    1    2    0    0 -0.89895904814E+02  0.35341187363E+01 -0.18607848400E+03  0.24154871311E+03  0.12500725938E+03 0.  0.
          2    1    1    2  501    0 -0.16554717948E+02  0.27212571145E+02 -0.17164725239E+04  0.17167680414E+04  0.00000000000E+00 0. -1.
          1    1    1    2  502    0  0.10645062276E+03 -0.30746689882E+02  0.22020088437E+03  0.24650663987E+03  0.00000000000E+00 0. -1.
         22    1    3    3    0    0 -0.18790210813E+02  0.55305343153E+02 -0.11296601210E+03  0.12717339696E+03  0.00000000000E+00 0. -1.
         22    1    3    3    0    0 -0.71105694001E+02 -0.51771224417E+02 -0.73112471905E+02  0.11437531615E+03  0.00000000000E+00 0. -1.
</event>
<event>
 7    1  0.6294601E-006  0.1594779E+03  0.7818608E-02  0.1236166E+00
          2   -1    0    0  502    0  0.00000000000E+00  0.00000000000E+00  0.58566694874E+03  0.58566694874E+03  0.00000000000E+00 0. -1.
          1   -1    0    0  501    0 -0.00000000000E+00 -0.00000000000E+00 -0.82237865451E+03  0.82237865451E+03  0.00000000000E+00 0. -1.
         25    2    1    2    0    0  0.11375839643E+03  0.14111162171E+02 -0.43048028255E+03  0.46268586772E+03  0.12499936345E+03 0.  0.
          2    1    1    2  501    0  0.31993053354E+01  0.96830579932E+02 -0.35781635586E+03  0.37070060869E+03  0.00000000000E+00 0. -1.
          1    1    1    2  502    0 -0.11695770177E+03 -0.11094174210E+03  0.55158493264E+03  0.57465912684E+03  0.00000000000E+00 0. -1.
         22    1    3    3    0    0 -0.25029301977E+02  0.15676842355E+02 -0.99247618271E+02  0.10354863145E+03  0.00000000000E+00 0. -1.
         22    1    3    3    0    0  0.13878769841E+03 -0.15656801847E+01 -0.33123266428E+03  0.35913723626E+03  0.00000000000E+00 0. -1.
</event>
<event>
 7    1  0.6294601E-006  0.6696156E+02  0.7818608E-02  0.1418201E+00
          2   -1    0    0  502    0  0.00000000000E+00  0.00000000000E+00  0.11024112445E+04  0.11024112445E+04  0.00000000000E+00 0. -1.
          1   -1    0    0  501    0 -0.00000000000E+00 -0.00000000000E+00 -0.20441951524E+03  0.20441951524E+03  0.00000000000E+00 0. -1.
         25    2    1    2    0    0  0.70273451756E+02  0.11117868336E+02  0.14620901432E+03  0.20509744638E+03  0.12500368645E+03 0.  0.
          2    1    1    2  501    0 -0.11621389997E+02 -0.44342646459E+02 -0.17072195200E+03  0.17676909202E+03  0.00000000000E+00 0. -1.
          1    1    1    2  502    0 -0.58652061759E+02  0.33224778123E+02  0.92250466694E+03  0.92496422134E+03  0.00000000000E+00 0. -1.
         22    1    3    3    0    0  0.10382984302E+02 -0.53145351297E+02  0.72086566447E+02  0.90159346657E+02  0.00000000000E+00 0.  1.
         22    1    3    3    0    0  0.59890467454E+02  0.64263219633E+02  0.74122447870E+02  0.11493809972E+03  0.00000000000E+00 0.  1.
</event>
<event>
 7    1  0.6294601E-006  0.1029951E+03  0.7818608E-02  0.1356707E+00
          2   -1    0    0  502    0  0.00000000000E+00  0.00000000000E+00  0.22935927669E+04  0.22935927669E+04  0.00000000000E+00 0. -1.
          1   -1    0    0  501    0 -0.00000000000E+00 -0.00000000000E+00 -0.78817552453E+03  0.78817552453E+03  0.00000000000E+00 0. -1.
         25    2    1    2    0    0 -0.14993570135E+03 -0.17918535926E+02  0.24351489575E+03  0.31261240104E+03  0.12500088145E+03 0.  0.
          2    1    1    2  501    0  0.10099523739E+03  0.16881533673E+02 -0.74984947186E+03  0.75680859840E+03  0.00000000000E+00 0. -1.
          1    1    1    2  502    0  0.48940463961E+02  0.10370022537E+01  0.20117518184E+04  0.20123472919E+04  0.00000000000E+00 0. -1.
         22    1    3    3    0    0 -0.13389956163E+03 -0.59935560860E+02  0.21154165907E+03  0.25743200574E+03  0.00000000000E+00 0. -1.
         22    1    3    3    0    0 -0.16036139723E+02  0.42017024934E+02  0.31973236685E+02  0.55180395301E+02  0.00000000000E+00 0. -1.
</event>
<event>
 7    1  0.6294601E-006  0.1270839E+03  0.7818608E-02  0.1378274E+00
          2   -1    0    0  502    0  0.00000000000E+00  0.00000000000E+00  0.16310816777E+04  0.16310816777E+04  0.00000000000E+00 0. -1.
          1   -1    0    0  501    0 -0.00000000000E+00 -0.00000000000E+00 -0.54338211809E+03  0.54338211809E+03  0.00000000000E+00 0. -1.
         25    2    1    2    0    0 -0.13739335070E+03 -0.73193296784E+02  0.16076134976E+03  0.25632017700E+03  0.12498651947E+03 0.  0.
          2    1    1    2  501    0  0.21417211190E+02  0.25320337651E+02 -0.49227713749E+03  0.49339294333E+03  0.00000000000E+00 0. -1.
          1    1    1    2  502    0  0.11597613951E+03  0.47872959133E+02  0.14192153474E+04  0.14247506755E+04  0.00000000000E+00 0. -1.
         22    1    3    3    0    0 -0.24214961905E+02 -0.24089047200E+02  0.12246844589E+03  0.12714230930E+03  0.00000000000E+00 0.  1.
         22    1    3    3    0    0 -0.11317838879E+03 -0.49104249584E+02  0.38292903875E+02  0.12917786770E+03  0.00000000000E+00 0.  1.
</event>
<event>
 7    1  0.6294601E-006  0.6514548E+02  0.7818608E-02  0.1504934E+00
          2   -1    0    0  502    0  0.00000000000E+00  0.00000000000E+00  0.64117641769E+03  0.64117641769E+03  0.00000000000E+00 0. -1.
          1   -1    0    0  501    0 -0.00000000000E+00 -0.00000000000E+00 -0.16701708404E+03  0.16701708404E+03  0.00000000000E+00 0. -1.
         25    2    1    2    0    0  0.59620146209E+01 -0.47922991354E+02 -0.45671994343E+02  0.14157546008E+03  0.12500208443E+03 0.  0.
          2    1    1    2  501    0  0.29165750685E+01  0.71415894068E+02 -0.55652396658E+02  0.90586564067E+02  0.00000000000E+00 0. -1.
          1    1    1    2  502    0 -0.88785896894E+01 -0.23492902715E+02  0.57548372464E+03  0.57603147758E+03  0.00000000000E+00 0. -1.
         22    1    3    3    0    0  0.19855734260E+01 -0.57849181502E+02  0.29969701137E+02  0.65181694428E+02  0.00000000000E+00 0. -1.
         22    1    3    3    0    0  0.39764411949E+01  0.99261901481E+01 -0.75641695480E+02  0.76393765652E+02  0.00000000000E+00 0. -1.
</event>
<event>
 7    1  0.6294601E-006  0.5583219E+02  0.7818608E-02  0.1426684E+00
          2   -1    0    0  502    0  0.00000000000E+00  0.00000000000E+00  0.40819746332E+03  0.40819746332E+03  0.00000000000E+00 0. -1.
          1   -1    0    0  501    0 -0.00000000000E+00 -0.00000000000E+00 -0.18817221089E+04  0.18817221089E+04  0.00000000000E+00 0. -1.
         25    2    1    2    0    0 -0.32659010064E+02  0.57757612631E+01 -0.59960710597E+00  0.12932741898E+03  0.12500100566E+03 0.  0.
          2    1    1    2  501    0  0.32500713692E+02  0.45741623111E+02 -0.18143926658E+04  0.18152601296E+04  0.00000000000E+00 0. -1.
          1    1    1    2  502    0  0.15829637212E+00 -0.51517384375E+02  0.34146762738E+03  0.34533202357E+03  0.00000000000E+00 0. -1.
         22    1    3    3    0    0 -0.17611076390E+02 -0.42932630175E+02  0.42230623364E+02  0.62743814795E+02  0.00000000000E+00 0. -1.
         22    1    3    3    0    0 -0.15047933675E+02  0.48708391439E+02 -0.42830230470E+02  0.66583604187E+02  0.00000000000E+00 0. -1.
</event>
<event>
 7    1  0.6294601E-006  0.1375847E+03  0.7818608E-02  0.1282189E+00
          2   -1    0    0  502    0  0.00000000000E+00  0.00000000000E+00  0.77027829394E+02  0.77027829394E+02  0.00000000000E+00 0. -1.
          1   -1    0    0  501    0 -0.00000000000E+00 -0.00000000000E+00 -0.16165255911E+04  0.16165255911E+04  0.00000000000E+00 0. -1.
         25    2    1    2    0    0  0.16891112066E+03  0.66866498908E+02 -0.42508478688E+03  0.47887767495E+03  0.12499862466E+03 0.  0.
          2    1    1    2  501    0 -0.69227378250E+02  0.17428062874E+02 -0.10763202018E+04  0.10786850069E+04  0.00000000000E+00 0. -1.
          1    1    1    2  502    0 -0.99683742415E+02 -0.84294561782E+02 -0.38092773042E+02  0.13599073868E+03  0.00000000000E+00 0. -1.
         22    1    3    3    0    0  0.82713085829E+02  0.82663596076E+02 -0.32733939738E+03  0.34760006583E+03  0.00000000000E+00 0.  1.
         22    1    3    3    0    0  0.86198034836E+02 -0.15797097168E+02 -0.97745389495E+02  0.13127760912E+03  0.00000000000E+00 0.  1.
</event>
<event>
 7    1  0.6294601E-006  0.1192940E+03  0.7818608E-02  0.1404237E+00
          2   -1    0    0  502    0  0.00000000000E+00  0.00000000000E+00  0.45669255251E+03  0.45669255251E+03  0.00000000000E+00 0. -1.
          1   -1    0    0  501    0 -0.00000000000E+00 -0.00000000000E+00 -0.11788957423E+03  0.11788957423E+03  0.00000000000E+00 0. -1.
         25    2    1    2    0    0 -0.12372989387E+03 -0.18754358024E+01  0.32165975334E+03  0.36661041928E+03  0.12500239482E+03 0.  0.
          2    1    1    2  501    0  0.12068729918E+02 -0.26025167113E+02 -0.61984547114E+02  0.68301154060E+02  0.00000000000E+00 0. -1.
          1    1    1    2  502    0  0.11166116395E+03  0.27900602915E+02  0.79127772045E+02  0.13967055340E+03  0.00000000000E+00 0. -1.
         22    1    3    3    0    0 -0.34795266653E+02 -0.34777742813E+02  0.25038974538E+02  0.55201016499E+02  0.00000000000E+00 0. -1.
         22    1    3    3    0    0 -0.88934627212E+02  0.32902307011E+02  0.29662077880E+03  0.31140940278E+03  0.00000000000E+00 0. -1.
</event>
<event>
 7    1  0.6294601E-006  0.6758573E+02  0.7818608E-02  0.1469820E+00
          2   -1    0    0  502    0  0.00000000000E+00  0.00000000000E+00  0.63389937826E+03  0.63389937826E+03  0.00000000000E+00 0. -1.
          1   -1    0    0  501    0 -0.00000000000E+00 -0.00000000000E+00 -0.64273917647E+03  0.64273917647E+03  0.00000000000E+00 0. -1.
         25    2    1    2    0    0 -0.53320915899E+02  0.71974683401E+02  0.22722101496E+03  0.27436967207E+03  0.12500340871E+03 0.  0.
          2    1    1    2  501    0  0.53534906489E+02 -0.41030217950E+02 -0.61669813396E+03  0.62037573569E+03  0.00000000000E+00 0. -1.
          1    1    1    2  502    0 -0.21399059076E+00 -0.30944465451E+02  0.38063732079E+03  0.38189314698E+03  0.00000000000E+00 0. -1.
         22    1    3    3    0    0 -0.90651231276E+02  0.34588117371E+02  0.11592889628E+03  0.15117371659E+03  0.00000000000E+00 0.  1.
         22    1    3    3    0    0  0.37330315377E+02  0.37386566030E+02  0.11129211868E+03  0.12319595547E+03  0.00000000000E+00 0.  1.
</event>
<event>
 7    1  0.6294601E-006  0.7890153E+02  0.7818608E-02  0.1418984E+00
          2   -1    0    0  502    0  0.00000000000E+00  0.00000000000E+00  0.12024294742E+04  0.12024294742E+04  0.00000000000E+00 0. -1.
          1   -1    0    0  501    0 -0.00000000000E+00 -0.00000000000E+00 -0.62225671530E+02  0.62225671530E+02  0.00000000000E+00 0. -1.
         25    2    1    2    0    0 -0.49373142230E+02  0.16535554452E+02  0.14932450045E+03  0.20157901290E+03  0.12500064108E+03 0.  0.
          2    1    1    2  501    0  0.87083772414E+02 -0.79786130226E+01  0.17816145131E+02  0.89244925407E+02  0.00000000000E+00 0. -1.
          1    1    1    2  502    0 -0.37710630184E+02 -0.85569414292E+01  0.97306315708E+03  0.97383120741E+03  0.00000000000E+00 0. -1.
         22    1    3    3    0    0  0.22378330119E+02  0.47796486401E+02  0.36116861259E+02  0.63950929927E+02  0.00000000000E+00 0. -1.
         22    1    3    3    0    0 -0.71751472349E+02 -0.31260931950E+02  0.11320763919E+03  0.13762808297E+03  0.00000000000E+00 0. -1.
</event>
<event>
 7    1  0.6294601E-006  0.7725949E+02  0.7818608E-02  0.1362683E+00
          2   -1    0    0  502    0  0.00000000000E+00  0.00000000000E+00  0.89013329228E+03  0.89013329228E+03  0.00000000000E+00 0. -1.
          1   -1    0    0  501    0 -0.00000000000E+00 -0.00000000000E+00 -0.43104935396E+03  0.43104935396E+03  0.00000000000E+00 0. -1.
         25    2    1    2    0    0 -0.11994844301E+02  0.12038921512E+03  0.34094417092E+03  0.38275948900E+03  0.12499783731E+03 0.  0.
          2    1    1    2  501    0 -0.26949810831E+02 -0.72070089665E+02 -0.40468151569E+03  0.41193144972E+03  0.00000000000E+00 0. -1.
          1    1    1    2  502    0  0.38944655133E+02 -0.48319125450E+02  0.52282128309E+03  0.52649170753E+03  0.00000000000E+00 0. -1.
         22    1    3    3    0    0 -0.14630139497E+02  0.14655068650E+03  0.29792987619E+03  0.33234523589E+03  0.00000000000E+00 0.  1.
         22    1    3    3    0    0  0.26352951952E+01 -0.26161471382E+02  0.43014294731E+02  0.50414253112E+02  0.00000000000E+00 0.  1.
</event>
<event>
 7    1  0.6294601E-006  0.9426682E+02  0.7818608E-02  0.1466141E+00
          2   -1    0    0  502    0  0.00000000000E+00  0.00000000000E+00  0.39149201556E+03  0.39149201556E+03  0.00000000000E+00 0. -1.
          1   -1    0    0  501    0 -0.00000000000E+00 -0.00000000000E+00 -0.12677454635E+04  0.12677454635E+04  0.00000000000E+00 0. -1.
         25    2    1    2    0    0  0.93026009286E+02 -0.60402075387E+02  0.47062703065E+02  0.17361295527E+03  0.12499724438E+03 0.  0.
          2    1    1    2  501    0 -0.85600018697E+02  0.38865733760E+02 -0.12021707463E+04  0.12058409562E+04  0.00000000000E+00 0. -1.
          1    1    1    2  502    0 -0.74259905893E+01  0.21536341626E+02  0.27885459531E+03  0.27978356755E+03  0.00000000000E+00 0. -1.
         22    1    3    3    0    0 -0.83597468709E+01 -0.17982401739E+02 -0.32404044205E+02  0.37990449075E+02  0.00000000000E+00 0. -1.
         22    1    3    3    0    0  0.10138575616E+03 -0.42419673647E+02  0.79466747270E+02  0.13562250619E+03  0.00000000000E+00 0. -1.
</event>
<event>
 7    1  0.6294601E-006  0.7822091E+02  0.7818608E-02  0.1390504E+00
          2   -1    0    0  502    0  0.00000000000E+00  0.00000000000E+00  0.87286282918E+02  0.87286282918E+02  0.00000000000E+00 0. -1.
          1   -1    0    0  501    0 -0.00000000000E+00 -0.00000000000E+00 -0.50513725097E+03  0.50513725097E+03  0.00000000000E+00 0. -1.
         25    2    1    2    0    0  0.26266116608E+02 -0.11585474264E+03 -0.10010889455E+03  0.19939391228E+03  0.12499564478E+03 0.  0.
          2    1    1    2  501    0  0.48200019336E+00  0.75041928970E+02 -0.33343180338E+03  0.34177227935E+03  0.00000000000E+00 0. -1.
          1    1    1    2  502    0 -0.26748116801E+02  0.40812813671E+02  0.15689729867E+02  0.51257342259E+02  0.00000000000E+00 0. -1.
         22    1    3    3    0    0 -0.22502936114E+02 -0.11265014589E+03 -0.97119803006E+02  0.15042836713E+03  0.00000000000E+00 0. -1.
         22    1    3    3    0    0  0.48769052722E+02 -0.32045967521E+01 -0.29890915405E+01  0.48965545152E+02  0.00000000000E+00 0. -1.
</event>
<event>
 7    1  0.6294601E-006  0.3769561E+03  0.7818608E-02  0.1077982E+00
          2   -1    0    0  502    0  0.00000000000E+00  0.00000000000E+00  0.28345045321E+04  0.28345045321E+04  0.00000000000E+00 0. -1.
          1   -1    0    0  501    0 -0.00000000000E+00 -0.00000000000E+00 -0.82926504096E+03  0.82926504096E+03  0.00000000000E+00 0. -1.
         25    2    1    2    0    0 -0.33934584858E+03  0.32936158909E+03 -0.45898325252E+03  0.67076494591E+03  0.12500130102E+03 0.  0.
          2    1    1    2  501    0  0.30941285045E+03 -0.67870460137E+02 -0.16050603977E+03  0.35511251764E+03  0.00000000000E+00 0. -1.
          1    1    1    2  502    0  0.29932998130E+02 -0.26149112896E+03  0.26247287834E+04  0.26378921095E+04  0.00000000000E+00 0. -1.
         22    1    3    3    0    0 -0.99108086902E+02  0.10555167329E+03 -0.67292921234E+02  0.15966184852E+03  0.00000000000E+00 0. -1.
         22    1    3    3    0    0 -0.24023776168E+03  0.22380991580E+03 -0.39169033128E+03  0.51110309740E+03  0.00000000000E+00 0. -1.
</event>
<event>
 7    1  0.6294601E-006  0.6221603E+02  0.7818608E-02  0.1416660E+00
          2   -1    0    0  502    0  0.00000000000E+00  0.00000000000E+00  0.43810009388E+03  0.43810009388E+03  0.00000000000E+00 0. -1.
          1   -1    0    0  501    0 -0.00000000000E+00 -0.00000000000E+00 -0.35514763241E+03  0.35514763241E+03  0.00000000000E+00 0. -1.
         25    2    1    2    0    0  0.54050995841E+02  0.92069484759E+02  0.18006492815E+03  0.24381627306E+03  0.12499878593E+03 0.  0.
          2    1    1    2  501    0 -0.21652264214E+02 -0.44987794589E+02 -0.31768018201E+03  0.32157957063E+03  0.00000000000E+00 0. -1.
          1    1    1    2  502    0 -0.32398731627E+02 -0.47081690170E+02  0.22056771533E+03  0.22785188260E+03  0.00000000000E+00 0. -1.
         22    1    3    3    0    0 -0.29542838924E+01  0.18593017725E+02 -0.17344964398E+02  0.25598357201E+02  0.00000000000E+00 0. -1.
         22    1    3    3    0    0  0.57005279733E+02  0.73476467034E+02  0.19740989255E+03  0.21821791586E+03  0.00000000000E+00 0. -1.
</event>
<event>
 7    1  0.6294601E-006  0.6092963E+02  0.7818608E-02  0.1416441E+00
          2   -1    0    0  502    0  0.00000000000E+00  0.00000000000E+00  0.16617308949E+04  0.16617308949E+04  0.00000000000E+00 0. -1.
          1   -1    0    0  501    0 -0.00000000000E+00 -0.00000000000E+00 -0.35420129735E+02  0.35420129735E+02  0.00000000000E+00 0. -1.
         25    2    1    2    0    0 -0.49358731500E+02  0.97472716302E+02  0.61924382833E+03  0.64111211845E+03  0.12499845878E+03 0.  0.
          2    1    1    2  501    0  0.25488138095E+02 -0.52327381396E+02  0.11707850169E+02  0.59370647486E+02  0.00000000000E+00 0. -1.
          1    1    1    2  502    0  0.23870593404E+02 -0.45145334906E+02  0.99535908666E+03  0.99666825869E+03  0.00000000000E+00 0. -1.
         22    1    3    3    0    0  0.12948179464E+02  0.81965040541E+02  0.19333883948E+03  0.21039446303E+03  0.00000000000E+00 0.  1.
         22    1    3    3    0    0 -0.62306910964E+02  0.15507675761E+02  0.42590498885E+03  0.43071765542E+03  0.00000000000E+00 0.  1.
</event>
<event>
 7    1  0.6294601E-006  0.7583741E+02  0.7818608E-02  0.1438087E+00
          2   -1    0    0  502    0  0.00000000000E+00  0.00000000000E+00  0.15476232126E+04  0.15476232126E+04  0.00000000000E+00 0. -1.
          1   -1    0    0  501    0 -0.00000000000E+00 -0.00000000000E+00 -0.36341145261E+02  0.36341145261E+02  0.00000000000E+00 0. -1.
         25    2    1    2    0    0  0.46032461514E+02  0.14414539076E+02  0.12077908268E+04  0.12151995876E+04  0.12499835984E+03 0.  0.
          2    1    1    2  501    0 -0.62391735005E+02 -0.45126128705E+02  0.15332051321E+02  0.78512214888E+02  0.00000000000E+00 0. -1.
          1    1    1    2  502    0  0.16359273491E+02  0.30711589629E+02  0.28815918923E+03  0.29025255538E+03  0.00000000000E+00 0. -1.
         22    1    3    3    0    0 -0.84740887344E+01 -0.42026076872E+02  0.21017970346E+03  0.21450759675E+03  0.00000000000E+00 0.  1.
         22    1    3    3    0    0  0.54506550249E+02  0.56440615948E+02  0.99761112331E+03  0.10006919908E+04  0.00000000000E+00 0.  1.
</event>
<event>
 7    1  0.6294601E-006  0.6517866E+02  0.7818608E-02  0.1395857E+00
          2   -1    0    0  502    0  0.00000000000E+00  0.00000000000E+00  0.48376339330E+03  0.48376339330E+03  0.00000000000E+00 0. -1.
          1   -1    0    0  501    0 -0.00000000000E+00 -0.00000000000E+00 -0.87175767130E+03  0.87175767130E+03  0.00000000000E+00 0. -1.
         25    2    1    2    0    0  0.11790571507E+03 -0.24240292331E+02 -0.92798703249E+02  0.19678902784E+03  0.12499989094E+03 0.  0.
          2    1    1    2  501    0 -0.54979001488E+02  0.11194288660E+02 -0.72348029567E+03  0.72565263103E+03  0.00000000000E+00 0. -1.
          1    1    1    2  502    0 -0.62926713585E+02  0.13046003672E+02  0.42828472092E+03  0.43307940573E+03  0.00000000000E+00 0. -1.
         22    1    3    3    0    0 -0.12553444370E+02 -0.37199553460E+02 -0.64005734326E+01  0.39778927631E+02  0.00000000000E+00 0. -1.
         22    1    3    3    0    0  0.13045915944E+03  0.12959261129E+02 -0.86398129817E+02  0.15701010021E+03  0.00000000000E+00 0. -1.
</event>
<event>
 7    1  0.6294601E-006  0.8737260E+02  0.7818608E-02  0.1311747E+00
          2   -1    0    0  502    0  0.00000000000E+00  0.00000000000E+00  0.60916131516E+03  0.60916131516E+03  0.00000000000E+00 0. -1.
          1   -1    0    0  501    0 -0.00000000000E+00 -0.00000000000E+00 -0.28661945982E+03  0.28661945982E+03  0.00000000000E+00 0. -1.
         25    2    1    2    0    0 -0.43873401274E+02 -0.74500456844E+02  0.14169058505E+03  0.20779581091E+03  0.12501073445E+03 0.  0.
          2    1    1    2  501    0 -0.46999075530E+02  0.73654992599E+02 -0.24105577105E+03  0.25640174686E+03  0.00000000000E+00 0. -1.
          1    1    1    2  502    0  0.90872476804E+02  0.84546424534E+00  0.42190704133E+03  0.43158321721E+03  0.00000000000E+00 0. -1.
         22    1    3    3    0    0  0.30435545994E+02 -0.12402203607E+02  0.94534643354E+02  0.10008464372E+03  0.00000000000E+00 0.  1.
         22    1    3    3    0    0 -0.74308947268E+02 -0.62098253237E+02  0.47155941700E+02  0.10771116719E+03  0.00000000000E+00 0.  1.
</event>
<event>
 7    1  0.6294601E-006  0.7070743E+02  0.7818608E-02  0.1474277E+00
          2   -1    0    0  502    0  0.00000000000E+00  0.00000000000E+00  0.20787674189E+04  0.20787674189E+04  0.00000000000E+00 0. -1.
          1   -1    0    0  501    0 -0.00000000000E+00 -0.00000000000E+00 -0.31011244209E+03  0.31011244209E+03  0.00000000000E+00 0. -1.
         25    2    1    2    0    0 -0.61189225494E+02 -0.77357022003E+02 -0.83899416452E+02  0.17997382459E+03  0.12499294094E+03 0.  0.
          2    1    1    2  501    0  0.21375176971E+02  0.19080175902E+02 -0.17640636203E+03  0.17871809049E+03  0.00000000000E+00 0. -1.
          1    1    1    2  502    0  0.39814048524E+02  0.58276846101E+02  0.20289607553E+04  0.20301879459E+04  0.00000000000E+00 0. -1.
         22    1    3    3    0    0 -0.66562640639E+02 -0.48841810788E+02  0.86221434400E+01  0.83008728260E+02  0.00000000000E+00 0. -1.
         22    1    3    3    0    0  0.53734151442E+01 -0.28515211215E+02 -0.92521559892E+02  0.96965096328E+02  0.00000000000E+00 0. -1.
</event>
<event>
 7    1  0.6294601E-006  0.6840411E+02  0.7818608E-02  0.1527767E+00
          2   -1    0    0  502    0  0.00000000000E+00  0.00000000000E+00  0.35985911614E+03  0.35985911614E+03  0.00000000000E+00 0. -1.
          1   -1    0    0  501    0 -0.00000000000E+00 -0.00000000000E+00 -0.14445220271E+04  0.14445220271E+04  0.00000000000E+00 0. -1.
         25    2    1    2    0    0 -0.20929188497E+02  0.61728497753E+02 -0.15017708941E+03  0.20598739731E+03  0.12501684407E+03 0.  0.
          2    1    1    2  501    0  0.40449693854E+02 -0.55415308024E+02 -0.12651924825E+04  0.12670513217E+04  0.00000000000E+00 0. -1.
          1    1    1    2  502    0 -0.19520505357E+02 -0.63131897291E+01  0.33070666094E+03  0.33134242421E+03  0.00000000000E+00 0. -1.
         22    1    3    3    0    0  0.88123468042E+01 -0.20861112776E+02 -0.10470755781E+03  0.10712850296E+03  0.00000000000E+00 0. -1.
         22    1    3    3    0    0 -0.29741535301E+02  0.82589610529E+02 -0.45469531597E+02  0.98858894354E+02  0.00000000000E+00 0. -1.
</event>
<event>
 7    1  0.6294601E-006  0.1166712E+03  0.7818608E-02  0.1271514E+00
          2   -1    0    0  502    0  0.00000000000E+00  0.00000000000E+00  0.46584782294E+03  0.46584782294E+03  0.00000000000E+00 0. -1.
          1   -1    0    0  501    0 -0.00000000000E+00 -0.00000000000E+00 -0.50869748417E+03  0.50869748417E+03  0.00000000000E+00 0. -1.
         25    2    1    2    0    0 -0.60262199818E+01 -0.52423655151E+02 -0.10505869706E+03  0.17160167570E+03  0.12500100132E+03 0.  0.
          2    1    1    2  501    0 -0.11245437119E+02  0.14404236850E+03 -0.35088112454E+03  0.37946307770E+03  0.00000000000E+00 0. -1.
          1    1    1    2  502    0  0.17271657100E+02 -0.91618713347E+02  0.41309016036E+03  0.42348055370E+03  0.00000000000E+00 0. -1.
         22    1    3    3    0    0  0.41815801471E+02  0.14953502935E+02 -0.97667402130E+01  0.45470404848E+02  0.00000000000E+00 0.  1.
         22    1    3    3    0    0 -0.47842021452E+02 -0.67377158086E+02 -0.95291956844E+02  0.12613127086E+03  0.00000000000E+00 0.  1.
</event>
<event>
 7    1  0.6294601E-006  0.7456228E+02  0.7818608E-02  0.1511099E+00
          2   -1    0    0  502    0  0.00000000000E+00  0.00000000000E+00  0.68402170081E+03  0.68402170081E+03  0.00000000000E+00 0. -1.
          1   -1    0    0  501    0 -0.00000000000E+00 -0.00000000000E+00 -0.14749298411E+04  0.14749298411E+04  0.00000000000E+00 0. -1.
         25    2    1    2    0    0 -0.72306780433E+02 -0.29747715632E+02 -0.94689871351E+02  0.17522595696E+03  0.12499906870E+03 0.  0.
          2    1    1    2  501    0  0.13532791828E+02 -0.16113668632E+02 -0.13377306072E+04  0.13378960962E+04  0.00000000000E+00 0. -1.
          1    1    1    2  502    0  0.58773988605E+02  0.45861384264E+02  0.64151233830E+03  0.64582948871E+03  0.00000000000E+00 0. -1.
         22    1    3    3    0    0 -0.82038933429E+02  0.25898191255E+02 -0.78498535801E+02  0.11646082187E+03  0.00000000000E+00 0. -1.
         22    1    3    3    0    0  0.97321529954E+01 -0.55645906887E+02 -0.16191335550E+02  0.58765135090E+02  0.00000000000E+00 0. -1.
</event>
<event>
 7    1  0.6294601E-006  0.6817087E+02  0.7818608E-02  0.1407812E+00
          2   -1    0    0  502    0  0.00000000000E+00  0.00000000000E+00  0.74067912898E+02  0.74067912898E+02  0.00000000000E+00 0. -1.
          1   -1    0    0  501    0 -0.00000000000E+00 -0.00000000000E+00 -0.57399643800E+03  0.57399643800E+03  0.00000000000E+00 0. -1.
         25    2    1    2    0    0  0.36862688754E+02  0.11375345049E+02 -0.27508818867E+03  0.30460929085E+03  0.12500020890E+03 0.  0.
          2    1    1    2  501    0 -0.80958005077E+02  0.95577851029E+01 -0.26686900209E+03  0.27904231600E+03  0.00000000000E+00 0. -1.
          1    1    1    2  502    0  0.44095316323E+02 -0.20933130152E+02  0.42028665659E+02  0.64412744054E+02  0.00000000000E+00 0. -1.
         22    1    3    3    0    0  0.25754284507E+01 -0.28583394694E+02 -0.46260126615E+01  0.29069628087E+02  0.00000000000E+00 0. -1.
         22    1    3    3    0    0  0.34287260303E+02  0.39958739743E+02 -0.27046217601E+03  0.27553966276E+03  0.00000000000E+00 0. -1.
</event>
<event>
 7    1  0.6294601E-006  0.1170881E+03  0.7818608E-02  0.1357564E+00
          2   -1    0    0  502    0  0.00000000000E+00  0.00000000000E+00  0.36323758274E+03  0.36323758274E+03  0.00000000000E+00 0. -1.
          1   -1    0    0  501    0 -0.00000000000E+00 -0.00000000000E+00 -0.12597492502E+03  0.12597492502E+03  0.00000000000E+00 0. -1.
         25    2    1    2    0    0 -0.46272638468E+02  0.88131581162E+02  0.19157039271E+03  0.24946666340E+03  0.12500427239E+03 0.  0.
          2    1    1    2  501    0  0.17597638287E+02 -0.11983741614E+03 -0.52986307629E+02  0.13220526456E+03  0.00000000000E+00 0. -1.
          1    1    1    2  502    0  0.28675000181E+02  0.31705834981E+02  0.98678572638E+02  0.10754057981E+03  0.00000000000E+00 0. -1.
         22    1    3    3    0    0  0.74442450847E+01 -0.21582058081E+02  0.68562680898E+00  0.22840142294E+02  0.00000000000E+00 0. -1.
         22    1    3    3    0    0 -0.53716883552E+02  0.10971363924E+03  0.19088476590E+03  0.22662652111E+03  0.00000000000E+00 0. -1.
</event>
<event>
 7    1  0.6294601E-006  0.1762017E+03  0.7818608E-02  0.1266776E+00
          2   -1    0    0  502    0  0.00000000000E+00  0.00000000000E+00  0.51109918387E+03  0.51109918387E+03  0.00000000000E+00 0. -1.
          1   -1    0    0  501    0 -0.00000000000E+00 -0.00000000000E+00 -0.32037429946E+03  0.32037429946E+03  0.00000000000E+00 0. -1.
         25    2    1    2    0    0 -0.10964091013E+03  0.13540017307E+03  0.16266549002E+02  0.21504231677E+03  0.12499704534E+03 0.  0.
          2    1    1    2  501    0 -0.45136054299E+02 -0.46259617621E+02 -0.19534166806E+03  0.20575612482E+03  0.00000000000E+00 0. -1.
          1    1    1    2  502    0  0.15477696443E+03 -0.89140555445E+02  0.36980000347E+03  0.41067504174E+03  0.00000000000E+00 0. -1.
         22    1    3    3    0    0 -0.36660619883E+02 -0.15755868105E+02  0.24785856787E+02  0.46974324121E+02  0.00000000000E+00 0.  1.
         22    1    3    3    0    0 -0.72980290244E+02  0.15115604117E+03 -0.85193077853E+01  0.16806799264E+03  0.00000000000E+00 0.  1.
</event>
<event>
 7    1  0.6294601E-006  0.5877310E+02  0.7818608E-02  0.1511521E+00
          2   -1    0    0  502    0  0.00000000000E+00  0.00000000000E+00  0.28533877646E+04  0.28533877646E+04  0.00000000000E+00 0. -1.
          1   -1    0    0  501    0 -0.00000000000E+00 -0.00000000000E+00 -0.31299557738E+03  0.31299557738E+03  0.00000000000E+00 0. -1.
         25    2    1    2    0    0 -0.75317601386E+02 -0.33730421164E+02  0.97074838965E+03  0.98223614510E+03  0.12499970537E+03 0.  0.
          2    1    1    2  501    0  0.56882347953E+02  0.14528035485E+02 -0.30435188061E+03  0.30996246959E+03  0.00000000000E+00 0. -1.
          1    1    1    2  502    0  0.18435253433E+02  0.19202385679E+02  0.18739956782E+04  0.18741847273E+04  0.00000000000E+00 0. -1.
         22    1    3    3    0    0  0.91848776918E+01  0.42059054600E+01  0.36946872464E+01  0.10756501885E+02  0.00000000000E+00 0.  1.
         22    1    3    3    0    0 -0.84502479078E+02 -0.37936326624E+02  0.96705370240E+03  0.97147964321E+03  0.00000000000E+00 0.  1.
</event>
<event>
 7    1  0.6294601E-006  0.4929928E+02  0.7818608E-02  0.1521397E+00
          2   -1    0    0  502    0  0.00000000000E+00  0.00000000000E+00  0.68968269256E+03  0.68968269256E+03  0.00000000000E+00 0. -1.
          1   -1    0    0  501    0 -0.00000000000E+00 -0.00000000000E+00 -0.34291171490E+02  0.34291171490E+02  0.00000000000E+00 0. -1.
         25    2    1    2    0    0 -0.16093051535E+02  0.14505472280E+02  0.13151484477E+03  0.18273076003E+03  0.12499992492E+03 0.  0.
          2    1    1    2  501    0 -0.27269446959E+02  0.11760487857E+02  0.22368714832E+02  0.37179177174E+02  0.00000000000E+00 0. -1.
          1    1    1    2  502    0  0.43362498493E+02 -0.26265960137E+02  0.50150796147E+03  0.50406392685E+03  0.00000000000E+00 0. -1.
         22    1    3    3    0    0  0.10415792137E+02 -0.44040687335E+02  0.10283751085E+03  0.11235490423E+03  0.00000000000E+00 0.  1.
         22    1    3    3    0    0 -0.26508843672E+02  0.58546159615E+02  0.28677333927E+02  0.70375855800E+02  0.00000000000E+00 0.  1.
</event>
<event>
 7    1  0.6294601E-006  0.1562570E+03  0.7818608E-02  0.1226088E+00
          2   -1    0    0  502    0  0.00000000000E+00  0.00000000000E+00  0.89843299282E+02  0.89843299282E+02  0.00000000000E+00 0. -1.
          1   -1    0    0  501    0 -0.00000000000E+00 -0.00000000000E+00 -0.12810198173E+04  0.12810198173E+04  0.00000000000E+00 0. -1.
         25    2    1    2    0    0  0.40469034715E+01  0.10528934833E+03 -0.43054427610E+03  0.46053886107E+03  0.12500177830E+03 0.  0.
          2    1    1    2  501    0  0.10608412944E+03  0.27938499620E+02 -0.72573931223E+03  0.73398361807E+03  0.00000000000E+00 0. -1.
          1    1    1    2  502    0 -0.11013103291E+03 -0.13322784794E+03 -0.34892929714E+02  0.17634063746E+03  0.00000000000E+00 0. -1.
         22    1    3    3    0    0  0.13031191001E+02  0.35402144149E+02 -0.35588747438E+03  0.35788129062E+03  0.00000000000E+00 0. -1.
         22    1    3    3    0    0 -0.89842875297E+01  0.69887204176E+02 -0.74656801713E+02  0.10265757046E+03  0.00000000000E+00 0. -1.
</event>
<event>
 7    1  0.6294601E-006  0.8691013E+02  0.7818608E-02  0.1334377E+00
          2   -1    0    0  502    0  0.00000000000E+00  0.00000000000E+00  0.83203639919E+02  0.83203639919E+02  0.00000000000E+00 0. -1.
          1   -1    0    0  501    0 -0.00000000000E+00 -0.00000000000E+00 -0.94268602363E+03  0.94268602363E+03  0.00000000000E+00 0. -1.
         25    2    1    2    0    0 -0.89245132705E+02 -0.11950617991E+03 -0.23982176880E+03  0.30884656832E+03  0.12500120488E+03 0.  0.
          2    1    1    2  501    0  0.46500312608E+02  0.52694234108E+02 -0.63276203948E+03  0.63665277819E+03  0.00000000000E+00 0. -1.
          1    1    1    2  502    0  0.42744820097E+02  0.66811945805E+02  0.13101424566E+02  0.80390317036E+02  0.00000000000E+00 0. -1.
         22    1    3    3    0    0 -0.80199010041E+02 -0.59516604928E+02 -0.54343269062E+02  0.11369827776E+03  0.00000000000E+00 0. -1.
         22    1    3    3    0    0 -0.90461226642E+01 -0.59989574985E+02 -0.18547849974E+03  0.19514829055E+03  0.00000000000E+00 0. -1.
</event>
<event>
 7    1  0.6294601E-006  0.1125418E+03  0.7818608E-02  0.1377242E+00
          2   -1    0    0  502    0  0.00000000000E+00  0.00000000000E+00  0.20151877929E+03  0.20151877929E+03  0.00000000000E+00 0. -1.
          1   -1    0    0  501    0 -0.00000000000E+00 -0.00000000000E+00 -0.19013191629E+04  0.19013191629E+04  0.00000000000E+00 0. -1.
         25    2    1    2    0    0 -0.11586585505E+03  0.63299379105E+02 -0.24946118410E+03  0.30868689458E+03  0.12500003499E+03 0.  0.
          2    1    1    2  501    0  0.80683719119E+02 -0.77029993316E+02 -0.16182273143E+04  0.16220675458E+04  0.00000000000E+00 0. -1.
          1    1    1    2  502    0  0.35182135927E+02  0.13730614211E+02  0.16788811487E+03  0.17208350173E+03  0.00000000000E+00 0. -1.
         22    1    3    3    0    0 -0.58380965207E+01 -0.33973405819E+02 -0.56669010832E+02  0.66329876093E+02  0.00000000000E+00 0.  1.
         22    1    3    3    0    0 -0.11002775853E+03  0.97272784924E+02 -0.19279217327E+03  0.24235701848E+03  0.00000000000E+00 0.  1.
</event>
<event>
 7    1  0.6294601E-006  0.1822828E+03  0.7818608E-02  0.1376598E+00
          2   -1    0    0  502    0  0.00000000000E+00  0.00000000000E+00  0.85178107955E+03  0.85178107955E+03  0.00000000000E+00 0. -1.
          1   -1    0    0  501    0 -0.00000000000E+00 -0.00000000000E+00 -0.67739849643E+03  0.67739849643E+03  0.00000000000E+00 0. -1.
         25    2    1    2    0    0  0.12950790556E+03  0.11508996867E+03 -0.47185090748E+02  0.21879157637E+03  0.12500129045E+03 0.  0.
          2    1    1    2  501    0  0.20893142774E+02 -0.10627050717E+02 -0.53320448669E+03  0.53371947898E+03  0.00000000000E+00 0. -1.
          1    1    1    2  502    0 -0.15040104833E+03 -0.10446291795E+03  0.75477216056E+03  0.77666852062E+03  0.00000000000E+00 0. -1.
         22    1    3    3    0    0  0.11726533847E+03  0.13702044949E+03 -0.60674888379E+02  0.19028190998E+03  0.00000000000E+00 0. -1.
         22    1    3    3    0    0  0.12242567082E+02 -0.21930480821E+02  0.13489797631E+02  0.28509666394E+02  0.00000000000E+00 0. -1.
</event>
<event>
 7    1  0.6294601E-006  0.5806804E+02  0.7818608E-02  0.1477029E+00
          2   -1    0    0  502    0  0.00000000000E+00  0.00000000000E+00  0.85984399668E+03  0.85984399668E+03  0.00000000000E+00 0. -1.
          1   -1    0    0  501    0 -0.00000000000E+00 -0.00000000000E+00 -0.19668639912E+03  0.19668639912E+03  0.00000000000E+00 0. -1.
         25    2    1    2    0    0 -0.66843386758E+02  0.58475090021E+02  0.27123512669E+03  0.31157949841E+03  0.12500366144E+03 0.  0.
          2    1    1    2  501    0  0.20010450500E+02 -0.27751310281E+02 -0.17345938910E+03  0.17680133772E+03  0.00000000000E+00 0. -1.
          1    1    1    2  502    0  0.46832936259E+02 -0.30723779740E+02  0.56538185998E+03  0.56814955967E+03  0.00000000000E+00 0. -1.
         22    1    3    3    0    0  0.22540393480E+02  0.59266441676E+02  0.99787957831E+02  0.11822950975E+03  0.00000000000E+00 0. -1.
         22    1    3    3    0    0 -0.89383780238E+02 -0.79135165428E+00  0.17144716886E+03  0.19334998867E+03  0.00000000000E+00 0. -1.
</event>
<event>
 7    1  0.6294601E-006  0.1226672E+03  0.7818608E-02  0.1388319E+00
          2   -1    0    0  502    0  0.00000000000E+00  0.00000000000E+00  0.25607570667E+04  0.25607570667E+04  0.00000000000E+00 0. -1.
          1   -1    0    0  501    0 -0.00000000000E+00 -0.00000000000E+00 -0.12054095271E+03  0.12054095271E+03  0.00000000000E+00 0. -1.
         25    2    1    2    0    0  0.83366620145E+02  0.77342056296E+02  0.42689030417E+03  0.45911349040E+03  0.12497230989E+03 0.  0.
          2    1    1    2  501    0 -0.16411355552E+02  0.27083654481E+02 -0.10016739374E+03  0.10505409892E+03  0.00000000000E+00 0. -1.
          1    1    1    2  502    0 -0.66955264593E+02 -0.10442571078E+03  0.21134932035E+04  0.21171304301E+04  0.00000000000E+00 0. -1.
         22    1    3    3    0    0  0.43996104558E+02 -0.22858714330E+02  0.66256067116E+02  0.82752912134E+02  0.00000000000E+00 0. -1.
         22    1    3    3    0    0  0.39370515587E+02  0.10020077063E+03  0.36063423706E+03  0.37636057826E+03  0.00000000000E+00 0. -1.
</event>
<event>
 7    1  0.6294601E-006  0.1202576E+03  0.7818608E-02  0.1416281E+00
          2   -1    0    0  502    0  0.00000000000E+00  0.00000000000E+00  0.41741386594E+03  0.41741386594E+03  0.00000000000E+00 0. -1.
          1   -1    0    0  501    0 -0.00000000000E+00 -0.00000000000E+00 -0.65355443046E+03  0.65355443046E+03  0.00000000000E+00 0. -1.
         25    2    1    2    0    0 -0.73493792428E+02 -0.80429261143E+02 -0.30560179377E+03  0.34768947923E+03  0.12500125614E+03 0.  0.
          2    1    1    2  501    0  0.70515141602E+02  0.10616340842E+03 -0.31403346073E+03  0.33891011926E+03  0.00000000000E+00 0. -1.
          1    1    1    2  502    0  0.29786508261E+01 -0.25734147273E+02  0.38349468997E+03  0.38436869791E+03  0.00000000000E+00 0. -1.
         22    1    3    3    0    0 -0.48432460422E+02  0.40029083490E+01 -0.27206344386E+02  0.55694808310E+02  0.00000000000E+00 0.  1.
         22    1    3    3    0    0 -0.25061332005E+02 -0.84432169492E+02 -0.27839544938E+03  0.29199467092E+03  0.00000000000E+00 0.  1.
</event>
<event>
 7    1  0.6294601E-006  0.1098733E+03  0.7818608E-02  0.1274055E+00
          2   -1    0    0  502    0  0.00000000000E+00  0.00000000000E+00  0.33456556110E+03  0.33456556110E+03  0.00000000000E+00 0. -1.
          1   -1    0    0  501    0 -0.00000000000E+00 -0.00000000000E+00 -0.72500117594E+03  0.72500117594E+03  0.00000000000E+00 0. -1.
         25    2    1    2    0    0 -0.44024013023E+02  0.34013589488E+02 -0.18095578996E+03  0.22682942485E+03  0.12494619667E+03 0.  0.
          2    1    1    2  501    0  0.34373483967E+02 -0.13013932156E+03 -0.50458051202E+03  0.52222530820E+03  0.00000000000E+00 0. -1.
          1    1    1    2  502    0  0.96505290561E+01  0.96125732076E+02  0.29510068714E+03  0.31051200400E+03  0.00000000000E+00 0. -1.
         22    1    3    3    0    0 -0.47020465360E+02 -0.39960882926E+02 -0.68551020899E+02  0.92233609890E+02  0.00000000000E+00 0.  1.
         22    1    3    3    0    0  0.29964523376E+01  0.73974472414E+02 -0.11240476906E+03  0.13459581496E+03  0.00000000000E+00 0.  1.
</event>
<event>
 7    1  0.6294601E-006  0.1646391E+03  0.7818608E-02  0.1222015E+00
          2   -1    0    0  502    0  0.00000000000E+00  0.00000000000E+00  0.11427899342E+04  0.11427899342E+04  0.00000000000E+00 0. -1.
          1   -1    0    0  501    0 -0.00000000000E+00 -0.00000000000E+00 -0.10113940733E+04  0.10113940733E+04  0.00000000000E+00 0. -1.
         25    2    1    2    0    0 -0.15742595053E+03 -0.11448999811E+03  0.20606999681E+03  0.30980432189E+03  0.12499193858E+03 0.  0.
          2    1    1    2  501    0 -0.68750175039E+01  0.10841557345E+03 -0.94876321615E+03  0.95496222059E+03  0.00000000000E+00 0. -1.
          1    1    1    2  502    0  0.16430096803E+03  0.60744246632E+01  0.87408908034E+03  0.88941746503E+03  0.00000000000E+00 0. -1.
         22    1    3    3    0    0 -0.10203756067E+02 -0.77247341737E+02  0.87298823948E+02  0.11701432864E+03  0.00000000000E+00 0.  1.
         22    1    3    3    0    0 -0.14722219446E+03 -0.37242656373E+02  0.11877117286E+03  0.19278999325E+03  0.00000000000E+00 0.  1.
</event>
<event>
 7    1  0.6294601E-006  0.1214643E+03  0.7818608E-02  0.1304750E+00
          2   -1    0    0  502    0  0.00000000000E+00  0.00000000000E+00  0.20519765005E+03  0.20519765005E+03  0.00000000000E+00 0. -1.
          1   -1    0    0  501    0 -0.00000000000E+00 -0.00000000000E+00 -0.14909724821E+04  0.14909724821E+04  0.00000000000E+00 0. -1.
         25    2    1    2    0    0  0.64116536434E+02 -0.48374459009E+02 -0.35932802048E+03  0.38883462569E+03  0.12499888520E+03 0.  0.
          2    1    1    2  501    0  0.58617122148E+02  0.29309337334E+02 -0.10955559090E+04  0.10975143525E+04  0.00000000000E+00 0. -1.
          1    1    1    2  502    0 -0.12273365858E+03  0.19065121675E+02  0.16910909741E+03  0.20982115394E+03  0.00000000000E+00 0. -1.
         22    1    3    3    0    0 -0.21326598757E+02 -0.58661899480E+02 -0.14403428959E+03  0.15697744692E+03  0.00000000000E+00 0. -1.
         22    1    3    3    0    0  0.85443135192E+02  0.10287440471E+02 -0.21529373089E+03  0.23185717876E+03  0.00000000000E+00 0. -1.
</event>
<event>
 7    1  0.6294601E-006  0.6000034E+02  0.7818608E-02  0.1504409E+00
          2   -1    0    0  502    0  0.00000000000E+00  0.00000000000E+00  0.71579420123E+03  0.71579420123E+03  0.00000000000E+00 0. -1.
          1   -1    0    0  501    0 -0.00000000000E+00 -0.00000000000E+00 -0.17199333810E+03  0.17199333810E+03  0.00000000000E+00 0. -1.
         25    2    1    2    0    0  0.41480548140E+01 -0.42543090764E+02  0.14117045148E+03  0.19334482550E+03  0.12500401693E+03 0.  0.
          2    1    1    2  501    0 -0.22122497867E+02 -0.16109271574E+02 -0.14288847040E+03  0.14548549246E+03  0.00000000000E+00 0. -1.
          1    1    1    2  502    0  0.17974443053E+02  0.58652362337E+02  0.54551888206E+03  0.54895722137E+03  0.00000000000E+00 0. -1.
         22    1    3    3    0    0 -0.60063036864E+02 -0.16934552821E+02  0.76015850916E+02  0.98350175735E+02  0.00000000000E+00 0. -1.
         22    1    3    3    0    0  0.64211091678E+02 -0.25608537943E+02  0.65154600560E+02  0.94994649767E+02  0.00000000000E+00 0. -1.
</event>
<event>
 7    1  0.6294601E-006  0.8642651E+02  0.7818608E-02  0.1387263E+00
          2   -1    0    0  502    0  0.00000000000E+00  0.00000000000E+00  0.22741041148E+04  0.22741041148E+04  0.00000000000E+00 0. -1.
          1   -1    0    0  501    0 -0.00000000000E+00 -0.00000000000E+00 -0.36770015669E+03  0.36770015669E+03  0.00000000000E+00 0. -1.
         25    2    1    2    0    0 -0.86480885644E+02 -0.97838881932E+02  0.12276675087E+03  0.21851219737E+03  0.12499805952E+03 0.  0.
          2    1    1    2  501    0  0.26325108479E+02  0.36904144491E+02 -0.31734470494E+03  0.32056604463E+03  0.00000000000E+00 0. -1.
          1    1    1    2  502    0  0.60155777164E+02  0.60934737441E+02  0.21009819122E+04  0.21027260295E+04  0.00000000000E+00 0. -1.
         22    1    3    3    0    0 -0.11847124775E+03 -0.66060605545E+02  0.90441518211E+02  0.16303100431E+03  0.00000000000E+00 0. -1.
         22    1    3    3    0    0  0.31990362109E+02 -0.31778276388E+02  0.32325232655E+02  0.55481193068E+02  0.00000000000E+00 0. -1.
</event>
<event>
 7    1  0.6294601E-006  0.4917871E+02  0.7818608E-02  0.1574833E+00
          2   -1    0    0  502    0  0.00000000000E+00  0.00000000000E+00  0.82324657894E+03  0.82324657894E+03  0.00000000000E+00 0. -1.
          1   -1    0    0  501    0 -0.00000000000E+00 -0.00000000000E+00 -0.32923583053E+02  0.32923583053E+02  0.00000000000E+00 0. -1.
         25    2    1    2    0    0 -0.37167594044E+02 -0.34259153400E+02  0.20315885308E+03  0.24383478572E+03  0.12500705382E+03 0.  0.
          2    1    1    2  501    0  0.19453868010E+02  0.45725619384E+02  0.37468366774E+02  0.62234747186E+02  0.00000000000E+00 0. -1.
          1    1    1    2  502    0  0.17713726034E+02 -0.11466465983E+02  0.54969577603E+03  0.55010062908E+03  0.00000000000E+00 0. -1.
         22    1    3    3    0    0  0.85113319096E+01  0.42216574209E+02  0.44811571487E+02  0.62151096917E+02  0.00000000000E+00 0.  1.
         22    1    3    3    0    0 -0.45678925954E+02 -0.76475727609E+02  0.15834728160E+03  0.18168368881E+03  0.00000000000E+00 0.  1.
</event>
<event>
 7    1  0.1320339E-005  0.9983861E+02  0.7818608E-02  0.1311769E+00
          2   -1    0    0  502    0  0.00000000000E+00  0.00000000000E+00  0.86643051434E+03  0.86643051434E+03  0.00000000000E+00 0. -1.
          1   -1    0    0  501    0 -0.00000000000E+00 -0.00000000000E+00 -0.15653577137E+04  0.15653577137E+04  0.00000000000E+00 0. -1.
         25    2    1    2    0    0 -0.10739482204E+02 -0.25002857198E+02 -0.31822918616E+03  0.34297955845E+03  0.12499873297E+03 0.  0.
          2    1    1    2  501    0 -0.53451481050E+02 -0.52324698440E+02 -0.12306573867E+04  0.12329284401E+04  0.00000000000E+00 0. -1.
          1    1    1    2  502    0  0.64190963254E+02  0.77327555638E+02  0.84995937352E+03  0.85588022951E+03  0.00000000000E+00 0. -1.
         22    1    3    3    0    0 -0.11668168234E+02  0.39877897250E+02 -0.22850026992E+03  0.23224720922E+03  0.00000000000E+00 0. -1.
         22    1    3    3    0    0  0.92868603039E+00 -0.64880754448E+02 -0.89728916242E+02  0.11073234923E+03  0.00000000000E+00 0. -1.
</event>
<event>
 7    1  0.6294601E-006  0.1285570E+03  0.7818608E-02  0.1332314E+00
          2   -1    0    0  502    0  0.00000000000E+00  0.00000000000E+00  0.16064536133E+03  0.16064536133E+03  0.00000000000E+00 0. -1.
          1   -1    0    0  501    0 -0.00000000000E+00 -0.00000000000E+00 -0.98290616676E+03  0.98290616676E+03  0.00000000000E+00 0. -1.
         25    2    1    2    0    0 -0.25202432043E+02  0.84611738872E+02 -0.63714893665E+01  0.15316648987E+03  0.12500027523E+03 0.  0.
          2    1    1    2  501    0  0.10988725382E+02 -0.13085301895E+03 -0.89122901042E+03  0.90085093865E+03  0.00000000000E+00 0. -1.
          1    1    1    2  502    0  0.14213706662E+02  0.46241280076E+02  0.75339694357E+02  0.89534099571E+02  0.00000000000E+00 0. -1.
         22    1    3    3    0    0 -0.30541044996E+02  0.97332273941E+02 -0.45484224986E+02  0.11169217386E+03  0.00000000000E+00 0. -1.
         22    1    3    3    0    0  0.53386129528E+01 -0.12720535069E+02  0.39112735619E+02  0.41474316008E+02  0.00000000000E+00 0. -1.
</event>
<event>
 7    1  0.6294601E-006  0.1274668E+03  0.7818608E-02  0.1385607E+00
          2   -1    0    0  502    0  0.00000000000E+00  0.00000000000E+00  0.99572878286E+02  0.99572878286E+02  0.00000000000E+00 0. -1.
          1   -1    0    0  501    0 -0.00000000000E+00 -0.00000000000E+00 -0.14014828430E+04  0.14014828430E+04  0.00000000000E+00 0. -1.
         25    2    1    2    0    0 -0.10374239884E+03  0.84774543355E+02 -0.32774491288E+02  0.18614233098E+03  0.12500236632E+03 0.  0.
          2    1    1    2  501    0  0.11457754801E+03 -0.55569598116E+02 -0.12765559059E+04  0.12828916461E+04  0.00000000000E+00 0. -1.
          1    1    1    2  502    0 -0.10835149166E+02 -0.29204945239E+02  0.74204324756E+01  0.32021744206E+02  0.00000000000E+00 0. -1.
         22    1    3    3    0    0 -0.31316041123E+02 -0.86023338636E-01  0.41591710830E+02  0.52063156276E+02  0.00000000000E+00 0.  1.
         22    1    3    3    0    0 -0.72426357717E+02  0.84860566694E+02 -0.74366202118E+02  0.13407917470E+03  0.00000000000E+00 0.  1.
</event>
<event>
 7    1  0.6294601E-006  0.4943045E+02  0.7818608E-02  0.1540632E+00
          2   -1    0    0  502    0  0.00000000000E+00  0.00000000000E+00  0.30250427161E+04  0.30250427161E+04  0.00000000000E+00 0. -1.
          1   -1    0    0  501    0 -0.00000000000E+00 -0.00000000000E+00 -0.21392012420E+02  0.21392012420E+02  0.00000000000E+00 0. -1.
         25    2    1    2    0    0 -0.52896959931E+02 -0.54870979799E+00  0.36713857431E+03  0.39142897340E+03  0.12501007566E+03 0.  0.
          2    1    1    2  501    0  0.94825378640E+01  0.24309300467E+02  0.98703326816E+01  0.27897743292E+02  0.00000000000E+00 0. -1.
          1    1    1    2  502    0  0.43414422067E+02 -0.23760590669E+02  0.26266417967E+04  0.26271080118E+04  0.00000000000E+00 0. -1.
         22    1    3    3    0    0 -0.60756763648E+01  0.20286815759E+02  0.32328849013E+03  0.32398135222E+03  0.00000000000E+00 0.  1.
         22    1    3    3    0    0 -0.46821283566E+02 -0.20835525557E+02  0.43850084184E+02  0.67447621181E+02  0.00000000000E+00 0.  1.
</event>
<event>
 7    1  0.6294601E-006  0.1019823E+03  0.7818608E-02  0.1283309E+00
          2   -1    0    0  502    0  0.00000000000E+00  0.00000000000E+00  0.20781626405E+03  0.20781626405E+03  0.00000000000E+00 0. -1.
          1   -1    0    0  501    0 -0.00000000000E+00 -0.00000000000E+00 -0.12580062266E+04  0.12580062266E+04  0.00000000000E+00 0. -1.
         25    2    1    2    0    0  0.12191572366E+03 -0.23830021489E+02 -0.15181933543E+03  0.23260668929E+03  0.12500179076E+03 0.  0.
          2    1    1    2  501    0 -0.81841300616E+02 -0.62626239415E+02 -0.10495025127E+04  0.10545499365E+04  0.00000000000E+00 0. -1.
          1    1    1    2  502    0 -0.40074423046E+02  0.86456260904E+02  0.15113188559E+03  0.17866586488E+03  0.00000000000E+00 0. -1.
         22    1    3    3    0    0  0.29111151050E+01  0.30941271245E+02  0.12856668585E+01  0.31104498014E+02  0.00000000000E+00 0. -1.
         22    1    3    3    0    0  0.11900460856E+03 -0.54771292734E+02 -0.15310500229E+03  0.20150219128E+03  0.00000000000E+00 0. -1.
</event>
<event>
 7    1  0.6294601E-006  0.1789172E+03  0.7818608E-02  0.1321166E+00
          2   -1    0    0  502    0  0.00000000000E+00  0.00000000000E+00  0.88909971530E+03  0.88909971530E+03  0.00000000000E+00 0. -1.
          1   -1    0    0  501    0 -0.00000000000E+00 -0.00000000000E+00 -0.87537104453E+03  0.87537104453E+03  0.00000000000E+00 0. -1.
         25    2    1    2    0    0 -0.44313642422E+02  0.19637185789E+03  0.53987043158E+02  0.24303222333E+03  0.12499782107E+03 0.  0.
          2    1    1    2  501    0  0.11082266837E+02 -0.17720945732E+03 -0.77024482212E+03  0.79044487120E+03  0.00000000000E+00 0. -1.
          1    1    1    2  502    0  0.33231375585E+02 -0.19162400565E+02  0.72998644973E+03  0.73099366530E+03  0.00000000000E+00 0. -1.
         22    1    3    3    0    0 -0.56506520940E+02  0.20760767053E+03  0.35277525053E+02  0.21803310654E+03  0.00000000000E+00 0.  1.
         22    1    3    3    0    0  0.12192878519E+02 -0.11235812649E+02  0.18709518105E+02  0.24999116788E+02  0.00000000000E+00 0.  1.
</event>
<event>
 7    1  0.6294601E-006  0.1537589E+03  0.7818608E-02  0.1217255E+00
          2   -1    0    0  502    0  0.00000000000E+00  0.00000000000E+00  0.39169494413E+03  0.39169494413E+03  0.00000000000E+00 0. -1.
          1   -1    0    0  501    0 -0.00000000000E+00 -0.00000000000E+00 -0.10970637228E+04  0.10970637228E+04  0.00000000000E+00 0. -1.
         25    2    1    2    0    0  0.62229183171E+02  0.27623234078E+01 -0.35555066116E+03  0.38199471208E+03  0.12499434280E+03 0.  0.
          2    1    1    2  501    0 -0.14055242913E+03 -0.13507730755E+03 -0.69876282642E+03  0.72544493377E+03  0.00000000000E+00 0. -1.
          1    1    1    2  502    0  0.78323245964E+02  0.13231498414E+03  0.34894470896E+03  0.38131902103E+03  0.00000000000E+00 0. -1.
         22    1    3    3    0    0  0.33372227038E+02  0.63067475358E+02 -0.15601454532E+03  0.17155684287E+03  0.00000000000E+00 0.  1.
         22    1    3    3    0    0  0.28856956133E+02 -0.60305151951E+02 -0.19953611585E+03  0.21043786921E+03  0.00000000000E+00 0.  1.
</event>
<event>
 7    1  0.6294601E-006  0.1414371E+03  0.7818608E-02  0.1288554E+00
          2   -1    0    0  502    0  0.00000000000E+00  0.00000000000E+00  0.30647559482E+04  0.30647559482E+04  0.00000000000E+00 0. -1.
          1   -1    0    0  501    0 -0.00000000000E+00 -0.00000000000E+00 -0.12522214589E+04  0.12522214589E+04  0.00000000000E+00 0. -1.
         25    2    1    2    0    0  0.17444171660E+02  0.12416135632E+03  0.41317676805E+03  0.44950610478E+03  0.12498141882E+03 0.  0.
          2    1    1    2  501    0 -0.82252130401E+02 -0.11540990523E+03 -0.12295799529E+04  0.12377203722E+04  0.00000000000E+00 0. -1.
          1    1    1    2  502    0  0.64807958741E+02 -0.87514510863E+01  0.26289376742E+04  0.26297509301E+04  0.00000000000E+00 0. -1.
         22    1    3    3    0    0 -0.31343862359E+02  0.12102946723E+03  0.33180598388E+03  0.35457831375E+03  0.00000000000E+00 0. -1.
         22    1    3    3    0    0  0.48788034018E+02  0.31318890897E+01  0.81370784168E+02  0.94927791025E+02  0.00000000000E+00 0. -1.
</event>
<event>
 7    1  0.6294601E-006  0.1464226E+03  0.7818608E-02  0.1247809E+00
          2   -1    0    0  502    0  0.00000000000E+00  0.00000000000E+00  0.10394654907E+04  0.10394654907E+04  0.00000000000E+00 0. -1.
          1   -1    0    0  501    0 -0.00000000000E+00 -0.00000000000E+00 -0.51686008616E+03  0.51686008616E+03  0.00000000000E+00 0. -1.
         25    2    1    2    0    0 -0.99016485199E+02  0.39277302035E+02  0.11160036288E+02  0.16461005179E+03  0.12499980777E+03 0.  0.
          2    1    1    2  501    0 -0.46182168444E+02 -0.81632416121E+02 -0.42902664066E+03  0.43915885786E+03  0.00000000000E+00 0. -1.
          1    1    1    2  502    0  0.14519865364E+03  0.42355114086E+02  0.94047200890E+03  0.95255666721E+03  0.00000000000E+00 0. -1.
         22    1    3    3    0    0 -0.31290905730E+02  0.25437609438E+02  0.65339881525E+02  0.76782112975E+02  0.00000000000E+00 0. -1.
         22    1    3    3    0    0 -0.67725579470E+02  0.13839692597E+02 -0.54179845237E+02  0.87827938810E+02  0.00000000000E+00 0. -1.
</event>
<event>
 7    1  0.6294601E-006  0.6380976E+02  0.7818608E-02  0.1385604E+00
          2   -1    0    0  502    0  0.00000000000E+00  0.00000000000E+00  0.13919023487E+04  0.13919023487E+04  0.00000000000E+00 0. -1.
          1   -1    0    0  501    0 -0.00000000000E+00 -0.00000000000E+00 -0.47732739508E+03  0.47732739508E+03  0.00000000000E+00 0. -1.
         25    2    1    2    0    0 -0.15334917956E+01  0.10893075818E+02  0.43510840215E+03  0.45284059016E+03  0.12499707107E+03 0.  0.
          2    1    1    2  501    0  0.63669073853E+02 -0.75215836244E+01 -0.46523937259E+03  0.46963602821E+03  0.00000000000E+00 0. -1.
          1    1    1    2  502    0 -0.62135582057E+02 -0.33714921940E+01  0.94470592409E+03  0.94675312544E+03  0.00000000000E+00 0. -1.
         22    1    3    3    0    0  0.60627402804E+02  0.52704699876E+01  0.25719877595E+03  0.26430034085E+03  0.00000000000E+00 0.  1.
         22    1    3    3    0    0 -0.62160894599E+02  0.56226058307E+01  0.17790962620E+03  0.18854024931E+03  0.00000000000E+00 0.  1.
</event>
<event>
 7    1  0.6294601E-006  0.1172701E+03  0.7818608E-02  0.1401623E+00
          2   -1    0    0  502    0  0.00000000000E+00  0.00000000000E+00  0.18305051503E+04  0.18305051503E+04  0.00000000000E+00 0. -1.
          1   -1    0    0  501    0 -0.00000000000E+00 -0.00000000000E+00 -0.87064445466E+03  0.87064445466E+03  0.00000000000E+00 0. -1.
         25    2    1    2    0    0 -0.93689130480E+02  0.10996167591E+03 -0.67821983235E+02  0.20271638158E+03  0.12499954645E+03 0.  0.
          2    1    1    2  501    0  0.79391004069E+02 -0.83827066479E+02 -0.73071666135E+03  0.73978155409E+03  0.00000000000E+00 0. -1.
          1    1    1    2  502    0  0.14298126411E+02 -0.26134609433E+02  0.17583993402E+04  0.17586516693E+04  0.00000000000E+00 0. -1.
         22    1    3    3    0    0 -0.68178663998E+02  0.13109097396E+03 -0.79255574826E+02  0.16767414774E+03  0.00000000000E+00 0. -1.
         22    1    3    3    0    0 -0.25510466482E+02 -0.21129298048E+02  0.11433591591E+02  0.35042233845E+02  0.00000000000E+00 0. -1.
</event>
<event>
 7    1  0.6294601E-006  0.1050295E+03  0.7818608E-02  0.1286098E+00
          2   -1    0    0  502    0  0.00000000000E+00  0.00000000000E+00  0.24122049105E+04  0.24122049105E+04  0.00000000000E+00 0. -1.
          1   -1    0    0  501    0 -0.00000000000E+00 -0.00000000000E+00 -0.16881508352E+04  0.16881508352E+04  0.00000000000E+00 0. -1.
         25    2    1    2    0    0 -0.37410678119E+02  0.41766583895E+02  0.39038739967E+03  0.41372925596E+03  0.12500227616E+03 0.  0.
          2    1    1    2  501    0  0.54865511143E+02  0.71497362282E+02 -0.16736331688E+04  0.16760578990E+04  0.00000000000E+00 0. -1.
          1    1    1    2  502    0 -0.17454833024E+02 -0.11326394618E+03  0.20072998444E+04  0.20105685907E+04  0.00000000000E+00 0. -1.
         22    1    3    3    0    0  0.21814848189E+02  0.44927140977E+02  0.60026363048E+02  0.78086489604E+02  0.00000000000E+00 0. -1.
         22    1    3    3    0    0 -0.59225526308E+02 -0.31605570823E+01  0.33036103663E+03  0.33564276636E+03  0.00000000000E+00 0. -1.
</event>
<event>
 7    1  0.6294601E-006  0.5569463E+02  0.7818608E-02  0.1452571E+00
          2   -1    0    0  502    0  0.00000000000E+00  0.00000000000E+00  0.10401041044E+03  0.10401041044E+03  0.00000000000E+00 0. -1.
          1   -1    0    0  501    0 -0.00000000000E+00 -0.00000000000E+00 -0.16391385866E+04  0.16391385866E+04  0.00000000000E+00 0. -1.
         25    2    1    2    0    0 -0.23574236613E+02  0.15217051398E+01 -0.65557786271E+02  0.14311002176E+03  0.12499837907E+03 0.  0.
          2    1    1    2  501    0 -0.29389612027E+02 -0.30777786877E+02 -0.15204120949E+04  0.15210075476E+04  0.00000000000E+00 0. -1.
          1    1    1    2  502    0  0.52963848640E+02  0.29256081737E+02  0.50841705072E+02  0.79031427647E+02  0.00000000000E+00 0. -1.
         22    1    3    3    0    0  0.33649636736E+02 -0.42209115320E+02 -0.18428762410E+02  0.57039694534E+02  0.00000000000E+00 0. -1.
         22    1    3    3    0    0 -0.57223873349E+02  0.43730820460E+02 -0.47129023861E+02  0.86070327229E+02  0.00000000000E+00 0. -1.
</event>
<event>
 7    1  0.6294601E-006  0.6018947E+02  0.7818608E-02  0.1459253E+00
          2   -1    0    0  502    0  0.00000000000E+00  0.00000000000E+00  0.58458609357E+03  0.58458609357E+03  0.00000000000E+00 0. -1.
          1   -1    0    0  501    0 -0.00000000000E+00 -0.00000000000E+00 -0.13351017554E+04  0.13351017554E+04  0.00000000000E+00 0. -1.
         25    2    1    2    0    0  0.32899425556E+02 -0.31392930542E+02  0.30537707689E+03  0.33309057212E+03  0.12500512733E+03 0.  0.
          2    1    1    2  501    0 -0.59993990218E+02  0.54647773576E+01 -0.13192291688E+04  0.13206039310E+04  0.00000000000E+00 0. -1.
          1    1    1    2  502    0  0.27094564662E+02  0.25928153184E+02  0.26333643016E+03  0.26599334580E+03  0.00000000000E+00 0. -1.
         22    1    3    3    0    0  0.19586769667E+02 -0.80010504781E+02  0.19900321857E+03  0.21537781553E+03  0.00000000000E+00 0. -1.
         22    1    3    3    0    0  0.13312655889E+02  0.48617574239E+02  0.10637385832E+03  0.11771275659E+03  0.00000000000E+00 0. -1.
</event>
<event>
 7    1  0.6294601E-006  0.2036063E+03  0.7818608E-02  0.1325396E+00
          2   -1    0    0  502    0  0.00000000000E+00  0.00000000000E+00  0.39791956437E+04  0.39791956437E+04  0.00000000000E+00 0. -1.
          1   -1    0    0  501    0 -0.00000000000E+00 -0.00000000000E+00 -0.35101744946E+03  0.35101744946E+03  0.00000000000E+00 0. -1.
         25    2    1    2    0    0  0.87745140461E+02  0.21256842531E+03  0.87075007464E+03  0.90923880843E+03  0.12499989263E+03 0.  0.
          2    1    1    2  501    0 -0.27907406951E+01 -0.32344581462E+02 -0.32775765988E+03  0.32936157000E+03  0.00000000000E+00 0. -1.
          1    1    1    2  502    0 -0.84954399766E+02 -0.18022384384E+03  0.30851857795E+04  0.30916127147E+04  0.00000000000E+00 0. -1.
         22    1    3    3    0    0  0.59092325089E+02  0.14669296562E+02  0.17301307601E+03  0.18341378252E+03  0.00000000000E+00 0. -1.
         22    1    3    3    0    0  0.28652815372E+02  0.19789912874E+03  0.69773699863E+03  0.72582502591E+03  0.00000000000E+00 0. -1.
</event>
<event>
 7    1  0.6294601E-006  0.9323669E+02  0.7818608E-02  0.1310871E+00
          2   -1    0    0  502    0  0.00000000000E+00  0.00000000000E+00  0.49204004230E+03  0.49204004230E+03  0.00000000000E+00 0. -1.
          1   -1    0    0  501    0 -0.00000000000E+00 -0.00000000000E+00 -0.38560376422E+03  0.38560376422E+03  0.00000000000E+00 0. -1.
         25    2    1    2    0    0 -0.36081006790E+01 -0.17581201815E+02  0.12029592317E+03  0.17440785244E+03  0.12499949125E+03 0.  0.
          2    1    1    2  501    0  0.57404725285E+02  0.77800594838E+02 -0.34711916587E+03  0.36033311027E+03  0.00000000000E+00 0. -1.
          1    1    1    2  502    0 -0.53796624606E+02 -0.60219393022E+02  0.33325952077E+03  0.34290284382E+03  0.00000000000E+00 0. -1.
         22    1    3    3    0    0 -0.53846875831E+02  0.25755299114E+02  0.51565992147E+02  0.78878850241E+02  0.00000000000E+00 0. -1.
         22    1    3    3    0    0  0.50238775152E+02 -0.43336500929E+02  0.68729931026E+02  0.95529002195E+02  0.00000000000E+00 0. -1.
</event>
<event>
 7    1  0.6294601E-006  0.7941143E+02  0.7818608E-02  0.1501829E+00
          2   -1    0    0  502    0  0.00000000000E+00  0.00000000000E+00  0.43594857548E+03  0.43594857548E+03  0.00000000000E+00 0. -1.
          1   -1    0    0  501    0 -0.00000000000E+00 -0.00000000000E+00 -0.48074325574E+03  0.48074325574E+03  0.00000000000E+00 0. -1.
         25    2    1    2    0    0 -0.64862428742E+02 -0.34340522877E+02  0.29464006675E+02  0.14791852273E+03  0.12500142201E+03 0.  0.
          2    1    1    2  501    0  0.58379619249E+02  0.54362269641E+02 -0.41741661233E+03  0.42497066317E+03  0.00000000000E+00 0. -1.
          1    1    1    2  502    0  0.64828094930E+01 -0.20021746765E+02  0.34315792539E+03  0.34380264531E+03  0.00000000000E+00 0. -1.
         22    1    3    3    0    0 -0.70261737792E+02 -0.25627198295E+02  0.72210195367E+02  0.10396046078E+03  0.00000000000E+00 0.  1.
         22    1    3    3    0    0  0.53993090506E+01 -0.87133245816E+01 -0.42746188691E+02  0.43958061958E+02  0.00000000000E+00 0.  1.
</event>
<event>
 7    1  0.6294601E-006  0.9402898E+02  0.7818608E-02  0.1327164E+00
          2   -1    0    0  502    0  0.00000000000E+00  0.00000000000E+00  0.13883308600E+04  0.13883308600E+04  0.00000000000E+00 0. -1.
          1   -1    0    0  501    0 -0.00000000000E+00 -0.00000000000E+00 -0.54914808253E+02  0.54914808253E+02  0.00000000000E+00 0. -1.
         25    2    1    2    0    0  0.45250694303E+01  0.55048654245E+02  0.22105812596E+03  0.25988942327E+03  0.12499994675E+03 0.  0.
          2    1    1    2  501    0  0.67747260523E+02  0.14139750707E+02  0.27657107833E+01  0.69262349185E+02  0.00000000000E+00 0. -1.
          1    1    1    2  502    0 -0.72272329953E+02 -0.69188404952E+02  0.11095922150E+04  0.11140938958E+04  0.00000000000E+00 0. -1.
         22    1    3    3    0    0 -0.35365940760E+02  0.55133032605E+02  0.20775899050E+03  0.21783984755E+03  0.00000000000E+00 0. -1.
         22    1    3    3    0    0  0.39891010190E+02 -0.84378359431E-01  0.13299135459E+02  0.42049575713E+02  0.00000000000E+00 0. -1.
</event>
<event>
 7    1  0.6294601E-006  0.5382465E+02  0.7818608E-02  0.1477609E+00
          2   -1    0    0  502    0  0.00000000000E+00  0.00000000000E+00  0.46323378575E+03  0.46323378575E+03  0.00000000000E+00 0. -1.
          1   -1    0    0  501    0 -0.00000000000E+00 -0.00000000000E+00 -0.15226302351E+04  0.15226302351E+04  0.00000000000E+00 0. -1.
         25    2    1    2    0    0 -0.22344705112E+02  0.43682316651E+02 -0.66780248224E+03  0.68117040861E+03  0.12500215855E+03 0.  0.
          2    1    1    2  501    0  0.51644113100E+02 -0.21483794326E+02 -0.84647935995E+03  0.84832539432E+03  0.00000000000E+00 0. -1.
          1    1    1    2  502    0 -0.29299407988E+02 -0.22198522325E+02  0.45488539284E+03  0.45636821791E+03  0.00000000000E+00 0. -1.
         22    1    3    3    0    0 -0.10359332156E+02 -0.37769571194E+02 -0.99414131765E+02  0.10685048369E+03  0.00000000000E+00 0. -1.
         22    1    3    3    0    0 -0.11985372956E+02  0.81451887845E+02 -0.56838835048E+03  0.57431992492E+03  0.00000000000E+00 0. -1.
</event>
<event>
 7    1  0.6294601E-006  0.9014349E+02  0.7818608E-02  0.1319765E+00
          2   -1    0    0  502    0  0.00000000000E+00  0.00000000000E+00  0.87500510026E+03  0.87500510026E+03  0.00000000000E+00 0. -1.
          1   -1    0    0  501    0 -0.00000000000E+00 -0.00000000000E+00 -0.50878879550E+02  0.50878879550E+02  0.00000000000E+00 0. -1.
         25    2    1    2    0    0 -0.19576887154E+02 -0.14604275372E+02  0.14715925453E+03  0.19461883883E+03  0.12499642741E+03 0.  0.
          2    1    1    2  501    0 -0.53444757193E+02 -0.55564191708E+02  0.41065931687E+02  0.87350628028E+02  0.00000000000E+00 0. -1.
          1    1    1    2  502    0  0.73021644347E+02  0.70168467080E+02  0.63590103450E+03  0.64391451296E+03  0.00000000000E+00 0. -1.
         22    1    3    3    0    0 -0.46313214775E+02 -0.25634432358E+02  0.92834331051E+01  0.53742163292E+02  0.00000000000E+00 0.  1.
         22    1    3    3    0    0  0.26736327621E+02  0.11030156986E+02  0.13787582142E+03  0.14087667554E+03  0.00000000000E+00 0.  1.
</event>
<event>
 7    1  0.6294601E-006  0.4927394E+02  0.7818608E-02  0.1466354E+00
          2   -1    0    0  502    0  0.00000000000E+00  0.00000000000E+00  0.31280244108E+03  0.31280244108E+03  0.00000000000E+00 0. -1.
          1   -1    0    0  501    0 -0.00000000000E+00 -0.00000000000E+00 -0.27211319222E+03  0.27211319222E+03  0.00000000000E+00 0. -1.
         25    2    1    2    0    0  0.39684240010E+01 -0.69519521366E+02 -0.58223876862E+02  0.15448064747E+03  0.12500215345E+03 0.  0.
          2    1    1    2  501    0  0.27961180063E+02  0.39954611700E+02 -0.16032101943E+03  0.16757394743E+03  0.00000000000E+00 0. -1.
          1    1    1    2  502    0 -0.31929604064E+02  0.29564909666E+02  0.25923414515E+03  0.26286103841E+03  0.00000000000E+00 0. -1.
         22    1    3    3    0    0 -0.12854861092E+02 -0.22037076223E+02  0.38057356389E+02  0.45817491829E+02  0.00000000000E+00 0.  1.
         22    1    3    3    0    0  0.16823285092E+02 -0.47482445143E+02 -0.96281233251E+02  0.10866315564E+03  0.00000000000E+00 0.  1.
</event>
<event>
 7    1  0.6294601E-006  0.8685172E+02  0.7818608E-02  0.1364499E+00
          2   -1    0    0  502    0  0.00000000000E+00  0.00000000000E+00  0.95322987700E+03  0.95322987700E+03  0.00000000000E+00 0. -1.
          1   -1    0    0  501    0 -0.00000000000E+00 -0.00000000000E+00 -0.16800819391E+03  0.16800819391E+03  0.00000000000E+00 0. -1.
         25    2    1    2    0    0  0.48334241625E+02  0.50218037388E+01  0.24102236940E+03  0.27582373401E+03  0.12500212905E+03 0.  0.
          2    1    1    2  501    0  0.41510221073E+02 -0.35120783075E+02 -0.14233752533E+03  0.15236974428E+03  0.00000000000E+00 0. -1.
          1    1    1    2  502    0 -0.89844462698E+02  0.30098979336E+02  0.68653683901E+03  0.69304459261E+03  0.00000000000E+00 0. -1.
         22    1    3    3    0    0  0.78784613759E+02  0.31969056200E+02  0.11245325266E+03  0.14097790591E+03  0.00000000000E+00 0.  1.
         22    1    3    3    0    0 -0.30450372134E+02 -0.26947252461E+02  0.12856911674E+03  0.13484582811E+03  0.00000000000E+00 0.  1.
</event>
<event>
 7    1  0.6294601E-006  0.8762940E+02  0.7818608E-02  0.1338217E+00
          2   -1    0    0  502    0  0.00000000000E+00  0.00000000000E+00  0.10772909535E+04  0.10772909535E+04  0.00000000000E+00 0. -1.
          1   -1    0    0  501    0 -0.00000000000E+00 -0.00000000000E+00 -0.64543244328E+03  0.64543244328E+03  0.00000000000E+00 0. -1.
         25    2    1    2    0    0  0.98425579842E+02 -0.11459414916E+03  0.19971540671E+03  0.27987617459E+03  0.12500006255E+03 0.  0.
          2    1    1    2  501    0 -0.48923963542E+02  0.46371117778E+02 -0.60134329599E+03  0.60510957223E+03  0.00000000000E+00 0. -1.
          1    1    1    2  502    0 -0.49501616300E+02  0.68223031386E+02  0.83348639953E+03  0.83773765000E+03  0.00000000000E+00 0. -1.
         22    1    3    3    0    0  0.89505925288E+02 -0.13723682019E+03  0.19566386376E+03  0.25520502162E+03  0.00000000000E+00 0.  1.
         22    1    3    3    0    0  0.89196545535E+01  0.22642671030E+02  0.40515429532E+01  0.24671152973E+02  0.00000000000E+00 0.  1.
</event>
<event>
 7    1  0.6294601E-006  0.1822141E+03  0.7818608E-02  0.1349649E+00
          2   -1    0    0  502    0  0.00000000000E+00  0.00000000000E+00  0.23527125540E+04  0.23527125540E+04  0.00000000000E+00 0. -1.
          1   -1    0    0  501    0 -0.00000000000E+00 -0.00000000000E+00 -0.34083020930E+03  0.34083020930E+03  0.00000000000E+00 0. -1.
         25    2    1    2    0    0 -0.15884299785E+03  0.57141633369E+02  0.76420089261E+03  0.79254285274E+03  0.12499961972E+03 0.  0.
          2    1    1    2  501    0 -0.86269845642E+01  0.28083090904E+02 -0.32037773285E+03  0.32172189320E+03  0.00000000000E+00 0. -1.
          1    1    1    2  502    0  0.16746998241E+03 -0.85224724273E+02  0.15680591850E+04  0.15792780174E+04  0.00000000000E+00 0. -1.
         22    1    3    3    0    0  0.13996564116E+02 -0.12451904342E+00  0.18191906355E+03  0.18245674829E+03  0.00000000000E+00 0.  1.
         22    1    3    3    0    0 -0.17283956196E+03  0.57266152412E+02  0.58228182906E+03  0.61008610445E+03  0.00000000000E+00 0.  1.
</event>
<event>
 7    1  0.6294601E-006  0.3335542E+02  0.7818608E-02  0.1627121E+00
          2   -1    0    0  502    0  0.00000000000E+00  0.00000000000E+00  0.63474780346E+03  0.63474780346E+03  0.00000000000E+00 0. -1.
          1   -1    0    0  501    0 -0.00000000000E+00 -0.00000000000E+00 -0.19097168670E+03  0.19097168670E+03  0.00000000000E+00 0. -1.
         25    2    1    2    0    0  0.10910943856E+02 -0.42576538971E+02 -0.10996110545E+03  0.17218851294E+03  0.12500251562E+03 0.  0.
          2    1    1    2  501    0  0.87439721034E+01  0.31177798620E+02 -0.44404980660E+02  0.54957387878E+02  0.00000000000E+00 0. -1.
          1    1    1    2  502    0 -0.19654915960E+02  0.11398740351E+02  0.59814220286E+03  0.59857358933E+03  0.00000000000E+00 0. -1.
         22    1    3    3    0    0  0.41741592431E+02  0.28086840683E+02 -0.67454543620E+02  0.84150737449E+02  0.00000000000E+00 0.  1.
         22    1    3    3    0    0 -0.30830648575E+02 -0.70663379654E+02 -0.42506561825E+02  0.88037775494E+02  0.00000000000E+00 0.  1.
</event>
<event>
 7    1  0.6294601E-006  0.5844829E+02  0.7818608E-02  0.1509574E+00
          2   -1    0    0  502    0  0.00000000000E+00  0.00000000000E+00  0.13060125327E+04  0.13060125327E+04  0.00000000000E+00 0. -1.
          1   -1    0    0  501    0 -0.00000000000E+00 -0.00000000000E+00 -0.29155341020E+03  0.29155341020E+03  0.00000000000E+00 0. -1.
         25    2    1    2    0    0  0.51843639427E+01  0.61842796432E+02  0.68538298637E+03  0.69944783797E+03  0.12500412368E+03 0.  0.
          2    1    1    2  501    0  0.20946994905E+02 -0.54577615905E+02 -0.28121375832E+03  0.28722581817E+03  0.00000000000E+00 0. -1.
          1    1    1    2  502    0 -0.26131358847E+02 -0.72651805276E+01  0.61028989440E+03  0.61089228672E+03  0.00000000000E+00 0. -1.
         22    1    3    3    0    0 -0.42055544110E+02 -0.10580897820E+02  0.36623529322E+03  0.36879386409E+03  0.00000000000E+00 0.  1.
         22    1    3    3    0    0  0.47239908053E+02  0.72423694252E+02  0.31914769315E+03  0.33065397389E+03  0.00000000000E+00 0.  1.
</event>
<event>
 7    1  0.6294601E-006  0.2894126E+03  0.7818608E-02  0.1338661E+00
          2   -1    0    0  502    0  0.00000000000E+00  0.00000000000E+00  0.84106932181E+03  0.84106932181E+03  0.00000000000E+00 0. -1.
          1   -1    0    0  501    0 -0.00000000000E+00 -0.00000000000E+00 -0.42873550091E+03  0.42873550091E+03  0.00000000000E+00 0. -1.
         25    2    1    2    0    0  0.43260357998E+02 -0.28820602541E+03 -0.59903618126E+02  0.32272042474E+03  0.12500342965E+03 0.  0.
          2    1    1    2  501    0 -0.22943806969E+02  0.28742914437E+03 -0.14965002051E+03  0.32486467944E+03  0.00000000000E+00 0. -1.
          1    1    1    2  502    0 -0.20316551029E+02  0.77688103792E+00  0.62188745955E+03  0.62221971853E+03  0.00000000000E+00 0. -1.
         22    1    3    3    0    0 -0.17826432806E+02 -0.62858963842E+01  0.15636071126E+02  0.24531223374E+02  0.00000000000E+00 0. -1.
         22    1    3    3    0    0  0.61086790805E+02 -0.28192012902E+03 -0.75539689252E+02  0.29818920137E+03  0.00000000000E+00 0. -1.
</event>
<event>
 7    1  0.6294601E-006  0.9061790E+02  0.7818608E-02  0.1327458E+00
          2   -1    0    0  502    0  0.00000000000E+00  0.00000000000E+00  0.39701853001E+02  0.39701853001E+02  0.00000000000E+00 0. -1.
          1   -1    0    0  501    0 -0.00000000000E+00 -0.00000000000E+00 -0.37558242160E+04  0.37558242160E+04  0.00000000000E+00 0. -1.
         25    2    1    2    0    0  0.92897600106E+02 -0.66923142824E+01 -0.29057843723E+03  0.32975287997E+03  0.12500552982E+03 0.  0.
          2    1    1    2  501    0 -0.28115884108E+02 -0.65876702996E+02 -0.33253613619E+04  0.33261326537E+04  0.00000000000E+00 0. -1.
          1    1    1    2  502    0 -0.64781715998E+02  0.72569017279E+02 -0.10018256383E+03  0.13964053528E+03  0.00000000000E+00 0. -1.
         22    1    3    3    0    0  0.45084284690E+02  0.48431682736E+02 -0.65352476728E+02  0.93000896948E+02  0.00000000000E+00 0. -1.
         22    1    3    3    0    0  0.47813315416E+02 -0.55123997018E+02 -0.22522596051E+03  0.23675198302E+03  0.00000000000E+00 0. -1.
</event>
<event>
 7    1  0.6294601E-006  0.1270527E+03  0.7818608E-02  0.1371416E+00
          2   -1    0    0  502    0  0.00000000000E+00  0.00000000000E+00  0.47845768207E+03  0.47845768207E+03  0.00000000000E+00 0. -1.
          1   -1    0    0  501    0 -0.00000000000E+00 -0.00000000000E+00 -0.78675107775E+03  0.78675107775E+03  0.00000000000E+00 0. -1.
         25    2    1    2    0    0  0.58770004010E+02 -0.72390514817E+02 -0.25102401678E+03  0.29552033341E+03  0.12499964181E+03 0.  0.
          2    1    1    2  501    0  0.18844201564E+02 -0.29606727538E+02 -0.50385434650E+03  0.50507510801E+03  0.00000000000E+00 0. -1.
          1    1    1    2  502    0 -0.77614205575E+02  0.10199724236E+03  0.44658496759E+03  0.46461331840E+03  0.00000000000E+00 0. -1.
         22    1    3    3    0    0  0.83991820680E+02 -0.75372358133E+02 -0.24451608943E+03  0.26930231396E+03  0.00000000000E+00 0.  1.
         22    1    3    3    0    0 -0.25221816669E+02  0.29818433153E+01 -0.65079273463E+01  0.26218019452E+02  0.00000000000E+00 0.  1.
</event>
<event>
 7    1  0.6294601E-006  0.6097889E+02  0.7818608E-02  0.1541362E+00
          2   -1    0    0  502    0  0.00000000000E+00  0.00000000000E+00  0.14679977491E+03  0.14679977491E+03  0.00000000000E+00 0. -1.
          1   -1    0    0  501    0 -0.00000000000E+00 -0.00000000000E+00 -0.16300545443E+04  0.16300545443E+04  0.00000000000E+00 0. -1.
         25    2    1    2    0    0 -0.79903749894E+02  0.10537315605E+02 -0.55535378487E+03  0.57492551150E+03  0.12500349252E+03 0.  0.
          2    1    1    2  501    0  0.20774807377E+02  0.34017763488E+01 -0.10580711861E+04  0.10582805864E+04  0.00000000000E+00 0. -1.
          1    1    1    2  502    0  0.59128942517E+02 -0.13939091954E+02  0.13017020154E+03  0.14364822134E+03  0.00000000000E+00 0. -1.
         22    1    3    3    0    0 -0.41751432494E+02  0.58866257847E+02 -0.42091338307E+03  0.42705561052E+03  0.00000000000E+00 0.  1.
         22    1    3    3    0    0 -0.38152317400E+02 -0.48328942242E+02 -0.13444040180E+03  0.14786990098E+03  0.00000000000E+00 0.  1.
</event>
<event>
 7    1  0.6294601E-006  0.1884793E+03  0.7818608E-02  0.1353402E+00
          2   -1    0    0  502    0  0.00000000000E+00  0.00000000000E+00  0.86188229970E+03  0.86188229970E+03  0.00000000000E+00 0. -1.
          1   -1    0    0  501    0 -0.00000000000E+00 -0.00000000000E+00 -0.34307563814E+03  0.34307563814E+03  0.00000000000E+00 0. -1.
         25    2    1    2    0    0 -0.62463261616E+02  0.20402737719E+03 -0.45293316750E+02  0.25140609702E+03  0.12499884552E+03 0.  0.
          2    1    1    2  501    0  0.13363037542E+02 -0.24045047931E+02 -0.18221134004E+03  0.18427617193E+03  0.00000000000E+00 0. -1.
          1    1    1    2  502    0  0.49100224074E+02 -0.17998232926E+03  0.74631131835E+03  0.76927566889E+03  0.00000000000E+00 0. -1.
         22    1    3    3    0    0 -0.31122814352E+02  0.13910762029E+03 -0.88091642047E+02  0.16756997641E+03  0.00000000000E+00 0.  1.
         22    1    3    3    0    0 -0.31340447263E+02  0.64919756895E+02  0.42798325297E+02  0.83836120606E+02  0.00000000000E+00 0.  1.
</event>
<event>
 7    1  0.6294601E-006  0.3335814E+02  0.7818608E-02  0.1639318E+00
          2   -1    0    0  502    0  0.00000000000E+00  0.00000000000E+00  0.30695450380E+03  0.30695450380E+03  0.00000000000E+00 0. -1.
          1   -1    0    0  501    0 -0.00000000000E+00 -0.00000000000E+00 -0.57588558545E+03  0.57588558545E+03  0.00000000000E+00 0. -1.
         25    2    1    2    0    0  0.10545193472E+02  0.12205780760E+02 -0.36129417282E+03  0.38264923649E+03  0.12500710652E+03 0.  0.
          2    1    1    2  501    0 -0.30583599960E+02 -0.19053200389E+02 -0.20193864928E+03  0.20512825038E+03  0.00000000000E+00 0. -1.
          1    1    1    2  502    0  0.20038406487E+02  0.68474196286E+01  0.29430174045E+03  0.29506260238E+03  0.00000000000E+00 0. -1.
         22    1    3    3    0    0 -0.49144386683E+02  0.15274079033E+02 -0.25993450442E+03  0.26498002721E+03  0.00000000000E+00 0. -1.
         22    1    3    3    0    0  0.59689580155E+02 -0.30682982731E+01 -0.10135966841E+03  0.11766920928E+03  0.00000000000E+00 0. -1.
</event>
<event>
 7    1  0.6294601E-006  0.1575783E+03  0.7818608E-02  0.1324589E+00
          2   -1    0    0  502    0  0.00000000000E+00  0.00000000000E+00  0.40264866785E+03  0.40264866785E+03  0.00000000000E+00 0. -1.
          1   -1    0    0  501    0 -0.00000000000E+00 -0.00000000000E+00 -0.11096027758E+04  0.11096027758E+04  0.00000000000E+00 0. -1.
         25    2    1    2    0    0 -0.61747213571E+01  0.19434662483E+03 -0.65782011673E+03  0.69725379500E+03  0.12500724341E+03 0.  0.
          2    1    1    2  501    0 -0.15833884482E+02 -0.39169626646E+02 -0.41491104734E+03  0.41705652945E+03  0.00000000000E+00 0. -1.
          1    1    1    2  502    0  0.22008605839E+02 -0.15517699819E+03  0.36577705616E+03  0.39794111915E+03  0.00000000000E+00 0. -1.
         22    1    3    3    0    0 -0.63400847609E+02  0.13132934572E+03 -0.42939472532E+03  0.45348306987E+03  0.00000000000E+00 0. -1.
         22    1    3    3    0    0  0.57226126252E+02  0.63017279110E+02 -0.22842539141E+03  0.24377072513E+03  0.00000000000E+00 0. -1.
</event>
<event>
 7    1  0.6294601E-006  0.7089510E+02  0.7818608E-02  0.1372561E+00
          2   -1    0    0  502    0  0.00000000000E+00  0.00000000000E+00  0.81271870307E+03  0.81271870307E+03  0.00000000000E+00 0. -1.
          1   -1    0    0  501    0 -0.00000000000E+00 -0.00000000000E+00 -0.17290350927E+04  0.17290350927E+04  0.00000000000E+00 0. -1.
         25    2    1    2    0    0 -0.10124265836E+03  0.30022358960E+02  0.27278136799E+03  0.31809451036E+03  0.12499209933E+03 0.  0.
          2    1    1    2  501    0  0.35556106634E+02 -0.51160507076E+02 -0.17035052838E+04  0.17046442111E+04  0.00000000000E+00 0. -1.
          1    1    1    2  502    0  0.65686551724E+02  0.21138148117E+02  0.51440752622E+03  0.51901507436E+03  0.00000000000E+00 0. -1.
         22    1    3    3    0    0 -0.12173309716E+03  0.52552073247E+02  0.21074457596E+03  0.24898583021E+03  0.00000000000E+00 0. -1.
         22    1    3    3    0    0  0.20490438803E+02 -0.22529714287E+02  0.62036792022E+02  0.69108680154E+02  0.00000000000E+00 0. -1.
</event>
<event>
 7    1  0.6294601E-006  0.1680432E+03  0.7818608E-02  0.1284729E+00
          2   -1    0    0  502    0  0.00000000000E+00  0.00000000000E+00  0.13456674635E+04  0.13456674635E+04  0.00000000000E+00 0. -1.
          1   -1    0    0  501    0 -0.00000000000E+00 -0.00000000000E+00 -0.63318573940E+03  0.63318573940E+03  0.00000000000E+00 0. -1.
         25    2    1    2    0    0  0.11796986144E+03  0.24041051567E+02  0.69020968415E+02  0.18677264595E+03  0.12500106730E+03 0.  0.
          2    1    1    2  501    0  0.54972925657E+02 -0.15292505440E+02 -0.56671410427E+03  0.56957945824E+03  0.00000000000E+00 0. -1.
          1    1    1    2  502    0 -0.17294278710E+03 -0.87485461265E+01  0.12101748600E+04  0.12225010987E+04  0.00000000000E+00 0. -1.
         22    1    3    3    0    0  0.12246942985E+03  0.14370230297E+02  0.96961401519E+02  0.15686547788E+03  0.00000000000E+00 0. -1.
         22    1    3    3    0    0 -0.44995684088E+01  0.96708212697E+01 -0.27940433104E+02  0.29907168069E+02  0.00000000000E+00 0. -1.
</event>
<event>
 7    1  0.6294601E-006  0.7728709E+02  0.7818608E-02  0.1415465E+00
          2   -1    0    0  502    0  0.00000000000E+00  0.00000000000E+00  0.11217244939E+04  0.11217244939E+04  0.00000000000E+00 0. -1.
          1   -1    0    0  501    0 -0.00000000000E+00 -0.00000000000E+00 -0.80599427748E+03  0.80599427748E+03  0.00000000000E+00 0. -1.
         25    2    1    2    0    0  0.87717962928E+02 -0.77535378724E+02 -0.38610452123E+03  0.42238414796E+03  0.12500196460E+03 0.  0.
          2    1    1    2  501    0 -0.33949925676E+02  0.22200511699E+02 -0.39937275303E+03  0.40142752277E+03  0.00000000000E+00 0. -1.
          1    1    1    2  502    0 -0.53768037251E+02  0.55334867025E+02  0.11012074907E+04  0.11039071007E+04  0.00000000000E+00 0. -1.
         22    1    3    3    0    0  0.71065125775E+02 -0.89154167688E+02 -0.16621623227E+03  0.20156029765E+03  0.00000000000E+00 0. -1.
         22    1    3    3    0    0  0.16652837152E+02  0.11618788964E+02 -0.21988828896E+03  0.22082385031E+03  0.00000000000E+00 0. -1.
</event>
<event>
 7    1  0.6294601E-006  0.7644905E+02  0.7818608E-02  0.1368193E+00
          2   -1    0    0  502    0  0.00000000000E+00  0.00000000000E+00  0.11726955306E+04  0.11726955306E+04  0.00000000000E+00 0. -1.
          1   -1    0    0  501    0 -0.00000000000E+00 -0.00000000000E+00 -0.98129571339E+02  0.98129571339E+02  0.00000000000E+00 0. -1.
         25    2    1    2    0    0 -0.69416529051E+02 -0.62590626313E+02  0.96157259156E+03  0.97415743797E+03  0.12499849638E+03 0.  0.
          2    1    1    2  501    0  0.26806914622E+00  0.59902108407E+02 -0.75207060446E+02  0.96147992145E+02  0.00000000000E+00 0. -1.
          1    1    1    2  502    0  0.69148459905E+02  0.26885179063E+01  0.18820042818E+03  0.20051967186E+03  0.00000000000E+00 0. -1.
         22    1    3    3    0    0 -0.25155679477E+02 -0.79332803065E+02  0.31348450179E+03  0.32434400675E+03  0.00000000000E+00 0. -1.
         22    1    3    3    0    0 -0.44260849574E+02  0.16742176751E+02  0.64808808977E+03  0.64981343122E+03  0.00000000000E+00 0. -1.
</event>
<event>
 7    1  0.6294601E-006  0.1226869E+03  0.7818608E-02  0.1422120E+00
          2   -1    0    0  502    0  0.00000000000E+00  0.00000000000E+00  0.11357764870E+04  0.11357764870E+04  0.00000000000E+00 0. -1.
          1   -1    0    0  501    0 -0.00000000000E+00 -0.00000000000E+00 -0.98425702260E+02  0.98425702260E+02  0.00000000000E+00 0. -1.
         25    2    1    2    0    0 -0.11195961272E+03 -0.27119422199E+02  0.10560312884E+03  0.20011828892E+03  0.12499956320E+03 0.  0.
          2    1    1    2  501    0 -0.11374657003E+02  0.21446907498E+02 -0.44162296220E+02  0.50395050061E+02  0.00000000000E+00 0. -1.
          1    1    1    2  502    0  0.12333426972E+03  0.56725147012E+01  0.97590995215E+03  0.98368885031E+03  0.00000000000E+00 0. -1.
         22    1    3    3    0    0 -0.84309318884E+02 -0.23598962193E+02  0.13416873475E+03  0.16020680900E+03  0.00000000000E+00 0.  1.
         22    1    3    3    0    0 -0.27650293836E+02 -0.35204600054E+01 -0.28565605912E+02  0.39911479915E+02  0.00000000000E+00 0.  1.
</event>
<event>
 7    1  0.6294601E-006  0.6432470E+02  0.7818608E-02  0.1399344E+00
          2   -1    0    0  502    0  0.00000000000E+00  0.00000000000E+00  0.11942346562E+04  0.11942346562E+04  0.00000000000E+00 0. -1.
          1   -1    0    0  501    0 -0.00000000000E+00 -0.00000000000E+00 -0.12161128888E+04  0.12161128888E+04  0.00000000000E+00 0. -1.
         25    2    1    2    0    0  0.99021694713E+02 -0.45335330436E+02  0.38690066634E+02  0.17024304452E+03  0.12500073896E+03 0.  0.
          2    1    1    2  501    0 -0.63961217576E+02  0.25723311682E+01 -0.11487432430E+04  0.11505253985E+04  0.00000000000E+00 0. -1.
          1    1    1    2  502    0 -0.35060477137E+02  0.42762999268E+02  0.10881749438E+04  0.10895791019E+04  0.00000000000E+00 0. -1.
         22    1    3    3    0    0  0.95291906386E+02 -0.59305866829E+01 -0.21819484676E+02  0.97937782253E+02  0.00000000000E+00 0.  1.
         22    1    3    3    0    0  0.37297883260E+01 -0.39404743753E+02  0.60509551310E+02  0.72305262263E+02  0.00000000000E+00 0.  1.
</event>
<event>
 7    1  0.6294601E-006  0.6277579E+02  0.7818608E-02  0.1426626E+00
          2   -1    0    0  502    0  0.00000000000E+00  0.00000000000E+00  0.10896409098E+03  0.10896409098E+03  0.00000000000E+00 0. -1.
          1   -1    0    0  501    0 -0.00000000000E+00 -0.00000000000E+00 -0.95502726371E+03  0.95502726371E+03  0.00000000000E+00 0. -1.
         25    2    1    2    0    0 -0.33121917831E+02 -0.25637362273E+02 -0.29502990191E+03  0.32314602482E+03  0.12500549808E+03 0.  0.
          2    1    1    2  501    0  0.10920458830E+02  0.65741668297E+02 -0.63856714176E+03  0.64203521547E+03  0.00000000000E+00 0. -1.
          1    1    1    2  502    0  0.22201459001E+02 -0.40104306024E+02  0.87533870945E+02  0.98810114391E+02  0.00000000000E+00 0. -1.
         22    1    3    3    0    0 -0.62570836672E+02  0.10305505336E+02 -0.74779123839E+02  0.98047082589E+02  0.00000000000E+00 0. -1.
         22    1    3    3    0    0  0.29448918842E+02 -0.35942867609E+02 -0.22025077807E+03  0.22509894224E+03  0.00000000000E+00 0. -1.
</event>
<event>
 7    1  0.6294601E-006  0.9408244E+02  0.7818608E-02  0.1361981E+00
          2   -1    0    0  502    0  0.00000000000E+00  0.00000000000E+00  0.35969208809E+04  0.35969208809E+04  0.00000000000E+00 0. -1.
          1   -1    0    0  501    0 -0.00000000000E+00 -0.00000000000E+00 -0.49708453584E+03  0.49708453584E+03  0.00000000000E+00 0. -1.
         25    2    1    2    0    0  0.92746609955E+02 -0.18247764807E+02  0.48375802646E+02  0.16400996587E+03  0.12499654414E+03 0.  0.
          2    1    1    2  501    0 -0.69744213296E+02  0.64060947342E+02 -0.43397279132E+03  0.44418514594E+03  0.00000000000E+00 0. -1.
          1    1    1    2  502    0 -0.23002396659E+02 -0.45813182535E+02  0.34854333337E+04  0.34858103049E+04  0.00000000000E+00 0. -1.
         22    1    3    3    0    0  0.10246334552E+03 -0.54952777134E+02  0.23508315265E+02  0.11862202906E+03  0.00000000000E+00 0.  1.
         22    1    3    3    0    0 -0.97167355690E+01  0.36705012327E+02  0.24867487381E+02  0.45387936819E+02  0.00000000000E+00 0.  1.
</event>
<event>
 7    1  0.6294601E-006  0.6087286E+02  0.7818608E-02  0.1425482E+00
          2   -1    0    0  502    0  0.00000000000E+00  0.00000000000E+00  0.17012234351E+03  0.17012234351E+03  0.00000000000E+00 0. -1.
          1   -1    0    0  501    0 -0.00000000000E+00 -0.00000000000E+00 -0.92748173797E+03  0.92748173797E+03  0.00000000000E+00 0. -1.
         25    2    1    2    0    0 -0.18178050714E+02  0.23841410885E+02 -0.31861416685E+02  0.13243463860E+03  0.12499971690E+03 0.  0.
          2    1    1    2  501    0 -0.12226973421E+02 -0.60577534014E+02 -0.83940838902E+03  0.84168021247E+03  0.00000000000E+00 0. -1.
          1    1    1    2  502    0  0.30405024135E+02  0.36736123129E+02  0.11391041125E+03  0.12348923041E+03  0.00000000000E+00 0. -1.
         22    1    3    3    0    0  0.33381050221E+02 -0.51660364682E+01  0.31189305375E+02  0.45975593704E+02  0.00000000000E+00 0. -1.
         22    1    3    3    0    0 -0.51559100935E+02  0.29007447354E+02 -0.63050722061E+02  0.86459044892E+02  0.00000000000E+00 0. -1.
</event>
<event>
 7    1  0.6294601E-006  0.1054262E+03  0.7818608E-02  0.1287821E+00
          2   -1    0    0  502    0  0.00000000000E+00  0.00000000000E+00  0.90627747606E+02  0.90627747606E+02  0.00000000000E+00 0. -1.
          1   -1    0    0  501    0 -0.00000000000E+00 -0.00000000000E+00 -0.10699403090E+04  0.10699403090E+04  0.00000000000E+00 0. -1.
         25    2    1    2    0    0  0.35485327046E+02  0.15266502360E+02 -0.49193384805E+03  0.50903537459E+03  0.12500330875E+03 0.  0.
          2    1    1    2  501    0  0.68475304618E+02 -0.55812565961E+02 -0.52606389489E+03  0.53342959364E+03  0.00000000000E+00 0. -1.
          1    1    1    2  502    0 -0.10396063166E+03  0.40546063601E+02  0.38685181556E+02  0.11810308837E+03  0.00000000000E+00 0. -1.
         22    1    3    3    0    0  0.57610555677E+02  0.25242702746E+02 -0.11300607414E+03  0.12933113685E+03  0.00000000000E+00 0.  1.
         22    1    3    3    0    0 -0.22125228632E+02 -0.99762003863E+01 -0.37892777391E+03  0.37970423774E+03  0.00000000000E+00 0.  1.
</event>
<event>
 7    1  0.6294601E-006  0.6523707E+02  0.7818608E-02  0.1434553E+00
          2   -1    0    0  502    0  0.00000000000E+00  0.00000000000E+00  0.49998308587E+03  0.49998308587E+03  0.00000000000E+00 0. -1.
          1   -1    0    0  501    0 -0.00000000000E+00 -0.00000000000E+00 -0.10044663616E+04  0.10044663616E+04  0.00000000000E+00 0. -1.
         25    2    1    2    0    0 -0.98882299081E+02  0.92979117692E+01  0.10710912148E+03  0.19225824897E+03  0.12500684044E+03 0.  0.
          2    1    1    2  501    0  0.60224526433E+02 -0.24500049420E+02 -0.95955635842E+03  0.96175654456E+03  0.00000000000E+00 0. -1.
          1    1    1    2  502    0  0.38657772648E+02  0.15202137650E+02  0.34796396121E+03  0.35043465394E+03  0.00000000000E+00 0. -1.
         22    1    3    3    0    0 -0.82129473683E+01 -0.21117012885E+02  0.92840004670E+02  0.95564884789E+02  0.00000000000E+00 0. -1.
         22    1    3    3    0    0 -0.90669351713E+02  0.30414924655E+02  0.14269116812E+02  0.96693364179E+02  0.00000000000E+00 0. -1.
</event>
<event>
 7    1  0.6294601E-006  0.1300866E+03  0.7818608E-02  0.1282005E+00
          2   -1    0    0  502    0  0.00000000000E+00  0.00000000000E+00  0.21583540797E+04  0.21583540797E+04  0.00000000000E+00 0. -1.
          1   -1    0    0  501    0 -0.00000000000E+00 -0.00000000000E+00 -0.27425454519E+03  0.27425454519E+03  0.00000000000E+00 0. -1.
         25    2    1    2    0    0 -0.82876492407E+01 -0.16243005996E+03  0.59753476565E+02  0.21365306261E+03  0.12499977478E+03 0.  0.
          2    1    1    2  501    0  0.61417819134E+02  0.44140993399E+02 -0.18789192131E+03  0.20254369874E+03  0.00000000000E+00 0. -1.
          1    1    1    2  502    0 -0.53130169893E+02  0.11828906656E+03  0.20122379793E+04  0.20164118635E+04  0.00000000000E+00 0. -1.
         22    1    3    3    0    0 -0.32405106363E+02  0.76542560526E+01  0.11354221271E+02  0.35179495374E+02  0.00000000000E+00 0.  1.
         22    1    3    3    0    0  0.24117457122E+02 -0.17008431601E+03  0.48399255295E+02  0.17847356724E+03  0.00000000000E+00 0.  1.
</event>
<event>
 7    1  0.6294601E-006  0.9554445E+02  0.7818608E-02  0.1317682E+00
          2   -1    0    0  502    0  0.00000000000E+00  0.00000000000E+00  0.25460545095E+04  0.25460545095E+04  0.00000000000E+00 0. -1.
          1   -1    0    0  501    0 -0.00000000000E+00 -0.00000000000E+00 -0.18015303050E+03  0.18015303050E+03  0.00000000000E+00 0. -1.
         25    2    1    2    0    0  0.13237451253E+02 -0.29002387031E+02  0.96666411940E+03  0.97523366898E+03  0.12499928328E+03 0.  0.
          2    1    1    2  501    0  0.22731327416E+02  0.93794755736E+02 -0.16168239291E+03  0.18829595223E+03  0.00000000000E+00 0. -1.
          1    1    1    2  502    0 -0.35968778669E+02 -0.64792368705E+02  0.15609197525E+04  0.15626779188E+04  0.00000000000E+00 0. -1.
         22    1    3    3    0    0  0.93495210332E+00  0.48968785710E+02  0.43348111158E+03  0.43623925798E+03  0.00000000000E+00 0. -1.
         22    1    3    3    0    0  0.12302499149E+02 -0.77971172741E+02  0.53318300782E+03  0.53899441100E+03  0.00000000000E+00 0. -1.
</event>
<event>
 7    1  0.6294601E-006  0.5788729E+02  0.7818608E-02  0.1482097E+00
          2   -1    0    0  502    0  0.00000000000E+00  0.00000000000E+00  0.10838167843E+03  0.10838167843E+03  0.00000000000E+00 0. -1.
          1   -1    0    0  501    0 -0.00000000000E+00 -0.00000000000E+00 -0.42312790433E+03  0.42312790433E+03  0.00000000000E+00 0. -1.
         25    2    1    2    0    0  0.61218509623E+02 -0.32559274879E+02 -0.67627558891E+02  0.15813389691E+03  0.12500012131E+03 0.  0.
          2    1    1    2  501    0 -0.57666385254E+02 -0.36223373294E+00 -0.30299006439E+03  0.30842912041E+03  0.00000000000E+00 0. -1.
          1    1    1    2  502    0 -0.35521243690E+01  0.32921508612E+02  0.55871397377E+02  0.64946565434E+02  0.00000000000E+00 0. -1.
         22    1    3    3    0    0  0.25600749471E+02  0.53651079247E+01  0.34631924864E+02  0.43399919082E+02  0.00000000000E+00 0. -1.
         22    1    3    3    0    0  0.35617760151E+02 -0.37924382804E+02 -0.10225948375E+03  0.11473397782E+03  0.00000000000E+00 0. -1.
</event>
<event>
 7    1  0.6294601E-006  0.2920925E+02  0.7818608E-02  0.1624367E+00
          2   -1    0    0  502    0  0.00000000000E+00  0.00000000000E+00  0.14292355582E+03  0.14292355582E+03  0.00000000000E+00 0. -1.
          1   -1    0    0  501    0 -0.00000000000E+00 -0.00000000000E+00 -0.82459494405E+03  0.82459494405E+03  0.00000000000E+00 0. -1.
         25    2    1    2    0    0  0.18246769387E+02 -0.76686147411E+01 -0.17924140355E+03  0.21942445219E+03  0.12501142838E+03 0.  0.
          2    1    1    2  501    0 -0.32693624088E+01  0.29367089301E+02 -0.62349324942E+03  0.62419303643E+03  0.00000000000E+00 0. -1.
          1    1    1    2  502    0 -0.14977406978E+02 -0.21698474560E+02  0.12106326474E+03  0.12390101125E+03  0.00000000000E+00 0. -1.
         22    1    3    3    0    0 -0.19617849861E+02 -0.10807994190E+02 -0.18003372687E+03  0.18142165136E+03  0.00000000000E+00 0.  1.
         22    1    3    3    0    0  0.37864619248E+02  0.31393794484E+01  0.79232332420E+00  0.38002800822E+02  0.00000000000E+00 0.  1.
</event>
<event>
 7    1  0.6294601E-006  0.2553554E+03  0.7818608E-02  0.1202244E+00
          2   -1    0    0  502    0  0.00000000000E+00  0.00000000000E+00  0.77348794736E+03  0.77348794736E+03  0.00000000000E+00 0. -1.
          1   -1    0    0  501    0 -0.00000000000E+00 -0.00000000000E+00 -0.12118270994E+04  0.12118270994E+04  0.00000000000E+00 0. -1.
         25    2    1    2    0    0  0.10708105170E+02  0.28011573225E+03  0.94721942925E+02  0.32121681112E+03  0.12501402443E+03 0.  0.
          2    1    1    2  501    0 -0.86841566033E+02 -0.23918662030E+03 -0.10804071256E+04  0.11099690329E+04  0.00000000000E+00 0. -1.
          1    1    1    2  502    0  0.76133460863E+02 -0.40929111949E+02  0.54734603065E+03  0.55412920274E+03  0.00000000000E+00 0. -1.
         22    1    3    3    0    0 -0.31738265442E+02  0.10285655281E+03  0.87642059199E+02  0.13880892799E+03  0.00000000000E+00 0.  1.
         22    1    3    3    0    0  0.42446370612E+02  0.17725917945E+03  0.70798837265E+01  0.18240788313E+03  0.00000000000E+00 0.  1.
</event>
<event>
 7    1  0.6294601E-006  0.5648761E+02  0.7818608E-02  0.1503290E+00
          2   -1    0    0  502    0  0.00000000000E+00  0.00000000000E+00  0.14231356240E+04  0.14231356240E+04  0.00000000000E+00 0. -1.
          1   -1    0    0  501    0 -0.00000000000E+00 -0.00000000000E+00 -0.28610316472E+03  0.28610316472E+03  0.00000000000E+00 0. -1.
         25    2    1    2    0    0 -0.99537717907E+00  0.30378049324E+02 -0.12643461635E+03  0.18037743985E+03  0.12500596762E+03 0.  0.
          2    1    1    2  501    0 -0.18411879252E+02  0.22781063509E+02 -0.13049957891E+03  0.13374645509E+03  0.00000000000E+00 0. -1.
          1    1    1    2  502    0  0.19407256431E+02 -0.53159112833E+02  0.13939666546E+04  0.13951148938E+04  0.00000000000E+00 0. -1.
         22    1    3    3    0    0  0.48408888389E+02  0.35955383707E+02 -0.21077666611E+02  0.63878620229E+02  0.00000000000E+00 0. -1.
         22    1    3    3    0    0 -0.49404265568E+02 -0.55773343838E+01 -0.10535694974E+03  0.11649881963E+03  0.00000000000E+00 0. -1.
</event>
<event>
 7    1  0.6294601E-006  0.1068469E+03  0.7818608E-02  0.1325908E+00
          2   -1    0    0  502    0  0.00000000000E+00  0.00000000000E+00  0.33552586312E+04  0.33552586312E+04  0.00000000000E+00 0. -1.
          1   -1    0    0  501    0 -0.00000000000E+00 -0.00000000000E+00 -0.10197955357E+03  0.10197955357E+03  0.00000000000E+00 0. -1.
         25    2    1    2    0    0 -0.14751504080E+03  0.48075866328E+02  0.69308754439E+03  0.72115724561E+03  0.12500181008E+03 0.  0.
          2    1    1    2  501    0  0.10488963676E+03 -0.36262416219E+01 -0.56140550580E+02  0.11902414438E+03  0.00000000000E+00 0. -1.
          1    1    1    2  502    0  0.42625404045E+02 -0.44449624706E+02  0.26163320839E+04  0.26170567948E+04  0.00000000000E+00 0. -1.
         22    1    3    3    0    0 -0.11277085544E+03  0.81380023869E+02  0.38529191877E+03  0.40962157755E+03  0.00000000000E+00 0.  1.
         22    1    3    3    0    0 -0.34744185359E+02 -0.33304157541E+02  0.30779562562E+03  0.31153566806E+03  0.00000000000E+00 0.  1.
</event>
<event>
 7    1  0.6294601E-006  0.5342913E+02  0.7818608E-02  0.1491641E+00
          2   -1    0    0  502    0  0.00000000000E+00  0.00000000000E+00  0.20033894088E+04  0.20033894088E+04  0.00000000000E+00 0. -1.
          1   -1    0    0  501    0 -0.00000000000E+00 -0.00000000000E+00 -0.15583509584E+03  0.15583509584E+03  0.00000000000E+00 0. -1.
         25    2    1    2    0    0 -0.25869298942E+02 -0.73572867629E+02  0.67541375694E+01  0.14748703510E+03  0.12499847867E+03 0.  0.
          2    1    1    2  501    0  0.75205078345E+00  0.51318123277E+02 -0.77603733460E+02  0.93040070959E+02  0.00000000000E+00 0. -1.
          1    1    1    2  502    0  0.25117248158E+02  0.22254744351E+02  0.19184039088E+04  0.19186973986E+04  0.00000000000E+00 0. -1.
         22    1    3    3    0    0  0.50230016497E+02 -0.23809694233E+02 -0.49676596269E+01  0.55808903760E+02  0.00000000000E+00 0. -1.
         22    1    3    3    0    0 -0.76099315438E+02 -0.49763173395E+02  0.11721797196E+02  0.91678131340E+02  0.00000000000E+00 0. -1.
</event>
<event>
 7    1  0.6294601E-006  0.3551681E+02  0.7818608E-02  0.1545362E+00
          2   -1    0    0  502    0  0.00000000000E+00  0.00000000000E+00  0.32405597965E+03  0.32405597965E+03  0.00000000000E+00 0. -1.
          1   -1    0    0  501    0 -0.00000000000E+00 -0.00000000000E+00 -0.46764063936E+03  0.46764063936E+03  0.00000000000E+00 0. -1.
         25    2    1    2    0    0 -0.16306017021E+02 -0.67331792937E+02  0.81427169384E+02  0.16448678493E+03  0.12500424781E+03 0.  0.
          2    1    1    2  501    0  0.17080573686E+01  0.35281067656E+02 -0.42382853470E+03  0.42529789327E+03  0.00000000000E+00 0. -1.
          1    1    1    2  502    0  0.14597959652E+02  0.32050725281E+02  0.19881670561E+03  0.20191194082E+03  0.00000000000E+00 0. -1.
         22    1    3    3    0    0 -0.39778624254E+02 -0.63437277221E+02 -0.48057796252E+01  0.75031477438E+02  0.00000000000E+00 0.  1.
         22    1    3    3    0    0  0.23472607233E+02 -0.38945157159E+01  0.86232949009E+02  0.89455307488E+02  0.00000000000E+00 0.  1.
</event>
<event>
 7    1  0.6294601E-006  0.1725233E+03  0.7818608E-02  0.1305072E+00
          2   -1    0    0  502    0  0.00000000000E+00  0.00000000000E+00  0.22685823255E+04  0.22685823255E+04  0.00000000000E+00 0. -1.
          1   -1    0    0  501    0 -0.00000000000E+00 -0.00000000000E+00 -0.64298294695E+03  0.64298294695E+03  0.00000000000E+00 0. -1.
         25    2    1    2    0    0 -0.11366670675E+03 -0.15206280804E+03  0.98557086837E+02  0.24775293361E+03  0.12499919572E+03 0.  0.
          2    1    1    2  501    0  0.13185147025E+03  0.10980440208E+03 -0.55517538399E+03  0.58108650295E+03  0.00000000000E+00 0. -1.
          1    1    1    2  502    0 -0.18184763502E+02  0.42258405964E+02  0.20822176757E+04  0.20827258359E+04  0.00000000000E+00 0. -1.
         22    1    3    3    0    0 -0.86244375421E+02 -0.17120767793E+03  0.95487530328E+02  0.21416822762E+03  0.00000000000E+00 0.  1.
         22    1    3    3    0    0 -0.27422331330E+02  0.19144869892E+02  0.30695565086E+01  0.33584705982E+02  0.00000000000E+00 0.  1.
</event>
<event>
 7    1  0.6294601E-006  0.7112073E+02  0.7818608E-02  0.1468365E+00
          2   -1    0    0  502    0  0.00000000000E+00  0.00000000000E+00  0.73600663943E+02  0.73600663943E+02  0.00000000000E+00 0. -1.
          1   -1    0    0  501    0 -0.00000000000E+00 -0.00000000000E+00 -0.41257507470E+03  0.41257507470E+03  0.00000000000E+00 0. -1.
         25    2    1    2    0    0  0.21456283279E+02  0.81129784592E+02 -0.17721020782E+03  0.23253231979E+03  0.12500163179E+03 0.  0.
          2    1    1    2  501    0 -0.27439146085E+02 -0.11406887144E+02 -0.17910045182E+03  0.18154887952E+03  0.00000000000E+00 0. -1.
          1    1    1    2  502    0  0.59828628055E+01 -0.69722897448E+02  0.17336248889E+02  0.72094539331E+02  0.00000000000E+00 0. -1.
         22    1    3    3    0    0 -0.45174867844E+02  0.68796612947E+02 -0.87779810626E+02  0.12032887347E+03  0.00000000000E+00 0. -1.
         22    1    3    3    0    0  0.66631151124E+02  0.12333171645E+02 -0.89430397196E+02  0.11220344632E+03  0.00000000000E+00 0. -1.
</event>
<event>
 7    1  0.6294601E-006  0.9986257E+02  0.7818608E-02  0.1450295E+00
          2   -1    0    0  502    0  0.00000000000E+00  0.00000000000E+00  0.14730886964E+03  0.14730886964E+03  0.00000000000E+00 0. -1.
          1   -1    0    0  501    0 -0.00000000000E+00 -0.00000000000E+00 -0.18363602942E+03  0.18363602942E+03  0.00000000000E+00 0. -1.
         25    2    1    2    0    0 -0.54455747016E+02 -0.67065109927E+02 -0.52657527740E+02  0.16081448794E+03  0.12500130780E+03 0.  0.
          2    1    1    2  501    0  0.65339086523E+02  0.88606483867E+02 -0.33236685297E+02  0.11499992374E+03  0.00000000000E+00 0. -1.
          1    1    1    2  502    0 -0.10883339507E+02 -0.21541373940E+02  0.49567053261E+02  0.55130487383E+02  0.00000000000E+00 0. -1.
         22    1    3    3    0    0  0.80447805911E+01  0.90425834744E+01 -0.60803321967E+02  0.61996215795E+02  0.00000000000E+00 0. -1.
         22    1    3    3    0    0 -0.62500527607E+02 -0.76107693401E+02  0.81457942272E+01  0.98818272145E+02  0.00000000000E+00 0. -1.
</event>
<event>
 7    1  0.6294601E-006  0.1325310E+03  0.7818608E-02  0.1271116E+00
          2   -1    0    0  502    0  0.00000000000E+00  0.00000000000E+00  0.88841550755E+02  0.88841550755E+02  0.00000000000E+00 0. -1.
          1   -1    0    0  501    0 -0.00000000000E+00 -0.00000000000E+00 -0.21104451320E+04  0.21104451320E+04  0.00000000000E+00 0. -1.
         25    2    1    2    0    0  0.10734145067E+03  0.68615311095E+02 -0.95848650347E+03  0.97496328355E+03  0.12500711576E+03 0.  0.
          2    1    1    2  501    0 -0.59624840675E+02  0.56860644249E+02 -0.10851597957E+04  0.10882830683E+04  0.00000000000E+00 0. -1.
          1    1    1    2  502    0 -0.47716609991E+02 -0.12547595534E+03  0.22042717885E+02  0.13604033097E+03  0.00000000000E+00 0. -1.
         22    1    3    3    0    0 -0.12312667884E+02  0.14380486989E+02 -0.42918373478E+03  0.42960106890E+03  0.00000000000E+00 0.  1.
         22    1    3    3    0    0  0.11965411855E+03  0.54234824105E+02 -0.52930276869E+03  0.54536221465E+03  0.00000000000E+00 0.  1.
</event>
<event>
 7    1  0.6294601E-006  0.5015670E+02  0.7818608E-02  0.1503807E+00
          2   -1    0    0  502    0  0.00000000000E+00  0.00000000000E+00  0.38602648748E+03  0.38602648748E+03  0.00000000000E+00 0. -1.
          1   -1    0    0  501    0 -0.00000000000E+00 -0.00000000000E+00 -0.25981179457E+04  0.25981179457E+04  0.00000000000E+00 0. -1.
         25    2    1    2    0    0  0.54693250583E+02 -0.54244968459E+02 -0.10349999197E+04  0.10453623484E+04  0.12499494931E+03 0.  0.
          2    1    1    2  501    0 -0.24238144057E+02  0.41873093121E+02 -0.15568509798E+04  0.15576025863E+04  0.00000000000E+00 0. -1.
          1    1    1    2  502    0 -0.30455106525E+02  0.12371875338E+02  0.37975944130E+03  0.38117949849E+03  0.00000000000E+00 0. -1.
         22    1    3    3    0    0 -0.73264705988E+01 -0.78630615821E+02 -0.62738855213E+03  0.63233918608E+03  0.00000000000E+00 0. -1.
         22    1    3    3    0    0  0.62019721182E+02  0.24385647362E+02 -0.40761136757E+03  0.41302316229E+03  0.00000000000E+00 0. -1.
</event>
<event>
 7    1  0.6294601E-006  0.6678698E+02  0.7818608E-02  0.1442001E+00
          2   -1    0    0  502    0  0.00000000000E+00  0.00000000000E+00  0.19073066840E+03  0.19073066840E+03  0.00000000000E+00 0. -1.
          1   -1    0    0  501    0 -0.00000000000E+00 -0.00000000000E+00 -0.13506119545E+04  0.13506119545E+04  0.00000000000E+00 0. -1.
         25    2    1    2    0    0  0.28339571452E+02  0.67869968739E+01  0.86476311245E+02  0.15476545392E+03  0.12499999473E+03 0.  0.
          2    1    1    2  501    0 -0.66713104833E+02 -0.67767630125E+01 -0.13102942135E+04  0.13120089515E+04  0.00000000000E+00 0. -1.
          1    1    1    2  502    0  0.38373533381E+02 -0.10233861390E-01  0.63936616171E+02  0.74568217468E+02  0.00000000000E+00 0. -1.
         22    1    3    3    0    0 -0.83485817380E+01  0.16625941596E+02  0.10901920531E+03  0.11059524347E+03  0.00000000000E+00 0.  1.
         22    1    3    3    0    0  0.36688153190E+02 -0.98389447217E+01 -0.22542894069E+02  0.44170210445E+02  0.00000000000E+00 0.  1.
</event>
<event>
 7    1  0.6294601E-006  0.1081705E+03  0.7818608E-02  0.1428756E+00
          2   -1    0    0  502    0  0.00000000000E+00  0.00000000000E+00  0.45942087153E+03  0.45942087153E+03  0.00000000000E+00 0. -1.
          1   -1    0    0  501    0 -0.00000000000E+00 -0.00000000000E+00 -0.97855914930E+02  0.97855914930E+02  0.00000000000E+00 0. -1.
         25    2    1    2    0    0  0.95220006620E+02 -0.41783219920E+01 -0.13830719109E+02  0.15779911178E+03  0.12499985141E+03 0.  0.
          2    1    1    2  501    0  0.13133151557E+02  0.22641764673E+02  0.86738487533E+02  0.90601845439E+02  0.00000000000E+00 0. -1.
          1    1    1    2  502    0 -0.10835315818E+03 -0.18463442681E+02  0.28865718817E+03  0.30887582923E+03  0.00000000000E+00 0. -1.
         22    1    3    3    0    0  0.94846063963E+02  0.14184160676E+02 -0.56526716350E+02  0.11132042007E+03  0.00000000000E+00 0. -1.
         22    1    3    3    0    0  0.37394265750E+00 -0.18362482668E+02  0.42695997241E+02  0.46478691712E+02  0.00000000000E+00 0. -1.
</event>
<event>
 7    1  0.6294601E-006  0.3995153E+02  0.7818608E-02  0.1605091E+00
          2   -1    0    0  502    0  0.00000000000E+00  0.00000000000E+00  0.15516222822E+04  0.15516222822E+04  0.00000000000E+00 0. -1.
          1   -1    0    0  501    0 -0.00000000000E+00 -0.00000000000E+00 -0.43498584960E+03  0.43498584960E+03  0.00000000000E+00 0. -1.
         25    2    1    2    0    0 -0.25793786449E+01  0.59118920981E+02  0.86025774014E+02  0.16286606598E+03  0.12499288636E+03 0.  0.
          2    1    1    2  501    0  0.94971153583E+01 -0.38656775713E+02 -0.39548479861E+03  0.39748304044E+03  0.00000000000E+00 0. -1.
          1    1    1    2  502    0 -0.69177367134E+01 -0.20462145268E+02  0.14260954572E+04  0.14262590254E+04  0.00000000000E+00 0. -1.
         22    1    3    3    0    0  0.26508089482E+02  0.54666276388E+02  0.10949906640E+03  0.12522430325E+03  0.00000000000E+00 0. -1.
         22    1    3    3    0    0 -0.29087468127E+02  0.44526445926E+01 -0.23473292388E+02  0.37641762730E+02  0.00000000000E+00 0. -1.
</event>
<event>
 7    1  0.6294601E-006  0.1860181E+03  0.7818608E-02  0.1366271E+00
          2   -1    0    0  502    0  0.00000000000E+00  0.00000000000E+00  0.19435104677E+04  0.19435104677E+04  0.00000000000E+00 0. -1.
          1   -1    0    0  501    0 -0.00000000000E+00 -0.00000000000E+00 -0.40019490747E+03  0.40019490747E+03  0.00000000000E+00 0. -1.
         25    2    1    2    0    0  0.12980063288E+03  0.10142875756E+03  0.23210860615E+03  0.31087075976E+03  0.12502090653E+03 0.  0.
          2    1    1    2  501    0  0.14750649744E+02  0.20203347389E+02 -0.35503606843E+03  0.35591623565E+03  0.00000000000E+00 0. -1.
          1    1    1    2  502    0 -0.14455128263E+03 -0.12163210495E+03  0.16662430225E+04  0.16769183798E+04  0.00000000000E+00 0. -1.
         22    1    3    3    0    0  0.13314616943E+03  0.81682673440E+02  0.11997267998E+03  0.19696041611E+03  0.00000000000E+00 0. -1.
         22    1    3    3    0    0 -0.33455365440E+01  0.19746084123E+02  0.11213592617E+03  0.11391034365E+03  0.00000000000E+00 0. -1.
</event>
<event>
 7    1  0.6294601E-006  0.5981877E+02  0.7818608E-02  0.1420766E+00
          2   -1    0    0  502    0  0.00000000000E+00  0.00000000000E+00  0.25633065003E+02  0.25633065003E+02  0.00000000000E+00 0. -1.
          1   -1    0    0  501    0 -0.00000000000E+00 -0.00000000000E+00 -0.93652065869E+03  0.93652065869E+03  0.00000000000E+00 0. -1.
         25    2    1    2    0    0  0.31396610822E+02 -0.27652216745E+01 -0.21949836632E+03  0.25455468020E+03  0.12500063509E+03 0.  0.
          2    1    1    2  501    0  0.50890089840E+02 -0.31440174905E+02 -0.22782689070E+03  0.23554909884E+03  0.00000000000E+00 0. -1.
          1    1    1    2  502    0 -0.82286700662E+02  0.34205396579E+02 -0.46356233667E+03  0.47204994465E+03  0.00000000000E+00 0. -1.
         22    1    3    3    0    0  0.16788108268E+02  0.19752687356E+02  0.66954604618E+01  0.26773838496E+02  0.00000000000E+00 0.  1.
         22    1    3    3    0    0  0.14608502554E+02 -0.22517909031E+02 -0.22619382678E+03  0.22778084170E+03  0.00000000000E+00 0.  1.
</event>
<event>
 7    1  0.6294601E-006  0.1032305E+03  0.7818608E-02  0.1274809E+00
          2   -1    0    0  502    0  0.00000000000E+00  0.00000000000E+00  0.46950655997E+03  0.46950655997E+03  0.00000000000E+00 0. -1.
          1   -1    0    0  501    0 -0.00000000000E+00 -0.00000000000E+00 -0.88831675148E+03  0.88831675148E+03  0.00000000000E+00 0. -1.
         25    2    1    2    0    0 -0.10337075354E+03 -0.33112066794E+02 -0.25289648498E+03  0.30226405990E+03  0.12500003253E+03 0.  0.
          2    1    1    2  501    0  0.29432887491E+02  0.10515186043E+03 -0.59975060528E+03  0.60960970887E+03  0.00000000000E+00 0. -1.
          1    1    1    2  502    0  0.73937866051E+02 -0.72039793632E+02  0.43383689875E+03  0.44594954269E+03  0.00000000000E+00 0. -1.
         22    1    3    3    0    0 -0.39208694491E+02 -0.77701183189E+02 -0.14348709859E+03  0.16781937628E+03  0.00000000000E+00 0. -1.
         22    1    3    3    0    0 -0.64162059051E+02  0.44589116395E+02 -0.10940938639E+03  0.13444468362E+03  0.00000000000E+00 0. -1.
</event>
<event>
 7    1  0.6294601E-006  0.7925094E+02  0.7818608E-02  0.1413432E+00
          2   -1    0    0  502    0  0.00000000000E+00  0.00000000000E+00  0.14003753195E+03  0.14003753195E+03  0.00000000000E+00 0. -1.
          1   -1    0    0  501    0 -0.00000000000E+00 -0.00000000000E+00 -0.21009195185E+04  0.21009195185E+04  0.00000000000E+00 0. -1.
         25    2    1    2    0    0 -0.38649531496E+02  0.75036895495E+02 -0.15418641186E+03  0.21569484718E+03  0.12500598197E+03 0.  0.
          2    1    1    2  501    0  0.65371359767E+02 -0.45020314581E+02 -0.19114325220E+04  0.19130798545E+04  0.00000000000E+00 0. -1.
          1    1    1    2  502    0 -0.26721828271E+02 -0.30016580913E+02  0.10473694734E+03  0.11218234876E+03  0.00000000000E+00 0. -1.
         22    1    3    3    0    0  0.34094030747E+02  0.21546875217E+02 -0.40980050753E+01  0.40539664648E+02  0.00000000000E+00 0. -1.
         22    1    3    3    0    0 -0.72743562243E+02  0.53490020278E+02 -0.15008840679E+03  0.17515518253E+03  0.00000000000E+00 0. -1.
</event>
<event>
 7    1  0.6294601E-006  0.6595334E+02  0.7818608E-02  0.1520127E+00
          2   -1    0    0  502    0  0.00000000000E+00  0.00000000000E+00  0.12695531847E+04  0.12695531847E+04  0.00000000000E+00 0. -1.
          1   -1    0    0  501    0 -0.00000000000E+00 -0.00000000000E+00 -0.32989598558E+02  0.32989598558E+02  0.00000000000E+00 0. -1.
         25    2    1    2    0    0  0.14377540624E+02 -0.53387362139E+02  0.22004076835E+03  0.25903661836E+03  0.12500042323E+03 0.  0.
          2    1    1    2  501    0 -0.35359473629E+02  0.61195156404E+02  0.80128872350E+02  0.10684463359E+03  0.00000000000E+00 0. -1.
          1    1    1    2  502    0  0.20981933004E+02 -0.78077942648E+01  0.93639394543E+03  0.93666153129E+03  0.00000000000E+00 0. -1.
         22    1    3    3    0    0  0.44855356873E+02 -0.82179295456E+02  0.16668280112E+03  0.19117687054E+03  0.00000000000E+00 0.  1.
         22    1    3    3    0    0 -0.30477816248E+02  0.28791933317E+02  0.53357967230E+02  0.67859747821E+02  0.00000000000E+00 0.  1.
</event>
<event>
 7    1  0.6294601E-006  0.7487000E+02  0.7818608E-02  0.1458293E+00
          2   -1    0    0  502    0  0.00000000000E+00  0.00000000000E+00  0.39323421356E+03  0.39323421356E+03  0.00000000000E+00 0. -1.
          1   -1    0    0  501    0 -0.00000000000E+00 -0.00000000000E+00 -0.31089316655E+03  0.31089316655E+03  0.00000000000E+00 0. -1.
         25    2    1    2    0    0 -0.91100398412E+02 -0.25884416539E+02 -0.10062621247E+03  0.18633163170E+03  0.12499822688E+03 0.  0.
          2    1    1    2  501    0  0.71654605485E+02  0.25696608160E+01 -0.15903379546E+03  0.17444980293E+03  0.00000000000E+00 0. -1.
          1    1    1    2  502    0  0.19445792927E+02  0.23314755724E+02  0.34200105494E+03  0.34334594548E+03  0.00000000000E+00 0. -1.
         22    1    3    3    0    0 -0.11031715835E+03 -0.34361308393E+02 -0.40165739725E+02  0.12232686373E+03  0.00000000000E+00 0.  1.
         22    1    3    3    0    0  0.19216759940E+02  0.84768918531E+01 -0.60460472750E+02  0.64004767973E+02  0.00000000000E+00 0.  1.
</event>
<event>
 7    1  0.6294601E-006  0.8197610E+02  0.7818608E-02  0.1336114E+00
          2   -1    0    0  502    0  0.00000000000E+00  0.00000000000E+00  0.46770746984E+03  0.46770746984E+03  0.00000000000E+00 0. -1.
          1   -1    0    0  501    0 -0.00000000000E+00 -0.00000000000E+00 -0.11255312875E+03  0.11255312875E+03  0.00000000000E+00 0. -1.
         25    2    1    2    0    0  0.39377760987E+02 -0.21280236522E+02  0.80132210904E+02  0.15507977001E+03  0.12500042926E+03 0.  0.
          2    1    1    2  501    0 -0.25819629062E+02 -0.68695018724E+02 -0.49252210848E+02  0.88382346177E+02  0.00000000000E+00 0. -1.
          1    1    1    2  502    0 -0.13558131925E+02  0.89975255246E+02  0.32427434103E+03  0.33679848240E+03  0.00000000000E+00 0. -1.
         22    1    3    3    0    0  0.16410556966E+02 -0.62609064806E+02  0.32293479279E+01  0.64804552802E+02  0.00000000000E+00 0.  1.
         22    1    3    3    0    0  0.22967204021E+02  0.41328828284E+02  0.76902862976E+02  0.90275217207E+02  0.00000000000E+00 0.  1.
</event>
<event>
 7    1  0.6294601E-006  0.8929869E+02  0.7818608E-02  0.1352513E+00
          2   -1    0    0  502    0  0.00000000000E+00  0.00000000000E+00  0.79315784989E+03  0.79315784989E+03  0.00000000000E+00 0. -1.
          1   -1    0    0  501    0 -0.00000000000E+00 -0.00000000000E+00 -0.28140292155E+03  0.28140292155E+03  0.00000000000E+00 0. -1.
         25    2    1    2    0    0 -0.10516728725E+02 -0.55021479593E+02  0.78981744879E+02  0.15811819029E+03  0.12500112510E+03 0.  0.
          2    1    1    2  501    0  0.51081325715E+02 -0.28516082043E+02 -0.23503602248E+03  0.24220735049E+03  0.00000000000E+00 0. -1.
          1    1    1    2  502    0 -0.40564596989E+02  0.83537561636E+02  0.66780920593E+03  0.67423523066E+03  0.00000000000E+00 0. -1.
         22    1    3    3    0    0  0.11910415343E+02  0.17116473125E+02 -0.23102670510E+02  0.31121777432E+02  0.00000000000E+00 0. -1.
         22    1    3    3    0    0 -0.22427144068E+02 -0.72137952718E+02  0.10208441539E+03  0.12699641286E+03  0.00000000000E+00 0. -1.
</event>
<event>
 7    1  0.6294601E-006  0.1316660E+03  0.7818608E-02  0.1354715E+00
          2   -1    0    0  502    0  0.00000000000E+00  0.00000000000E+00  0.16833138571E+04  0.16833138571E+04  0.00000000000E+00 0. -1.
          1   -1    0    0  501    0 -0.00000000000E+00 -0.00000000000E+00 -0.23413418429E+04  0.23413418429E+04  0.00000000000E+00 0. -1.
         25    2    1    2    0    0 -0.34491912967E+02 -0.13870561672E+03  0.37022584131E+01  0.18992136800E+03  0.12500991615E+03 0.  0.
          2    1    1    2  501    0 -0.37767734367E+01  0.13149044265E+03 -0.22460686374E+04  0.22499174040E+04  0.00000000000E+00 0. -1.
          1    1    1    2  502    0  0.38268686404E+02  0.72151740691E+01  0.15843383933E+04  0.15848169281E+04  0.00000000000E+00 0. -1.
         22    1    3    3    0    0 -0.65259793482E+02 -0.72169144896E+02 -0.39296197039E+02  0.10493530017E+03  0.00000000000E+00 0.  1.
         22    1    3    3    0    0  0.30767880514E+02 -0.66536471825E+02  0.42998455452E+02  0.84986067832E+02  0.00000000000E+00 0.  1.
</event>
<event>
 7    1  0.6294601E-006  0.1055678E+03  0.7818608E-02  0.1335325E+00
          2   -1    0    0  502    0  0.00000000000E+00  0.00000000000E+00  0.80945116937E+03  0.80945116937E+03  0.00000000000E+00 0. -1.
          1   -1    0    0  501    0 -0.00000000000E+00 -0.00000000000E+00 -0.23654375781E+04  0.23654375781E+04  0.00000000000E+00 0. -1.
         25    2    1    2    0    0 -0.81092553403E+01  0.88108983954E+02 -0.16625770986E+03  0.22604413062E+03  0.12500147929E+03 0.  0.
          2    1    1    2  501    0 -0.57207511926E+02 -0.44492075125E+01 -0.21652921172E+04  0.21660522726E+04  0.00000000000E+00 0. -1.
          1    1    1    2  502    0  0.65316767267E+02 -0.83659776442E+02  0.77556341835E+03  0.78279234421E+03  0.00000000000E+00 0. -1.
         22    1    3    3    0    0  0.77727175832E+01 -0.14956182032E+02  0.11183875771E+02  0.20228237611E+02  0.00000000000E+00 0. -1.
         22    1    3    3    0    0 -0.15881972923E+02  0.10306516599E+03 -0.17744158563E+03  0.20581589301E+03  0.00000000000E+00 0. -1.
</event>
<event>
 7    1  0.6294601E-006  0.8672226E+02  0.7818608E-02  0.1328317E+00
          2   -1    0    0  502    0  0.00000000000E+00  0.00000000000E+00  0.16421026060E+04  0.16421026060E+04  0.00000000000E+00 0. -1.
          1   -1    0    0  501    0 -0.00000000000E+00 -0.00000000000E+00 -0.31085105623E+03  0.31085105623E+03  0.00000000000E+00 0. -1.
         25    2    1    2    0    0  0.21184319371E+02 -0.10320282853E+03 -0.64381397148E+02  0.17569287394E+03  0.12499368964E+03 0.  0.
          2    1    1    2  501    0  0.47165695826E+02  0.74125054245E+02 -0.17977886942E+03  0.20009889660E+03  0.00000000000E+00 0. -1.
          1    1    1    2  502    0 -0.68350015197E+02  0.29077774285E+02  0.15754118163E+04  0.15771618917E+04  0.00000000000E+00 0. -1.
         22    1    3    3    0    0  0.69765175255E+02 -0.38095535743E+02 -0.47892818705E+02  0.92801786650E+02  0.00000000000E+00 0.  1.
         22    1    3    3    0    0 -0.48580855884E+02 -0.65107292787E+02 -0.16488578443E+02  0.82891087286E+02  0.00000000000E+00 0.  1.
</event>
<event>
 7    1  0.6294601E-006  0.1279871E+03  0.7818608E-02  0.1295636E+00
          2   -1    0    0  502    0  0.00000000000E+00  0.00000000000E+00  0.95408441307E+03  0.95408441307E+03  0.00000000000E+00 0. -1.
          1   -1    0    0  501    0 -0.00000000000E+00 -0.00000000000E+00 -0.29808591624E+03  0.29808591624E+03  0.00000000000E+00 0. -1.
         25    2    1    2    0    0  0.18648050624E+03  0.38974913444E+02  0.18471935587E+03  0.29332988910E+03  0.12500864099E+03 0.  0.
          2    1    1    2  501    0 -0.12282849600E+03 -0.16075311282E+02 -0.22630147046E+03  0.25798761713E+03  0.00000000000E+00 0. -1.
          1    1    1    2  502    0 -0.63652010241E+02 -0.22899602162E+02  0.69758061142E+03  0.70085282308E+03  0.00000000000E+00 0. -1.
         22    1    3    3    0    0  0.20476689611E+03  0.41878591742E+02  0.16505281583E+03  0.26631885063E+03  0.00000000000E+00 0.  1.
         22    1    3    3    0    0 -0.18286389871E+02 -0.29036782978E+01  0.19666540036E+02  0.27011038468E+02  0.00000000000E+00 0.  1.
</event>
<event>
 7    1  0.6294601E-006  0.6452894E+02  0.7818608E-02  0.1490669E+00
          2   -1    0    0  502    0  0.00000000000E+00  0.00000000000E+00  0.23772498705E+04  0.23772498705E+04  0.00000000000E+00 0. -1.
          1   -1    0    0  501    0 -0.00000000000E+00 -0.00000000000E+00 -0.82232809406E+03  0.82232809406E+03  0.00000000000E+00 0. -1.
         25    2    1    2    0    0  0.42275434649E+02 -0.37669951345E+02  0.31960026724E+03  0.34781442082E+03  0.12499721155E+03 0.  0.
          2    1    1    2  501    0 -0.24895086156E+02  0.59589729942E+02 -0.80683498213E+03  0.80941546169E+03  0.00000000000E+00 0. -1.
          1    1    1    2  502    0 -0.17380348493E+02 -0.21919778597E+02  0.20421564913E+04  0.20423480820E+04  0.00000000000E+00 0. -1.
         22    1    3    3    0    0  0.17757828236E+02 -0.81975779331E+02  0.16437613689E+03  0.18453965222E+03  0.00000000000E+00 0.  1.
         22    1    3    3    0    0  0.24517606414E+02  0.44305827986E+02  0.15522413035E+03  0.16327476860E+03  0.00000000000E+00 0.  1.
</event>
<event>
 7    1  0.6294601E-006  0.9889931E+02  0.7818608E-02  0.1370061E+00
          2   -1    0    0  502    0  0.00000000000E+00  0.00000000000E+00  0.21102074640E+04  0.21102074640E+04  0.00000000000E+00 0. -1.
          1   -1    0    0  501    0 -0.00000000000E+00 -0.00000000000E+00 -0.44342034828E+03  0.44342034828E+03  0.00000000000E+00 0. -1.
         25    2    1    2    0    0  0.85738119952E+01 -0.69705836321E+02 -0.27083579832E+02  0.14591244841E+03  0.12499803373E+03 0.  0.
          2    1    1    2  501    0 -0.37977073395E+02 -0.25229004766E+02 -0.35425644430E+03  0.35717837156E+03  0.00000000000E+00 0. -1.
          1    1    1    2  502    0  0.29403261400E+02  0.94934841087E+02  0.20481271399E+04  0.20505369923E+04  0.00000000000E+00 0. -1.
         22    1    3    3    0    0 -0.36290335403E+02 -0.63428576995E+02 -0.56089693570E+02  0.92120717257E+02  0.00000000000E+00 0. -1.
         22    1    3    3    0    0  0.44864147398E+02 -0.62772593261E+01  0.29006113738E+02  0.53791731154E+02  0.00000000000E+00 0. -1.
</event>
<event>
 7    1  0.6294601E-006  0.4454739E+02  0.7818608E-02  0.1534476E+00
          2   -1    0    0  502    0  0.00000000000E+00  0.00000000000E+00  0.11661987818E+04  0.11661987818E+04  0.00000000000E+00 0. -1.
          1   -1    0    0  501    0 -0.00000000000E+00 -0.00000000000E+00 -0.11786504422E+02  0.11786504422E+02  0.00000000000E+00 0. -1.
         25    2    1    2    0    0  0.22166887868E+02 -0.38096037663E+02  0.55103451633E+03  0.56675115977E+03  0.12500063964E+03 0.  0.
          2    1    1    2  501    0  0.20626039952E+02  0.21978551061E+02  0.74256473572E+02  0.80140589580E+02  0.00000000000E+00 0. -1.
          1    1    1    2  502    0 -0.42792927820E+02  0.16117486602E+02  0.52912128750E+03  0.53109353690E+03  0.00000000000E+00 0. -1.
         22    1    3    3    0    0 -0.94838606140E+01 -0.61260069187E+02  0.13140721750E+03  0.14529486054E+03  0.00000000000E+00 0. -1.
         22    1    3    3    0    0  0.31650748482E+02  0.23164031524E+02  0.41962729883E+03  0.42145629923E+03  0.00000000000E+00 0. -1.
</event>
<event>
 7    1  0.6294601E-006  0.4829635E+02  0.7818608E-02  0.1463395E+00
          2   -1    0    0  502    0  0.00000000000E+00  0.00000000000E+00  0.10637904734E+04  0.10637904734E+04  0.00000000000E+00 0. -1.
          1   -1    0    0  501    0 -0.00000000000E+00 -0.00000000000E+00 -0.24324247203E+04  0.24324247203E+04  0.00000000000E+00 0. -1.
         25    2    1    2    0    0 -0.20434882770E+01 -0.91728603031E+02  0.20232070031E+03  0.25490456150E+03  0.12499742895E+03 0.  0.
          2    1    1    2  501    0  0.10319207709E+02  0.47135814294E+02 -0.24052749008E+04  0.24057588448E+04  0.00000000000E+00 0. -1.
          1    1    1    2  502    0 -0.82757194319E+01  0.44592788737E+02  0.83431995364E+03  0.83555178738E+03  0.00000000000E+00 0. -1.
         22    1    3    3    0    0 -0.15853834419E+02 -0.82445754113E+02  0.42280364332E+02  0.94001466185E+02  0.00000000000E+00 0.  1.
         22    1    3    3    0    0  0.13810346142E+02 -0.92828489183E+01  0.16004033597E+03  0.16090309532E+03  0.00000000000E+00 0.  1.
</event>
<event>
 7    1  0.6294601E-006  0.4018045E+02  0.7818608E-02  0.1537324E+00
          2   -1    0    0  502    0  0.00000000000E+00  0.00000000000E+00  0.17526052459E+04  0.17526052459E+04  0.00000000000E+00 0. -1.
          1   -1    0    0  501    0 -0.00000000000E+00 -0.00000000000E+00 -0.61634114663E+02  0.61634114663E+02  0.00000000000E+00 0. -1.
         25    2    1    2    0    0 -0.65022840827E+02  0.16567094464E+00  0.94174234829E+03  0.95222029662E+03  0.12496737755E+03 0.  0.
          2    1    1    2  501    0  0.36521959170E+02 -0.16399620045E+02 -0.48910377900E+02  0.63206218884E+02  0.00000000000E+00 0. -1.
          1    1    1    2  502    0  0.28500881657E+02  0.16233949100E+02  0.79813916083E+03  0.79881284504E+03  0.00000000000E+00 0. -1.
         22    1    3    3    0    0 -0.47162275310E+02  0.58649633481E+02  0.63481326152E+03  0.63925889648E+03  0.00000000000E+00 0. -1.
         22    1    3    3    0    0 -0.17860565518E+02 -0.58483962537E+02  0.30692908677E+03  0.31296140014E+03  0.00000000000E+00 0. -1.
</event>
<event>
 7    1  0.6294601E-006  0.5947850E+02  0.7818608E-02  0.1522848E+00
          2   -1    0    0  502    0  0.00000000000E+00  0.00000000000E+00  0.54018773882E+03  0.54018773882E+03  0.00000000000E+00 0. -1.
          1   -1    0    0  501    0 -0.00000000000E+00 -0.00000000000E+00 -0.15090454816E+04  0.15090454816E+04  0.00000000000E+00 0. -1.
         25    2    1    2    0    0 -0.42783734863E+02  0.53677056720E+02 -0.17498285314E+03  0.22573404572E+03  0.12500074447E+03 0.  0.
          2    1    1    2  501    0  0.18554989081E+02 -0.56370415516E+02 -0.13077251173E+04  0.13090710041E+04  0.00000000000E+00 0. -1.
          1    1    1    2  502    0  0.24228745781E+02  0.26933587959E+01  0.51385022762E+03  0.51442817062E+03  0.00000000000E+00 0. -1.
         22    1    3    3    0    0 -0.79048456800E+02  0.43339960755E+01 -0.11793215728E+03  0.14204026107E+03  0.00000000000E+00 0. -1.
         22    1    3    3    0    0  0.36264721938E+02  0.49343060645E+02 -0.57050695859E+02  0.83693784649E+02  0.00000000000E+00 0. -1.
</event>
<event>
 7    1  0.6294601E-006  0.4953635E+02  0.7818608E-02  0.1502590E+00
          2   -1    0    0  502    0  0.00000000000E+00  0.00000000000E+00  0.12125900889E+03  0.12125900889E+03  0.00000000000E+00 0. -1.
          1   -1    0    0  501    0 -0.00000000000E+00 -0.00000000000E+00 -0.39377737101E+03  0.39377737101E+03  0.00000000000E+00 0. -1.
         25    2    1    2    0    0  0.30706612196E+02 -0.18268788392E+02 -0.57228284389E+02  0.14202884915E+03  0.12498188986E+03 0.  0.
          2    1    1    2  501    0 -0.14195069907E+02 -0.30412251043E+02 -0.28467974407E+03  0.28665128938E+03  0.00000000000E+00 0. -1.
          1    1    1    2  502    0 -0.16511542290E+02  0.48681039435E+02  0.69389666338E+02  0.86356241371E+02  0.00000000000E+00 0. -1.
         22    1    3    3    0    0  0.72711493760E+01 -0.61816109871E+02  0.51163391114E+01  0.62452205555E+02  0.00000000000E+00 0.  1.
         22    1    3    3    0    0  0.23435462820E+02  0.43547321479E+02 -0.62344623501E+02  0.79576643590E+02  0.00000000000E+00 0.  1.
</event>
<event>
 7    1  0.6294601E-006  0.4983214E+02  0.7818608E-02  0.1487056E+00
          2   -1    0    0  502    0  0.00000000000E+00  0.00000000000E+00  0.23587565050E+04  0.23587565050E+04  0.00000000000E+00 0. -1.
          1   -1    0    0  501    0 -0.00000000000E+00 -0.00000000000E+00 -0.10627575587E+04  0.10627575587E+04  0.00000000000E+00 0. -1.
         25    2    1    2    0    0  0.57459581112E+02  0.54142430732E+02  0.22522289128E+02  0.14955040538E+03  0.12500025590E+03 0.  0.
          2    1    1    2  501    0 -0.45956787217E+02 -0.18818836058E+02 -0.99847454686E+03  0.99970875540E+03  0.00000000000E+00 0. -1.
          1    1    1    2  502    0 -0.11502793895E+02 -0.35323594674E+02  0.22719512040E+04  0.22722549029E+04  0.00000000000E+00 0. -1.
         22    1    3    3    0    0 -0.17152093012E+02  0.69426249360E+02  0.14492026829E+02  0.72967233992E+02  0.00000000000E+00 0. -1.
         22    1    3    3    0    0  0.74611674124E+02 -0.15283818627E+02  0.80302622989E+01  0.76583171389E+02  0.00000000000E+00 0. -1.
</event>
<event>
 7    1  0.6294601E-006  0.9856901E+02  0.7818608E-02  0.1286461E+00
          2   -1    0    0  502    0  0.00000000000E+00  0.00000000000E+00  0.19027324118E+03  0.19027324118E+03  0.00000000000E+00 0. -1.
          1   -1    0    0  501    0 -0.00000000000E+00 -0.00000000000E+00 -0.65088806190E+03  0.65088806190E+03  0.00000000000E+00 0. -1.
         25    2    1    2    0    0  0.19032878889E+02  0.59035129818E+01 -0.10177109798E+03  0.16241680322E+03  0.12499903856E+03 0.  0.
          2    1    1    2  501    0 -0.10198827302E+03  0.47334179582E+02 -0.49670391251E+03  0.50927095843E+03  0.00000000000E+00 0. -1.
          1    1    1    2  502    0  0.82955394127E+02 -0.53237692564E+02  0.13786018977E+03  0.16947354144E+03  0.00000000000E+00 0. -1.
         22    1    3    3    0    0 -0.13991551334E+02 -0.42131342716E+02 -0.93548439931E+02  0.10354769028E+03  0.00000000000E+00 0.  1.
         22    1    3    3    0    0  0.33024430223E+02  0.48034855698E+02 -0.82226580466E+01  0.58869112944E+02  0.00000000000E+00 0.  1.
</event>
<event>
 7    1  0.6294601E-006  0.2779355E+02  0.7818608E-02  0.1649053E+00
          2   -1    0    0  502    0  0.00000000000E+00  0.00000000000E+00  0.11889730261E+04  0.11889730261E+04  0.00000000000E+00 0. -1.
          1   -1    0    0  501    0 -0.00000000000E+00 -0.00000000000E+00 -0.10481043326E+03  0.10481043326E+03  0.00000000000E+00 0. -1.
         25    2    1    2    0    0 -0.10565313350E+02 -0.14201070415E+02  0.25650020705E+02  0.12879126961E+03  0.12496388006E+03 0.  0.
          2    1    1    2  501    0 -0.98183746864E+01  0.26958319510E+02 -0.49234527287E+02  0.56984121906E+02  0.00000000000E+00 0. -1.
          1    1    1    2  502    0  0.20383688037E+02 -0.12757249095E+02  0.11077470994E+04  0.11080080679E+04  0.00000000000E+00 0. -1.
         22    1    3    3    0    0 -0.94501192147E+01 -0.68015577153E+02  0.29692641732E+02  0.74813611473E+02  0.00000000000E+00 0.  1.
         22    1    3    3    0    0 -0.11151941356E+01  0.53814506738E+02 -0.40426210271E+01  0.53977658139E+02  0.00000000000E+00 0.  1.
</event>
<event>
 7    1  0.6294601E-006  0.6342461E+02  0.7818608E-02  0.1384421E+00
          2   -1    0    0  502    0  0.00000000000E+00  0.00000000000E+00  0.92222531615E+02  0.92222531615E+02  0.00000000000E+00 0. -1.
          1   -1    0    0  501    0 -0.00000000000E+00 -0.00000000000E+00 -0.65358057977E+03  0.65358057977E+03  0.00000000000E+00 0. -1.
         25    2    1    2    0    0  0.13407401700E+02  0.60882622189E+02 -0.26362549771E+03  0.29834556580E+03  0.12500088593E+03 0.  0.
          2    1    1    2  501    0  0.48520415200E+02 -0.48229540887E+02 -0.35538298764E+03  0.36190798169E+03  0.00000000000E+00 0. -1.
          1    1    1    2  502    0 -0.61927816900E+02 -0.12653081302E+02  0.57650437203E+02  0.85549563892E+02  0.00000000000E+00 0. -1.
         22    1    3    3    0    0 -0.42768599437E+02 -0.14777840214E+02 -0.93115500717E+02  0.10352793890E+03  0.00000000000E+00 0.  1.
         22    1    3    3    0    0  0.56176001138E+02  0.75660462403E+02 -0.17050999700E+03  0.19481762690E+03  0.00000000000E+00 0.  1.
</event>
<event>
 7    1  0.6294601E-006  0.1489037E+03  0.7818608E-02  0.1296938E+00
          2   -1    0    0  502    0  0.00000000000E+00  0.00000000000E+00  0.25948123419E+03  0.25948123419E+03  0.00000000000E+00 0. -1.
          1   -1    0    0  501    0 -0.00000000000E+00 -0.00000000000E+00 -0.51610662724E+03  0.51610662724E+03  0.00000000000E+00 0. -1.
         25    2    1    2    0    0  0.37654607008E+02 -0.89523769462E+02 -0.38901470797E+03  0.41998682347E+03  0.12499645652E+03 0.  0.
          2    1    1    2  501    0  0.39880137992E+02 -0.41347415090E+02 -0.77448498733E+02  0.96427714360E+02  0.00000000000E+00 0. -1.
          1    1    1    2  502    0 -0.77534744999E+02  0.13087118455E+03  0.20983781365E+03  0.25917332360E+03  0.00000000000E+00 0. -1.
         22    1    3    3    0    0 -0.22089887467E+02 -0.95558321216E+02 -0.25051115889E+03  0.26902638646E+03  0.00000000000E+00 0. -1.
         22    1    3    3    0    0  0.59744494475E+02  0.60345517541E+01 -0.13850354908E+03  0.15096043701E+03  0.00000000000E+00 0. -1.
</event>
<event>
 7    1  0.6294601E-006  0.6171816E+02  0.7818608E-02  0.1481956E+00
          2   -1    0    0  502    0  0.00000000000E+00  0.00000000000E+00  0.34574827114E+04  0.34574827114E+04  0.00000000000E+00 0. -1.
          1   -1    0    0  501    0 -0.00000000000E+00 -0.00000000000E+00 -0.26820155678E+02  0.26820155678E+02  0.00000000000E+00 0. -1.
         25    2    1    2    0    0 -0.11414312980E+01  0.82706465853E+02  0.26840010901E+03  0.30741759412E+03  0.12500118518E+03 0.  0.
          2    1    1    2  501    0  0.19639453780E+02 -0.24099042212E+02  0.27456275577E+02  0.41476729004E+02  0.00000000000E+00 0. -1.
          1    1    1    2  502    0 -0.18498022482E+02 -0.58607423641E+02  0.31348061712E+04  0.31354085440E+04  0.00000000000E+00 0. -1.
         22    1    3    3    0    0  0.60044549194E+02  0.33181304755E+02  0.97025681150E+02  0.11882899341E+03  0.00000000000E+00 0.  1.
         22    1    3    3    0    0 -0.61185980492E+02  0.49525161098E+02  0.17137442786E+03  0.18858860071E+03  0.00000000000E+00 0.  1.
</event>
<event>
 7    1  0.6294601E-006  0.3831853E+02  0.7818608E-02  0.1532897E+00
          2   -1    0    0  502    0  0.00000000000E+00  0.00000000000E+00  0.13187850994E+04  0.13187850994E+04  0.00000000000E+00 0. -1.
          1   -1    0    0  501    0 -0.00000000000E+00 -0.00000000000E+00 -0.24219312332E+03  0.24219312332E+03  0.00000000000E+00 0. -1.
         25    2    1    2    0    0  0.35365827003E+02  0.64509081380E+02 -0.20723960730E+02  0.14654884046E+03  0.12503966087E+03 0.  0.
          2    1    1    2  501    0 -0.18001049431E+02 -0.30488462633E+02 -0.15628565347E+03  0.16024602839E+03  0.00000000000E+00 0. -1.
          1    1    1    2  502    0 -0.17364777571E+02 -0.34020618747E+02  0.12536015903E+04  0.12541833539E+04  0.00000000000E+00 0. -1.
         22    1    3    3    0    0 -0.19341735980E+02 -0.27540596376E+02  0.10071794785E+02  0.35128738230E+02  0.00000000000E+00 0.  1.
         22    1    3    3    0    0  0.54707562982E+02  0.92049677756E+02 -0.30795755515E+02  0.11142010223E+03  0.00000000000E+00 0.  1.
</event>
<event>
 7    1  0.6294601E-006  0.6894465E+02  0.7818608E-02  0.1405304E+00
          2   -1    0    0  502    0  0.00000000000E+00  0.00000000000E+00  0.65943515510E+03  0.65943515510E+03  0.00000000000E+00 0. -1.
          1   -1    0    0  501    0 -0.00000000000E+00 -0.00000000000E+00 -0.39016369998E+03  0.39016369998E+03  0.00000000000E+00 0. -1.
         25    2    1    2    0    0 -0.20400532534E+02  0.55850971859E+01 -0.30279787195E+02  0.13034203787E+03  0.12499922514E+03 0.  0.
          2    1    1    2  501    0 -0.49002032159E+02  0.46548272400E+01 -0.30585952061E+03  0.30979495303E+03  0.00000000000E+00 0. -1.
          1    1    1    2  502    0  0.69402564693E+02 -0.10239924426E+02  0.60541076292E+03  0.60946186419E+03  0.00000000000E+00 0. -1.
         22    1    3    3    0    0 -0.33583494995E+02 -0.39792350931E+02  0.24880537644E+02  0.57708954956E+02  0.00000000000E+00 0.  1.
         22    1    3    3    0    0  0.13182962461E+02  0.45377448117E+02 -0.55160324839E+02  0.72633082911E+02  0.00000000000E+00 0.  1.
</event>
<event>
 7    1  0.6294601E-006  0.1987861E+03  0.7818608E-02  0.1324522E+00
          2   -1    0    0  502    0  0.00000000000E+00  0.00000000000E+00  0.34677201406E+04  0.34677201406E+04  0.00000000000E+00 0. -1.
          1   -1    0    0  501    0 -0.00000000000E+00 -0.00000000000E+00 -0.36945330452E+03  0.36945330452E+03  0.00000000000E+00 0. -1.
         25    2    1    2    0    0 -0.16409747437E+03  0.14023622006E+03  0.11562539298E+04  0.11828537653E+04  0.12500280506E+03 0.  0.
          2    1    1    2  501    0  0.16719321573E+03 -0.10686873381E+03 -0.32838141891E+03  0.38367806028E+03  0.00000000000E+00 0. -1.
          1    1    1    2  502    0 -0.30957413646E+01 -0.33367486252E+02  0.22703943252E+04  0.22706416196E+04  0.00000000000E+00 0. -1.
         22    1    3    3    0    0 -0.11176690693E+03  0.15833964792E+03  0.87650320627E+03  0.89767541806E+03  0.00000000000E+00 0. -1.
         22    1    3    3    0    0 -0.52330567440E+02 -0.18103427865E+02  0.27975072354E+03  0.28517834719E+03  0.00000000000E+00 0. -1.
</event>
<event>
 7    1  0.6294601E-006  0.1166650E+03  0.7818608E-02  0.1421051E+00
          2   -1    0    0  502    0  0.00000000000E+00  0.00000000000E+00  0.10352015427E+04  0.10352015427E+04  0.00000000000E+00 0. -1.
          1   -1    0    0  501    0 -0.00000000000E+00 -0.00000000000E+00 -0.18544089415E+04  0.18544089415E+04  0.00000000000E+00 0. -1.
         25    2    1    2    0    0 -0.99101330338E+02 -0.38825042140E+02  0.33612132207E+03  0.37407374637E+03  0.12500066801E+03 0.  0.
          2    1    1    2  501    0 -0.18940135175E+02  0.17430360312E+02 -0.18300513297E+04  0.18302323392E+04  0.00000000000E+00 0. -1.
          1    1    1    2  502    0  0.11804146551E+03  0.21394681828E+02  0.67472260882E+03  0.68530439867E+03  0.00000000000E+00 0. -1.
         22    1    3    3    0    0 -0.10106468179E+03  0.21096745111E+02  0.19244132306E+03  0.21838682511E+03  0.00000000000E+00 0. -1.
         22    1    3    3    0    0  0.19633514563E+01 -0.59921787251E+02  0.14367999902E+03  0.15568692127E+03  0.00000000000E+00 0. -1.
</event>
<event>
 7    1  0.6294601E-006  0.1195525E+03  0.7818608E-02  0.1309644E+00
          2   -1    0    0  502    0  0.00000000000E+00  0.00000000000E+00  0.75766523598E+03  0.75766523598E+03  0.00000000000E+00 0. -1.
          1   -1    0    0  501    0 -0.00000000000E+00 -0.00000000000E+00 -0.10751529038E+04  0.10751529038E+04  0.00000000000E+00 0. -1.
         25    2    1    2    0    0 -0.12236646417E+03 -0.97767035282E+02 -0.47786620675E+03  0.51817554836E+03  0.12497136720E+03 0.  0.
          2    1    1    2  501    0  0.10528050074E+03  0.36422527407E+02 -0.57035842276E+03  0.58113622736E+03  0.00000000000E+00 0. -1.
          1    1    1    2  502    0  0.17085963430E+02  0.61344507875E+02  0.73073696174E+03  0.73350636401E+03  0.00000000000E+00 0. -1.
         22    1    3    3    0    0  0.24158517130E+02 -0.29651409842E+02 -0.77234875999E+02  0.86186229330E+02  0.00000000000E+00 0. -1.
         22    1    3    3    0    0 -0.14652498130E+03 -0.68115625440E+02 -0.40063133075E+03  0.43198931903E+03  0.00000000000E+00 0. -1.
</event>
<event>
 7    1  0.6294601E-006  0.1131936E+03  0.7818608E-02  0.1384979E+00
          2   -1    0    0  502    0  0.00000000000E+00  0.00000000000E+00  0.53102467750E+03  0.53102467750E+03  0.00000000000E+00 0. -1.
          1   -1    0    0  501    0 -0.00000000000E+00 -0.00000000000E+00 -0.46776972716E+03  0.46776972716E+03  0.00000000000E+00 0. -1.
         25    2    1    2    0    0  0.71042131872E+02  0.41480282957E+02  0.32962523761E+02  0.15322723164E+03  0.12499783266E+03 0.  0.
          2    1    1    2  501    0  0.32752629906E+02  0.13049367806E+02 -0.39899847026E+03  0.40055311763E+03  0.00000000000E+00 0. -1.
          1    1    1    2  502    0 -0.10379476178E+03 -0.54529650763E+02  0.42929089684E+03  0.44501405539E+03  0.00000000000E+00 0. -1.
         22    1    3    3    0    0 -0.32536522870E+02  0.31861960694E+02  0.77901742362E+01  0.46200613355E+02  0.00000000000E+00 0.  1.
         22    1    3    3    0    0  0.10357865474E+03  0.96183222628E+01  0.25172349525E+02  0.10702661829E+03  0.00000000000E+00 0.  1.
</event>
<event>
 7    1  0.6294601E-006  0.6000890E+02  0.7818608E-02  0.1483606E+00
          2   -1    0    0  502    0  0.00000000000E+00  0.00000000000E+00  0.51724495552E+03  0.51724495552E+03  0.00000000000E+00 0. -1.
          1   -1    0    0  501    0 -0.00000000000E+00 -0.00000000000E+00 -0.18478204674E+04  0.18478204674E+04  0.00000000000E+00 0. -1.
         25    2    1    2    0    0  0.59302803193E+02 -0.77059111012E+01 -0.24576580992E+03  0.28213797576E+03  0.12499920204E+03 0.  0.
          2    1    1    2  501    0 -0.55430741913E+02 -0.23660555791E+02 -0.15827941104E+04  0.15839411557E+04  0.00000000000E+00 0. -1.
          1    1    1    2  502    0 -0.38720612794E+01  0.31366466892E+02  0.49798440836E+03  0.49898629146E+03  0.00000000000E+00 0. -1.
         22    1    3    3    0    0  0.77306881296E+02  0.20146652133E+01 -0.24961377613E+03  0.26131867519E+03  0.00000000000E+00 0.  1.
         22    1    3    3    0    0 -0.18004078103E+02 -0.97205763145E+01  0.38479662118E+01  0.20819300570E+02  0.00000000000E+00 0.  1.
</event>
<event>
 7    1  0.6294601E-006  0.9643236E+02  0.7818608E-02  0.1302982E+00
          2   -1    0    0  502    0  0.00000000000E+00  0.00000000000E+00  0.10056485852E+04  0.10056485852E+04  0.00000000000E+00 0. -1.
          1   -1    0    0  501    0 -0.00000000000E+00 -0.00000000000E+00 -0.65403032031E+03  0.65403032031E+03  0.00000000000E+00 0. -1.
         25    2    1    2    0    0 -0.14011767996E+03  0.97259505070E+02 -0.19835052900E+03  0.28993078562E+03  0.12499821011E+03 0.  0.
          2    1    1    2  501    0  0.64407735442E+02 -0.61112285168E+02 -0.40321739541E+03  0.41287690144E+03  0.00000000000E+00 0. -1.
          1    1    1    2  502    0  0.75709944518E+02 -0.36147219901E+02  0.95318618927E+03  0.95687121841E+03  0.00000000000E+00 0. -1.
         22    1    3    3    0    0 -0.13408526296E+03  0.22636489889E+02 -0.13832922276E+03  0.19397484963E+03  0.00000000000E+00 0.  1.
         22    1    3    3    0    0 -0.60324170017E+01  0.74623015180E+02 -0.60021306242E+02  0.95955935994E+02  0.00000000000E+00 0.  1.
</event>
<event>
 7    1  0.6294601E-006  0.1066669E+03  0.7818608E-02  0.1321594E+00
          2   -1    0    0  502    0  0.00000000000E+00  0.00000000000E+00  0.72633047305E+03  0.72633047305E+03  0.00000000000E+00 0. -1.
          1   -1    0    0  501    0 -0.00000000000E+00 -0.00000000000E+00 -0.73985063224E+02  0.73985063224E+02  0.00000000000E+00 0. -1.
         25    2    1    2    0    0 -0.70325288788E+02  0.33417706245E+02  0.17059145699E+03  0.22536438297E+03  0.12500108232E+03 0.  0.
          2    1    1    2  501    0  0.73168807871E+02 -0.97453074436E+02  0.39542970747E+02  0.12811878355E+03  0.00000000000E+00 0. -1.
          1    1    1    2  502    0 -0.28435190829E+01  0.64035368191E+02  0.44221098209E+03  0.44683236975E+03  0.00000000000E+00 0. -1.
         22    1    3    3    0    0 -0.21350107947E+02  0.74975030049E+02  0.12218665816E+03  0.14493675059E+03  0.00000000000E+00 0.  1.
         22    1    3    3    0    0 -0.48975180841E+02 -0.41557323804E+02  0.48404798830E+02  0.80427632378E+02  0.00000000000E+00 0.  1.
</event>
<event>
 7    1  0.6294601E-006  0.1506361E+03  0.7818608E-02  0.1201174E+00
          2   -1    0    0  502    0  0.00000000000E+00  0.00000000000E+00  0.11575519701E+04  0.11575519701E+04  0.00000000000E+00 0. -1.
          1   -1    0    0  501    0 -0.00000000000E+00 -0.00000000000E+00 -0.17734325289E+03  0.17734325289E+03  0.00000000000E+00 0. -1.
         25    2    1    2    0    0  0.11654596836E+03 -0.23384044970E+02  0.50091974075E+03  0.52978779494E+03  0.12499897877E+03 0.  0.
          2    1    1    2  501    0  0.62030232588E+02  0.13727154956E+03 -0.10499651490E+03  0.18361779928E+03  0.00000000000E+00 0. -1.
          1    1    1    2  502    0 -0.17857620095E+03 -0.11388750459E+03  0.58428549141E+03  0.62148962881E+03  0.00000000000E+00 0. -1.
         22    1    3    3    0    0  0.78443405926E+02 -0.74766541691E+02  0.32587206962E+03  0.34341812626E+03  0.00000000000E+00 0. -1.
         22    1    3    3    0    0  0.38102562433E+02  0.51382496720E+02  0.17504767113E+03  0.18636966867E+03  0.00000000000E+00 0. -1.
</event>
<event>
 7    1  0.6294601E-006  0.1704969E+03  0.7818608E-02  0.1317688E+00
          2   -1    0    0  502    0  0.00000000000E+00  0.00000000000E+00  0.21442274781E+04  0.21442274781E+04  0.00000000000E+00 0. -1.
          1   -1    0    0  501    0 -0.00000000000E+00 -0.00000000000E+00 -0.15204803899E+03  0.15204803899E+03  0.00000000000E+00 0. -1.
         25    2    1    2    0    0 -0.43779486994E+02 -0.13999026251E+03  0.59118587945E+03  0.62180229241E+03  0.12499371864E+03 0.  0.
          2    1    1    2  501    0  0.83745905007E+02  0.15126457079E+03 -0.81677161437E+02  0.19122109110E+03  0.00000000000E+00 0. -1.
          1    1    1    2  502    0 -0.39966418013E+02 -0.11274308287E+02  0.14826707211E+04  0.14832521336E+04  0.00000000000E+00 0. -1.
         22    1    3    3    0    0 -0.69121442551E+01 -0.26336276841E+02  0.36484561675E+03  0.36586022096E+03  0.00000000000E+00 0.  1.
         22    1    3    3    0    0 -0.36867342739E+02 -0.11365398566E+03  0.22634026270E+03  0.25594207145E+03  0.00000000000E+00 0.  1.
</event>
<event>
 7    1  0.6294601E-006  0.1228262E+03  0.7818608E-02  0.1283883E+00
          2   -1    0    0  502    0  0.00000000000E+00  0.00000000000E+00  0.13473749712E+04  0.13473749712E+04  0.00000000000E+00 0. -1.
          1   -1    0    0  501    0 -0.00000000000E+00 -0.00000000000E+00 -0.34210183357E+03  0.34210183357E+03  0.00000000000E+00 0. -1.
         25    2    1    2    0    0 -0.39816566835E+02 -0.38208170822E+02  0.14930723517E+03  0.20239243078E+03  0.12499928900E+03 0.  0.
          2    1    1    2  501    0 -0.38898348424E+02 -0.68406848174E+02 -0.30683017666E+03  0.31676069152E+03  0.00000000000E+00 0. -1.
          1    1    1    2  502    0  0.78714915258E+02  0.10661501900E+03  0.11627960791E+04  0.11703236825E+04  0.00000000000E+00 0. -1.
         22    1    3    3    0    0 -0.75766978259E+02 -0.52772191415E+02  0.12891408132E+03  0.15856979392E+03  0.00000000000E+00 0. -1.
         22    1    3    3    0    0  0.35950411424E+02  0.14564020593E+02  0.20393153854E+02  0.43822636862E+02  0.00000000000E+00 0. -1.
</event>
<event>
 7    1  0.6294601E-006  0.1632447E+03  0.7818608E-02  0.1276959E+00
          2   -1    0    0  502    0  0.00000000000E+00  0.00000000000E+00  0.19596256793E+04  0.19596256793E+04  0.00000000000E+00 0. -1.
          1   -1    0    0  501    0 -0.00000000000E+00 -0.00000000000E+00 -0.18186312477E+04  0.18186312477E+04  0.00000000000E+00 0. -1.
         25    2    1    2    0    0 -0.13298836388E+03 -0.16381846046E+03 -0.65140597732E+03  0.69604368015E+03  0.12499865794E+03 0.  0.
          2    1    1    2  501    0  0.79223561860E+02  0.13052548758E+03 -0.11392960448E+04  0.11494819500E+04  0.00000000000E+00 0. -1.
          1    1    1    2  502    0  0.53764802015E+02  0.33292972884E+02  0.19316964538E+04  0.19327312968E+04  0.00000000000E+00 0. -1.
         22    1    3    3    0    0 -0.10480238754E+03 -0.54750375893E+02 -0.44998535145E+03  0.46526117463E+03  0.00000000000E+00 0. -1.
         22    1    3    3    0    0 -0.28185976330E+02 -0.10906808457E+03 -0.20142062587E+03  0.23078250553E+03  0.00000000000E+00 0. -1.
</event>
<event>
 7    1  0.6294601E-006  0.7938449E+02  0.7818608E-02  0.1362790E+00
          2   -1    0    0  502    0  0.00000000000E+00  0.00000000000E+00  0.16775751220E+04  0.16775751220E+04  0.00000000000E+00 0. -1.
          1   -1    0    0  501    0 -0.00000000000E+00 -0.00000000000E+00 -0.65976058151E+02  0.65976058151E+02  0.00000000000E+00 0. -1.
         25    2    1    2    0    0 -0.91580936795E+02 -0.99414570371E+02  0.11467765830E+04  0.11614609024E+04  0.12499828639E+03 0.  0.
          2    1    1    2  501    0  0.62952260292E+02  0.46293389078E+02 -0.29925647434E+02  0.83675619642E+02  0.00000000000E+00 0. -1.
          1    1    1    2  502    0  0.28628676503E+02  0.53121181294E+02  0.49474812820E+03  0.49841465807E+03  0.00000000000E+00 0. -1.
         22    1    3    3    0    0 -0.35789287788E+02 -0.20794598343E+01  0.69635812380E+03  0.69728031225E+03  0.00000000000E+00 0. -1.
         22    1    3    3    0    0 -0.55791649007E+02 -0.97335110537E+02  0.45041845925E+03  0.46418059015E+03  0.00000000000E+00 0. -1.
</event>
<event>
 7    1  0.6294601E-006  0.1976829E+03  0.7818608E-02  0.1221327E+00
          2   -1    0    0  502    0  0.00000000000E+00  0.00000000000E+00  0.17128847649E+04  0.17128847649E+04  0.00000000000E+00 0. -1.
          1   -1    0    0  501    0 -0.00000000000E+00 -0.00000000000E+00 -0.83374484206E+02  0.83374484206E+02  0.00000000000E+00 0. -1.
         25    2    1    2    0    0 -0.31538689815E+02  0.15230279355E+03  0.15356096778E+03  0.25178563248E+03  0.12499681604E+03 0.  0.
          2    1    1    2  501    0 -0.90063653881E+02  0.13894731828E+02  0.50422229196E+02  0.10414857906E+03  0.00000000000E+00 0. -1.
          1    1    1    2  502    0  0.12160234370E+03 -0.16619752537E+03  0.14255270837E+04  0.14403250375E+04  0.00000000000E+00 0. -1.
         22    1    3    3    0    0 -0.79160288061E+02  0.97468491337E+02  0.82938749273E+02  0.15048353445E+03  0.00000000000E+00 0. -1.
         22    1    3    3    0    0  0.47621598246E+02  0.54834302208E+02  0.70622218505E+02  0.10130209803E+03  0.00000000000E+00 0. -1.
</event>
<event>
 7    1  0.6294601E-006  0.5122766E+02  0.7818608E-02  0.1493369E+00
          2   -1    0    0  502    0  0.00000000000E+00  0.00000000000E+00  0.52766571767E+03  0.52766571767E+03  0.00000000000E+00 0. -1.
          1   -1    0    0  501    0 -0.00000000000E+00 -0.00000000000E+00 -0.67531165822E+02  0.67531165822E+02  0.00000000000E+00 0. -1.
         25    2    1    2    0    0 -0.71737712586E+01 -0.33776722361E+02  0.21163230875E+03  0.24820245832E+03  0.12499558488E+03 0.  0.
          2    1    1    2  501    0  0.31058313658E+02 -0.15210008724E+02 -0.40294698758E+02  0.53100150288E+02  0.00000000000E+00 0. -1.
          1    1    1    2  502    0 -0.23884542399E+02  0.48986731085E+02  0.28879694185E+03  0.29389427489E+03  0.00000000000E+00 0. -1.
         22    1    3    3    0    0  0.13817512039E+02  0.40944154513E+02  0.12310973569E+03  0.13047357759E+03  0.00000000000E+00 0. -1.
         22    1    3    3    0    0 -0.20991283298E+02 -0.74720876874E+02  0.88522573063E+02  0.11772888073E+03  0.00000000000E+00 0. -1.
</event>
<event>
 7    1  0.6294601E-006  0.6486712E+02  0.7818608E-02  0.1508354E+00
          2   -1    0    0  502    0  0.00000000000E+00  0.00000000000E+00  0.58975407384E+03  0.58975407384E+03  0.00000000000E+00 0. -1.
          1   -1    0    0  501    0 -0.00000000000E+00 -0.00000000000E+00 -0.54618742538E+02  0.54618742538E+02  0.00000000000E+00 0. -1.
         25    2    1    2    0    0  0.61987619380E+01 -0.87479593820E+02  0.10141275899E+03  0.18330302004E+03  0.12499738191E+03 0.  0.
          2    1    1    2  501    0  0.25688224647E+01  0.24507721292E+02  0.20355840399E+01  0.24725914628E+02  0.00000000000E+00 0. -1.
          1    1    1    2  502    0 -0.87675844027E+01  0.62971872527E+02  0.43168698827E+03  0.43634388171E+03  0.00000000000E+00 0. -1.
         22    1    3    3    0    0  0.66348369401E+00 -0.11858093255E+03  0.65486845794E+02  0.13546366579E+03  0.00000000000E+00 0. -1.
         22    1    3    3    0    0  0.55352782440E+01  0.31101338734E+02  0.35925913199E+02  0.47839354254E+02  0.00000000000E+00 0. -1.
</event>
<event>
 7    1  0.6294601E-006  0.1252588E+03  0.7818608E-02  0.1268479E+00
          2   -1    0    0  502    0  0.00000000000E+00  0.00000000000E+00  0.11084411415E+04  0.11084411415E+04  0.00000000000E+00 0. -1.
          1   -1    0    0  501    0 -0.00000000000E+00 -0.00000000000E+00 -0.14697366833E+04  0.14697366833E+04  0.00000000000E+00 0. -1.
         25    2    1    2    0    0  0.10903195803E+03 -0.17376395774E+03  0.39617636354E+03  0.46331538174E+03  0.12499420405E+03 0.  0.
          2    1    1    2  501    0 -0.38585631415E+02  0.11867738155E+03 -0.14304930456E+04  0.14359260166E+04  0.00000000000E+00 0. -1.
          1    1    1    2  502    0 -0.70446326614E+02  0.55086576186E+02  0.67302114029E+03  0.67893642640E+03  0.00000000000E+00 0. -1.
         22    1    3    3    0    0  0.76484403612E+02 -0.17285287267E+03  0.38498765071E+03  0.42888631453E+03  0.00000000000E+00 0. -1.
         22    1    3    3    0    0  0.32547554417E+02 -0.91108507221E+00  0.11188712829E+02  0.34429067215E+02  0.00000000000E+00 0. -1.
</event>
<event>
 7    1  0.6294601E-006  0.1080583E+03  0.7818608E-02  0.1414344E+00
          2   -1    0    0  502    0  0.00000000000E+00  0.00000000000E+00  0.49521952314E+03  0.49521952314E+03  0.00000000000E+00 0. -1.
          1   -1    0    0  501    0 -0.00000000000E+00 -0.00000000000E+00 -0.25365009468E+03  0.25365009468E+03  0.00000000000E+00 0. -1.
         25    2    1    2    0    0 -0.54014840929E+02 -0.11831854280E+03  0.13972049504E+02  0.18093529265E+03  0.12500192538E+03 0.  0.
          2    1    1    2  501    0  0.24332957953E+02  0.16260911120E+02 -0.16173150731E+03  0.16435811671E+03  0.00000000000E+00 0. -1.
          1    1    1    2  502    0  0.29681882977E+02  0.10205763168E+03  0.38932888626E+03  0.40357620846E+03  0.00000000000E+00 0. -1.
         22    1    3    3    0    0 -0.56520594983E+02 -0.11102541987E+03 -0.36544570748E+02  0.12983345935E+03  0.00000000000E+00 0. -1.
         22    1    3    3    0    0  0.25057540540E+01 -0.72931229254E+01  0.50516620252E+02  0.51101833304E+02  0.00000000000E+00 0. -1.
</event>
<event>
 7    1  0.6294601E-006  0.1159491E+03  0.7818608E-02  0.1404940E+00
          2   -1    0    0  502    0  0.00000000000E+00  0.00000000000E+00  0.13530129239E+04  0.13530129239E+04  0.00000000000E+00 0. -1.
          1   -1    0    0  501    0 -0.00000000000E+00 -0.00000000000E+00 -0.19557852337E+03  0.19557852337E+03  0.00000000000E+00 0. -1.
         25    2    1    2    0    0  0.10972565246E+03 -0.52749574773E+02  0.18123736284E+03  0.25158295674E+03  0.12499906394E+03 0.  0.
          2    1    1    2  501    0  0.35773467183E+01  0.29133529657E+02 -0.15608789385E+03  0.15882377204E+03  0.00000000000E+00 0. -1.
          1    1    1    2  502    0 -0.11330299917E+03  0.23616045116E+02  0.11322849315E+04  0.11381847185E+04  0.00000000000E+00 0. -1.
         22    1    3    3    0    0  0.64892236136E+01 -0.69576027508E+02  0.71027224063E+02  0.99638346960E+02  0.00000000000E+00 0.  1.
         22    1    3    3    0    0  0.10323642884E+03  0.16826452735E+02  0.11021013877E+03  0.15194460978E+03  0.00000000000E+00 0.  1.
</event>
<event>
 7    1  0.6294601E-006  0.1230690E+03  0.7818608E-02  0.1316026E+00
          2   -1    0    0  502    0  0.00000000000E+00  0.00000000000E+00  0.21096780749E+04  0.21096780749E+04  0.00000000000E+00 0. -1.
          1   -1    0    0  501    0 -0.00000000000E+00 -0.00000000000E+00 -0.90492327488E+03  0.90492327488E+03  0.00000000000E+00 0. -1.
         25    2    1    2    0    0 -0.17588494117E+03 -0.21794348975E+02  0.38440633027E+03  0.44136608761E+03  0.12500116144E+03 0.  0.
          2    1    1    2  501    0  0.58334846621E+02  0.26382228488E+01 -0.87337724071E+03  0.87532720690E+03  0.00000000000E+00 0. -1.
          1    1    1    2  502    0  0.11755009455E+03  0.19156126126E+02  0.16937257104E+04  0.16979080553E+04  0.00000000000E+00 0. -1.
         22    1    3    3    0    0 -0.30691139771E+02 -0.13226980320E+02  0.21718450971E+03  0.21974077985E+03  0.00000000000E+00 0. -1.
         22    1    3    3    0    0 -0.14519380140E+03 -0.85673686552E+01  0.16722182056E+03  0.22162530776E+03  0.00000000000E+00 0. -1.
</event>
<event>
 7    1  0.6294601E-006  0.2931103E+02  0.7818608E-02  0.1627764E+00
          2   -1    0    0  502    0  0.00000000000E+00  0.00000000000E+00  0.22985344218E+04  0.22985344218E+04  0.00000000000E+00 0. -1.
          1   -1    0    0  501    0 -0.00000000000E+00 -0.00000000000E+00 -0.27093926721E+02  0.27093926721E+02  0.00000000000E+00 0. -1.
         25    2    1    2    0    0  0.25397511878E+02  0.37290298224E+02  0.11068194804E+04  0.11147681762E+04  0.12499249729E+03 0.  0.
          2    1    1    2  501    0 -0.24347610361E+02 -0.84120244049E+01 -0.15712035238E+02  0.30173437594E+02  0.00000000000E+00 0. -1.
          1    1    1    2  502    0 -0.10499015167E+01 -0.28878273819E+02  0.11803330499E+04  0.11806867347E+04  0.00000000000E+00 0. -1.
         22    1    3    3    0    0 -0.26113692966E+02 -0.21231243858E+02  0.68358382211E+03  0.68441181501E+03  0.00000000000E+00 0.  1.
         22    1    3    3    0    0  0.51511204844E+02  0.58521542081E+02  0.42323565834E+03  0.43035636117E+03  0.00000000000E+00 0.  1.
</event>
<event>
 7    1  0.6294601E-006  0.1359024E+03  0.7818608E-02  0.1420288E+00
          2   -1    0    0  502    0  0.00000000000E+00  0.00000000000E+00  0.75720887071E+03  0.75720887071E+03  0.00000000000E+00 0. -1.
          1   -1    0    0  501    0 -0.00000000000E+00 -0.00000000000E+00 -0.21094441837E+03  0.21094441837E+03  0.00000000000E+00 0. -1.
         25    2    1    2    0    0  0.47462184938E+02  0.14716811471E+03  0.44991853436E+03  0.49189528217E+03  0.12499267210E+03 0.  0.
          2    1    1    2  501    0 -0.50520903657E+02 -0.12515337313E+03 -0.16545196154E+03  0.21351833666E+03  0.00000000000E+00 0. -1.
          1    1    1    2  502    0  0.30587187189E+01 -0.22014741584E+02  0.26179787951E+03  0.26273967025E+03  0.00000000000E+00 0. -1.
         22    1    3    3    0    0 -0.29634024427E+02  0.68381058127E+02  0.98012883878E+02  0.12312867221E+03  0.00000000000E+00 0.  1.
         22    1    3    3    0    0  0.77096209365E+02  0.78787056586E+02  0.35190565048E+03  0.36876660996E+03  0.00000000000E+00 0.  1.
</event>
<event>
 7    1  0.6294601E-006  0.9474513E+02  0.7818608E-02  0.1332885E+00
          2   -1    0    0  502    0  0.00000000000E+00  0.00000000000E+00  0.53891768350E+03  0.53891768350E+03  0.00000000000E+00 0. -1.
          1   -1    0    0  501    0 -0.00000000000E+00 -0.00000000000E+00 -0.55941850703E+03  0.55941850703E+03  0.00000000000E+00 0. -1.
         25    2    1    2    0    0  0.71905566364E+02  0.15195885645E+02  0.84521361321E+01  0.14526476635E+03  0.12501635223E+03 0.  0.
          2    1    1    2  501    0 -0.83989346684E+02  0.48989448285E+02 -0.48384316237E+03  0.49351634438E+03  0.00000000000E+00 0. -1.
          1    1    1    2  502    0  0.12083780320E+02 -0.64185333931E+02  0.45489020272E+03  0.45955507979E+03  0.00000000000E+00 0. -1.
         22    1    3    3    0    0  0.76673808319E+02  0.60708440172E+02  0.15320891829E+02  0.98990491041E+02  0.00000000000E+00 0. -1.
         22    1    3    3    0    0 -0.47682419550E+01 -0.45512554526E+02 -0.68687556966E+01  0.46274275312E+02  0.00000000000E+00 0. -1.
</event>
<event>
 7    1  0.6294601E-006  0.4411814E+02  0.7818608E-02  0.1504270E+00
          2   -1    0    0  502    0  0.00000000000E+00  0.00000000000E+00  0.21287424826E+04  0.21287424826E+04  0.00000000000E+00 0. -1.
          1   -1    0    0  501    0 -0.00000000000E+00 -0.00000000000E+00 -0.14341006133E+03  0.14341006133E+03  0.00000000000E+00 0. -1.
         25    2    1    2    0    0 -0.49146322054E+02  0.49094727376E+02  0.70940456676E+03  0.72367440561E+03  0.12499661102E+03 0.  0.
          2    1    1    2  501    0  0.12534387820E+02 -0.42211942347E+02 -0.13246533214E+03  0.13959234640E+03  0.00000000000E+00 0. -1.
          1    1    1    2  502    0  0.36611934235E+02 -0.68827850294E+01  0.14083931866E+04  0.14088857919E+04  0.00000000000E+00 0. -1.
         22    1    3    3    0    0  0.10766342188E+02  0.10218234283E+02  0.50067021729E+01  0.15665040780E+02  0.00000000000E+00 0.  1.
         22    1    3    3    0    0 -0.59912664243E+02  0.38876493093E+02  0.70439786459E+03  0.70800936483E+03  0.00000000000E+00 0.  1.
</event>
<event>
 7    1  0.6294601E-006  0.2884499E+02  0.7818608E-02  0.1661854E+00
          2   -1    0    0  502    0  0.00000000000E+00  0.00000000000E+00  0.18065669013E+03  0.18065669013E+03  0.00000000000E+00 0. -1.
          1   -1    0    0  501    0 -0.00000000000E+00 -0.00000000000E+00 -0.12558799381E+03  0.12558799381E+03  0.00000000000E+00 0. -1.
         25    2    1    2    0    0  0.56101617483E+01  0.15326630872E+02 -0.20734905812E+02  0.12775793662E+03  0.12500309805E+03 0.  0.
          2    1    1    2  501    0 -0.18626204086E+02  0.10868144289E+02 -0.47284992946E+02  0.51970401161E+02  0.00000000000E+00 0. -1.
          1    1    1    2  502    0  0.13016042337E+02 -0.26194775161E+02  0.12308859508E+03  0.12651634615E+03  0.00000000000E+00 0. -1.
         22    1    3    3    0    0 -0.55560336157E+01  0.66306587430E+02 -0.32813353752E+02  0.74189953704E+02  0.00000000000E+00 0.  1.
         22    1    3    3    0    0  0.11166195364E+02 -0.50979956558E+02  0.12078447941E+02  0.53567982921E+02  0.00000000000E+00 0.  1.
</event>
<event>
 7    1  0.6294601E-006  0.7684737E+02  0.7818608E-02  0.1343742E+00
          2   -1    0    0  502    0  0.00000000000E+00  0.00000000000E+00  0.38582887950E+03  0.38582887950E+03  0.00000000000E+00 0. -1.
          1   -1    0    0  501    0 -0.00000000000E+00 -0.00000000000E+00 -0.92323160183E+03  0.92323160183E+03  0.00000000000E+00 0. -1.
         25    2    1    2    0    0  0.59217282382E+02  0.43501567399E+02 -0.40433360669E+03  0.42954680224E+03  0.12500286762E+03 0.  0.
          2    1    1    2  501    0  0.80163476259E+01 -0.80719266743E+02 -0.49902575275E+03  0.50557547780E+03  0.00000000000E+00 0. -1.
          1    1    1    2  502    0 -0.67233630008E+02  0.37217699344E+02  0.36595663710E+03  0.37393820130E+03  0.00000000000E+00 0. -1.
         22    1    3    3    0    0 -0.37358062418E+02  0.24259811875E+02 -0.95153726944E+02  0.10506376660E+03  0.00000000000E+00 0. -1.
         22    1    3    3    0    0  0.96575344800E+02  0.19241755524E+02 -0.30917987975E+03  0.32448303564E+03  0.00000000000E+00 0. -1.
</event>
<event>
 7    1  0.6294601E-006  0.4539188E+02  0.7818608E-02  0.1497160E+00
          2   -1    0    0  502    0  0.00000000000E+00  0.00000000000E+00  0.23667827206E+03  0.23667827206E+03  0.00000000000E+00 0. -1.
          1   -1    0    0  501    0 -0.00000000000E+00 -0.00000000000E+00 -0.11843510871E+03  0.11843510871E+03  0.00000000000E+00 0. -1.
         25    2    1    2    0    0  0.21439558408E+02  0.63706969917E+02  0.13362213735E+03  0.19493263327E+03  0.12500249294E+03 0.  0.
          2    1    1    2  501    0 -0.30688588403E+02 -0.22442258703E+02 -0.76750136833E+02  0.85650615513E+02  0.00000000000E+00 0. -1.
          1    1    1    2  502    0  0.92490299956E+01 -0.41264711214E+02  0.61371162828E+02  0.74530131988E+02  0.00000000000E+00 0. -1.
         22    1    3    3    0    0 -0.49219928658E+02  0.17926557154E+02  0.26561967087E+02  0.58732452052E+02  0.00000000000E+00 0. -1.
         22    1    3    3    0    0  0.70659487066E+02  0.45780412762E+02  0.10706017027E+03  0.13620018121E+03  0.00000000000E+00 0. -1.
</event>
<event>
 7    1  0.6294601E-006  0.1616152E+03  0.7818608E-02  0.1262499E+00
          2   -1    0    0  502    0  0.00000000000E+00  0.00000000000E+00  0.84767911027E+03  0.84767911027E+03  0.00000000000E+00 0. -1.
          1   -1    0    0  501    0 -0.00000000000E+00 -0.00000000000E+00 -0.50507409848E+03  0.50507409848E+03  0.00000000000E+00 0. -1.
         25    2    1    2    0    0  0.98393724583E+02 -0.41494891769E+02  0.99795648557E+02  0.19232137154E+03  0.12500074960E+03 0.  0.
          2    1    1    2  501    0 -0.16716556941E+03  0.15653127989E+02 -0.44141871868E+03  0.47227093200E+03  0.00000000000E+00 0. -1.
          1    1    1    2  502    0  0.68771844828E+02  0.25841763781E+02  0.68422808191E+03  0.68816090522E+03  0.00000000000E+00 0. -1.
         22    1    3    3    0    0  0.74398847884E+02  0.35048499908E+02  0.35755653267E+02  0.89677492454E+02  0.00000000000E+00 0. -1.
         22    1    3    3    0    0  0.23994876699E+02 -0.76543391677E+02  0.64039995290E+02  0.10264387909E+03  0.00000000000E+00 0. -1.
</event>
<event>
 7    1  0.6294601E-006  0.5637346E+02  0.7818608E-02  0.1477866E+00
          2   -1    0    0  502    0  0.00000000000E+00  0.00000000000E+00  0.32074456373E+04  0.32074456373E+04  0.00000000000E+00 0. -1.
          1   -1    0    0  501    0 -0.00000000000E+00 -0.00000000000E+00 -0.45615783368E+03  0.45615783368E+03  0.00000000000E+00 0. -1.
         25    2    1    2    0    0  0.70269570505E+02  0.43751021872E+02  0.83717228405E+03  0.85049047794E+03  0.12499862167E+03 0.  0.
          2    1    1    2  501    0 -0.35013824927E+02 -0.11666548007E+01 -0.44849226636E+03  0.44985846886E+03  0.00000000000E+00 0. -1.
          1    1    1    2  502    0 -0.35255745578E+02 -0.42584367072E+02  0.23626077859E+04  0.23632545242E+04  0.00000000000E+00 0. -1.
         22    1    3    3    0    0  0.54341344873E+02  0.40169354560E+02  0.16748112818E+03  0.18060035190E+03  0.00000000000E+00 0. -1.
         22    1    3    3    0    0  0.15928225632E+02  0.35816673128E+01  0.66969115587E+03  0.66989012604E+03  0.00000000000E+00 0. -1.
</event>
<event>
 7    1  0.6294601E-006  0.7148189E+02  0.7818608E-02  0.1376249E+00
          2   -1    0    0  502    0  0.00000000000E+00  0.00000000000E+00  0.27059328680E+04  0.27059328680E+04  0.00000000000E+00 0. -1.
          1   -1    0    0  501    0 -0.00000000000E+00 -0.00000000000E+00 -0.10727428716E+03  0.10727428716E+03  0.00000000000E+00 0. -1.
         25    2    1    2    0    0 -0.11783432423E+03 -0.32016222848E+02  0.97268007342E+03  0.98825157000E+03  0.12499869555E+03 0.  0.
          2    1    1    2  501    0  0.58444345857E+02  0.40160996567E+02 -0.86260799305E+02  0.11166724096E+03  0.00000000000E+00 0. -1.
          1    1    1    2  502    0  0.59389978376E+02 -0.81447737190E+01  0.17122393067E+04  0.17132883442E+04  0.00000000000E+00 0. -1.
         22    1    3    3    0    0 -0.12552911783E+03 -0.42145067245E+01  0.91681436133E+03  0.92537770377E+03  0.00000000000E+00 0.  1.
         22    1    3    3    0    0  0.76947935956E+01 -0.27801716123E+02  0.55865712090E+02  0.62873866234E+02  0.00000000000E+00 0.  1.
</event>
<event>
 7    1  0.6294601E-006  0.7512591E+02  0.7818608E-02  0.1472487E+00
          2   -1    0    0  502    0  0.00000000000E+00  0.00000000000E+00  0.46069908313E+02  0.46069908313E+02  0.00000000000E+00 0. -1.
          1   -1    0    0  501    0 -0.00000000000E+00 -0.00000000000E+00 -0.11261567691E+04  0.11261567691E+04  0.00000000000E+00 0. -1.
         25    2    1    2    0    0 -0.60934605538E+02  0.77949349550E+02 -0.36265660976E+03  0.39614879286E+03  0.12499968894E+03 0.  0.
          2    1    1    2  501    0  0.20646288442E+02 -0.17881612974E+02 -0.70148112313E+03  0.70201266898E+03  0.00000000000E+00 0. -1.
          1    1    1    2  502    0  0.40288317096E+02 -0.60067736576E+02 -0.15949127861E+02  0.74065215528E+02  0.00000000000E+00 0. -1.
         22    1    3    3    0    0 -0.17813362962E+02  0.68989291132E+02 -0.68925157065E+02  0.99133826050E+02  0.00000000000E+00 0. -1.
         22    1    3    3    0    0 -0.43121242576E+02  0.89600584179E+01 -0.29373145269E+03  0.29701496681E+03  0.00000000000E+00 0. -1.
</event>
<event>
 7    1  0.6294601E-006  0.5206585E+02  0.7818608E-02  0.1543714E+00
          2   -1    0    0  502    0  0.00000000000E+00  0.00000000000E+00  0.19578357796E+04  0.19578357796E+04  0.00000000000E+00 0. -1.
          1   -1    0    0  501    0 -0.00000000000E+00 -0.00000000000E+00 -0.34760351464E+02  0.34760351464E+02  0.00000000000E+00 0. -1.
         25    2    1    2    0    0 -0.70945858877E+02  0.25256769827E+02  0.50778966613E+03  0.52834326150E+03  0.12500015051E+03 0.  0.
          2    1    1    2  501    0  0.23088744571E+02 -0.75183038312E+01 -0.17894961486E+02  0.30163631495E+02  0.00000000000E+00 0. -1.
          1    1    1    2  502    0  0.47857114306E+02 -0.17738465996E+02  0.14331807235E+04  0.14340892380E+04  0.00000000000E+00 0. -1.
         22    1    3    3    0    0 -0.28493259982E+02 -0.35677861840E+02  0.36060321833E+03  0.36348240227E+03  0.00000000000E+00 0. -1.
         22    1    3    3    0    0 -0.42452598895E+02  0.60934631667E+02  0.14718644780E+03  0.16486085923E+03  0.00000000000E+00 0. -1.
</event>
<event>
 7    1  0.6294601E-006  0.1064954E+03  0.7818608E-02  0.1270762E+00
          2   -1    0    0  502    0  0.00000000000E+00  0.00000000000E+00  0.25632869396E+04  0.25632869396E+04  0.00000000000E+00 0. -1.
          1   -1    0    0  501    0 -0.00000000000E+00 -0.00000000000E+00 -0.47376099616E+03  0.47376099616E+03  0.00000000000E+00 0. -1.
         25    2    1    2    0    0  0.54641182950E+02 -0.95782591471E+02 -0.21289421303E+03  0.27038574911E+03  0.12499817469E+03 0.  0.
          2    1    1    2  501    0 -0.11636744384E+03  0.90004618278E+01 -0.21625268423E+03  0.24573891376E+03  0.00000000000E+00 0. -1.
          1    1    1    2  502    0  0.61726260891E+02  0.86782129643E+02  0.25186728407E+04  0.25209232729E+04  0.00000000000E+00 0. -1.
         22    1    3    3    0    0  0.91583928572E+02 -0.42408757759E+02 -0.11602479948E+03  0.15377864872E+03  0.00000000000E+00 0.  1.
         22    1    3    3    0    0 -0.36942745622E+02 -0.53373833711E+02 -0.96869413559E+02  0.11660710039E+03  0.00000000000E+00 0.  1.
</event>
<event>
 7    1  0.6294601E-006  0.6374935E+02  0.7818608E-02  0.1511612E+00
          2   -1    0    0  502    0  0.00000000000E+00  0.00000000000E+00  0.55505924069E+03  0.55505924069E+03  0.00000000000E+00 0. -1.
          1   -1    0    0  501    0 -0.00000000000E+00 -0.00000000000E+00 -0.80246856513E+03  0.80246856513E+03  0.00000000000E+00 0. -1.
         25    2    1    2    0    0  0.11066298077E+02 -0.69110910964E+02  0.19596237199E+02  0.14461091978E+03  0.12501809725E+03 0.  0.
          2    1    1    2  501    0 -0.31422795445E+02  0.55430348716E+02 -0.73827007118E+03  0.74101458395E+03  0.00000000000E+00 0. -1.
          1    1    1    2  502    0  0.20356497369E+02  0.13680562248E+02  0.47126450953E+03  0.47190230209E+03  0.00000000000E+00 0. -1.
         22    1    3    3    0    0  0.13118069993E+02 -0.79495879195E+02  0.61519262811E+02  0.10137207834E+03  0.00000000000E+00 0. -1.
         22    1    3    3    0    0 -0.20517719161E+01  0.10384968231E+02 -0.41923025612E+02  0.43238841446E+02  0.00000000000E+00 0. -1.
</event>
<event>
 7    1  0.6294601E-006  0.1165165E+03  0.7818608E-02  0.1344379E+00
          2   -1    0    0  502    0  0.00000000000E+00  0.00000000000E+00  0.27801240844E+04  0.27801240844E+04  0.00000000000E+00 0. -1.
          1   -1    0    0  501    0 -0.00000000000E+00 -0.00000000000E+00 -0.37062025364E+03  0.37062025364E+03  0.00000000000E+00 0. -1.
         25    2    1    2    0    0  0.65215504145E+02 -0.14389173756E+03  0.54240546367E+03  0.57860753968E+03  0.12500041533E+03 0.  0.
          2    1    1    2  501    0 -0.29143648569E+02  0.11212455292E+03 -0.34273270459E+03  0.36178304882E+03  0.00000000000E+00 0. -1.
          1    1    1    2  502    0 -0.36071855576E+02  0.31767184644E+02  0.22098310717E+04  0.22103537495E+04  0.00000000000E+00 0. -1.
         22    1    3    3    0    0  0.67461515240E+02 -0.11404184479E+03  0.23526263561E+03  0.27000945561E+03  0.00000000000E+00 0.  1.
         22    1    3    3    0    0 -0.22460110947E+01 -0.29849892772E+02  0.30714282806E+03  0.30859808407E+03  0.00000000000E+00 0.  1.
</event>
<event>
 7    1  0.6294601E-006  0.2637285E+03  0.7818608E-02  0.1272631E+00
          2   -1    0    0  502    0  0.00000000000E+00  0.00000000000E+00  0.57331965332E+03  0.57331965332E+03  0.00000000000E+00 0. -1.
          1   -1    0    0  501    0 -0.00000000000E+00 -0.00000000000E+00 -0.75127883840E+03  0.75127883840E+03  0.00000000000E+00 0. -1.
         25    2    1    2    0    0 -0.17009487877E+02  0.23499909179E+03 -0.46896416324E+03  0.53950558089E+03  0.12499995835E+03 0.  0.
          2    1    1    2  501    0 -0.31254394243E+02  0.26231766581E+02 -0.21219105884E+03  0.21607866204E+03  0.00000000000E+00 0. -1.
          1    1    1    2  502    0  0.48263882120E+02 -0.26123085837E+03  0.50319603700E+03  0.56901424880E+03  0.00000000000E+00 0. -1.
         22    1    3    3    0    0 -0.53434886392E+02  0.17125280201E+03 -0.40167417317E+03  0.43991470841E+03  0.00000000000E+00 0.  1.
         22    1    3    3    0    0  0.36425398515E+02  0.63746289785E+02 -0.67289990063E+02  0.99590872478E+02  0.00000000000E+00 0.  1.
</event>
<event>
 7    1  0.6294601E-006  0.5289624E+02  0.7818608E-02  0.1487242E+00
          2   -1    0    0  502    0  0.00000000000E+00  0.00000000000E+00  0.71337500255E+03  0.71337500255E+03  0.00000000000E+00 0. -1.
          1   -1    0    0  501    0 -0.00000000000E+00 -0.00000000000E+00 -0.26364925387E+02  0.26364925387E+02  0.00000000000E+00 0. -1.
         25    2    1    2    0    0 -0.75769540981E+02  0.51602827507E+01  0.39349949128E+03  0.41980295530E+03  0.12500007911E+03 0.  0.
          2    1    1    2  501    0  0.45315259231E+02 -0.22311514133E+02  0.41102955912E+02  0.65120882724E+02  0.00000000000E+00 0. -1.
          1    1    1    2  502    0  0.30454281751E+02  0.17151231382E+02  0.25240762997E+03  0.25481608992E+03  0.00000000000E+00 0. -1.
         22    1    3    3    0    0  0.12553844407E+01  0.16707595137E+02  0.28892923090E+03  0.28941461642E+03  0.00000000000E+00 0. -1.
         22    1    3    3    0    0 -0.77024925422E+02 -0.11547312387E+02  0.10457026038E+03  0.13038833888E+03  0.00000000000E+00 0. -1.
</event>
<event>
 7    1  0.6294601E-006  0.8669796E+02  0.7818608E-02  0.1368842E+00
          2   -1    0    0  502    0  0.00000000000E+00  0.00000000000E+00  0.34027052855E+03  0.34027052855E+03  0.00000000000E+00 0. -1.
          1   -1    0    0  501    0 -0.00000000000E+00 -0.00000000000E+00 -0.43816449945E+03  0.43816449945E+03  0.00000000000E+00 0. -1.
         25    2    1    2    0    0 -0.60736072331E+00 -0.11755584883E+03  0.13030857858E+03  0.21546931835E+03  0.12500781983E+03 0.  0.
          2    1    1    2  501    0 -0.34828817388E+02  0.78767803647E+02 -0.38660289590E+03  0.39607980576E+03  0.00000000000E+00 0. -1.
          1    1    1    2  502    0  0.35436178111E+02  0.38788045178E+02  0.15840034643E+03  0.16688590389E+03  0.00000000000E+00 0. -1.
         22    1    3    3    0    0 -0.21598971426E+01 -0.38667746707E+01 -0.23659093569E+02  0.24070102005E+02  0.00000000000E+00 0.  1.
         22    1    3    3    0    0  0.15525364193E+01 -0.11368907416E+03  0.15396767215E+03  0.19139921635E+03  0.00000000000E+00 0.  1.
</event>
<event>
 7    1  0.6294601E-006  0.1341271E+03  0.7818608E-02  0.1269913E+00
          2   -1    0    0  502    0  0.00000000000E+00  0.00000000000E+00  0.39157487367E+03  0.39157487367E+03  0.00000000000E+00 0. -1.
          1   -1    0    0  501    0 -0.00000000000E+00 -0.00000000000E+00 -0.52895079814E+03  0.52895079814E+03  0.00000000000E+00 0. -1.
         25    2    1    2    0    0 -0.76395515288E+02  0.25170673729E+02 -0.86786564772E+02  0.17212647342E+03  0.12500310978E+03 0.  0.
          2    1    1    2  501    0 -0.61832713278E+02 -0.54408126429E+02 -0.38060337006E+03  0.38941296069E+03  0.00000000000E+00 0. -1.
          1    1    1    2  502    0  0.13822822857E+03  0.29237452700E+02  0.33001401036E+03  0.35898623769E+03  0.00000000000E+00 0. -1.
         22    1    3    3    0    0 -0.78396636384E+02  0.36766904009E+02 -0.11360355323E+03  0.14284118851E+03  0.00000000000E+00 0.  1.
         22    1    3    3    0    0  0.20011210968E+01 -0.11596230280E+02  0.26816988462E+02  0.29285284915E+02  0.00000000000E+00 0.  1.
</event>
<event>
 7    1  0.6294601E-006  0.1621780E+03  0.7818608E-02  0.1293662E+00
          2   -1    0    0  502    0  0.00000000000E+00  0.00000000000E+00  0.16208315093E+03  0.16208315093E+03  0.00000000000E+00 0. -1.
          1   -1    0    0  501    0 -0.00000000000E+00 -0.00000000000E+00 -0.16233177294E+04  0.16233177294E+04  0.00000000000E+00 0. -1.
         25    2    1    2    0    0 -0.12128556804E+03 -0.23775225175E+02 -0.26247069011E+03  0.31589768082E+03  0.12500012492E+03 0.  0.
          2    1    1    2  501    0 -0.35488806152E+02 -0.41194387728E+02 -0.12801424074E+04  0.12812966152E+04  0.00000000000E+00 0. -1.
          1    1    1    2  502    0  0.15677437419E+03  0.64969612903E+02  0.81378519052E+02  0.18820658428E+03  0.00000000000E+00 0. -1.
         22    1    3    3    0    0 -0.45162525651E+02  0.11665037351E+02 -0.21382975159E+03  0.21885814923E+03  0.00000000000E+00 0. -1.
         22    1    3    3    0    0 -0.76123042388E+02 -0.35440262526E+02 -0.48640938526E+02  0.97039531589E+02  0.00000000000E+00 0. -1.
</event>
<event>
 7    1  0.6294601E-006  0.2706078E+02  0.7818608E-02  0.1685649E+00
          2   -1    0    0  502    0  0.00000000000E+00  0.00000000000E+00  0.32228551747E+03  0.32228551747E+03  0.00000000000E+00 0. -1.
          1   -1    0    0  501    0 -0.00000000000E+00 -0.00000000000E+00 -0.39027551056E+03  0.39027551056E+03  0.00000000000E+00 0. -1.
         25    2    1    2    0    0 -0.24584455762E+01  0.20867162272E+02  0.12324610574E+02  0.12735477278E+03  0.12500343878E+03 0.  0.
          2    1    1    2  501    0 -0.19576341090E+02 -0.48795312730E+01 -0.33171909702E+03  0.33233206629E+03  0.00000000000E+00 0. -1.
          1    1    1    2  502    0  0.22034786666E+02 -0.15987630999E+02  0.25140449335E+03  0.25287418897E+03  0.00000000000E+00 0. -1.
         22    1    3    3    0    0 -0.42232481278E+02  0.57430555316E+01  0.53324126015E+02  0.68264394650E+02  0.00000000000E+00 0. -1.
         22    1    3    3    0    0  0.39774035701E+02  0.15124106740E+02 -0.40999515441E+02  0.59090378126E+02  0.00000000000E+00 0. -1.
</event>
<event>
 7    1  0.6294601E-006  0.1594224E+03  0.7818608E-02  0.1198370E+00
          2   -1    0    0  502    0  0.00000000000E+00  0.00000000000E+00  0.59405494807E+03  0.59405494807E+03  0.00000000000E+00 0. -1.
          1   -1    0    0  501    0 -0.00000000000E+00 -0.00000000000E+00 -0.51026331443E+03  0.51026331443E+03  0.00000000000E+00 0. -1.
         25    2    1    2    0    0  0.19283215925E+01  0.17719366740E+02  0.86637610596E+02  0.15314025700E+03  0.12501267281E+03 0.  0.
          2    1    1    2  501    0  0.15598846577E+03 -0.39577669150E+02 -0.44922681823E+03  0.47718290787E+03  0.00000000000E+00 0. -1.
          1    1    1    2  502    0 -0.15791678736E+03  0.21858302410E+02  0.44638084128E+03  0.47399509763E+03  0.00000000000E+00 0. -1.
         22    1    3    3    0    0  0.37561070935E+01  0.70906545412E+02  0.62933425410E+02  0.94881307730E+02  0.00000000000E+00 0.  1.
         22    1    3    3    0    0 -0.18277855010E+01 -0.53187178672E+02  0.23704185186E+02  0.58258949271E+02  0.00000000000E+00 0.  1.
</event>
<event>
 7    1  0.6294601E-006  0.2422701E+03  0.7818608E-02  0.1225019E+00
          2   -1    0    0  502    0  0.00000000000E+00  0.00000000000E+00  0.25443390736E+04  0.25443390736E+04  0.00000000000E+00 0. -1.
          1   -1    0    0  501    0 -0.00000000000E+00 -0.00000000000E+00 -0.10604368908E+03  0.10604368908E+03  0.00000000000E+00 0. -1.
         25    2    1    2    0    0  0.41546627838E+02 -0.29904868802E+03  0.44494466102E+03  0.55204752156E+03  0.12499789840E+03 0.  0.
          2    1    1    2  501    0  0.12248371214E+02  0.70489459511E+02 -0.17635709087E+02  0.73687208758E+02  0.00000000000E+00 0. -1.
          1    1    1    2  502    0 -0.53794999052E+02  0.22855922851E+03  0.20109864326E+04  0.20246480323E+04  0.00000000000E+00 0. -1.
         22    1    3    3    0    0  0.23882001158E+02 -0.30658174533E+03  0.42118689673E+03  0.52149891517E+03  0.00000000000E+00 0. -1.
         22    1    3    3    0    0  0.17664626680E+02  0.75330573165E+01  0.23757764294E+02  0.30548606392E+02  0.00000000000E+00 0. -1.
</event>
<event>
 7    1  0.6294601E-006  0.7190990E+02  0.7818608E-02  0.1418585E+00
          2   -1    0    0  502    0  0.00000000000E+00  0.00000000000E+00  0.52873084490E+03  0.52873084490E+03  0.00000000000E+00 0. -1.
          1   -1    0    0  501    0 -0.00000000000E+00 -0.00000000000E+00 -0.18622192301E+03  0.18622192301E+03  0.00000000000E+00 0. -1.
         25    2    1    2    0    0  0.50362047551E+02  0.54484070127E+02  0.21167774945E+03  0.25678244552E+03  0.12499961993E+03 0.  0.
          2    1    1    2  501    0 -0.38510828883E+02  0.18117015000E+02 -0.15618363068E+03  0.16187846264E+03  0.00000000000E+00 0. -1.
          1    1    1    2  502    0 -0.11851218668E+02 -0.72601085128E+02  0.28701480312E+03  0.29629185975E+03  0.00000000000E+00 0. -1.
         22    1    3    3    0    0 -0.22261245441E+02  0.67944653291E+02  0.10343847055E+03  0.12574401039E+03  0.00000000000E+00 0.  1.
         22    1    3    3    0    0  0.72623292992E+02 -0.13460583164E+02  0.10823927890E+03  0.13103843513E+03  0.00000000000E+00 0.  1.
</event>
<event>
 7    1  0.6294601E-006  0.1177229E+03  0.7818608E-02  0.1297628E+00
          2   -1    0    0  502    0  0.00000000000E+00  0.00000000000E+00  0.62626000675E+03  0.62626000675E+03  0.00000000000E+00 0. -1.
          1   -1    0    0  501    0 -0.00000000000E+00 -0.00000000000E+00 -0.31981826053E+03  0.31981826053E+03  0.00000000000E+00 0. -1.
         25    2    1    2    0    0  0.60372238977E+02 -0.66547136084E+02  0.53981659974E+02  0.16313403818E+03  0.12500146495E+03 0.  0.
          2    1    1    2  501    0 -0.45406398102E+02 -0.56132553551E+02 -0.25273831781E+03  0.26284836284E+03  0.00000000000E+00 0. -1.
          1    1    1    2  502    0 -0.14965840875E+02  0.12267968964E+03  0.50519840406E+03  0.52009586626E+03  0.00000000000E+00 0. -1.
         22    1    3    3    0    0  0.12673992028E+02  0.23239401917E+02  0.55460194346E+02  0.61453503011E+02  0.00000000000E+00 0.  1.
         22    1    3    3    0    0  0.47698246949E+02 -0.89786538001E+02 -0.14785343728E+01  0.10168053517E+03  0.00000000000E+00 0.  1.
</event>
<event>
 7    1  0.6294601E-006  0.8185745E+02  0.7818608E-02  0.1394756E+00
          2   -1    0    0  502    0  0.00000000000E+00  0.00000000000E+00  0.21381363460E+04  0.21381363460E+04  0.00000000000E+00 0. -1.
          1   -1    0    0  501    0 -0.00000000000E+00 -0.00000000000E+00 -0.11906272000E+04  0.11906272000E+04  0.00000000000E+00 0. -1.
         25    2    1    2    0    0  0.90625352833E+01  0.12422431538E+03  0.20981073045E+03  0.27415185766E+03  0.12499955348E+03 0.  0.
          2    1    1    2  501    0  0.52280932368E+01 -0.44764893425E+02 -0.11571583905E+04  0.11580357375E+04  0.00000000000E+00 0. -1.
          1    1    1    2  502    0 -0.14290628520E+02 -0.79459421960E+02  0.18948568061E+04  0.18965759509E+04  0.00000000000E+00 0. -1.
         22    1    3    3    0    0  0.49336261568E+02  0.77877353478E+02  0.18729314667E+03  0.20875265670E+03  0.00000000000E+00 0. -1.
         22    1    3    3    0    0 -0.40273726285E+02  0.46346961906E+02  0.22517583776E+02  0.65399200958E+02  0.00000000000E+00 0. -1.
</event>
<event>
 7    1  0.6294601E-006  0.1119397E+03  0.7818608E-02  0.1351486E+00
          2   -1    0    0  502    0  0.00000000000E+00  0.00000000000E+00  0.34413869284E+03  0.34413869284E+03  0.00000000000E+00 0. -1.
          1   -1    0    0  501    0 -0.00000000000E+00 -0.00000000000E+00 -0.35226931844E+03  0.35226931844E+03  0.00000000000E+00 0. -1.
         25    2    1    2    0    0  0.91292613673E+02 -0.61752497440E+01 -0.14626361734E+02  0.15560084932E+03  0.12500087532E+03 0.  0.
          2    1    1    2  501    0  0.12406022585E+02 -0.45414587108E+02 -0.25262743981E+03  0.25697668661E+03  0.00000000000E+00 0. -1.
          1    1    1    2  502    0 -0.10369863626E+03  0.51589836852E+02  0.25912317594E+03  0.28383047535E+03  0.00000000000E+00 0. -1.
         22    1    3    3    0    0  0.12028518008E+03  0.61993121211E+01  0.92982590547E+00  0.12044841466E+03  0.00000000000E+00 0. -1.
         22    1    3    3    0    0 -0.28992566409E+02 -0.12374561865E+02 -0.15556187639E+02  0.35152434655E+02  0.00000000000E+00 0. -1.
</event>
<event>
 7    1  0.6294601E-006  0.8326208E+02  0.7818608E-02  0.1452434E+00
          2   -1    0    0  502    0  0.00000000000E+00  0.00000000000E+00  0.24773050713E+04  0.24773050713E+04  0.00000000000E+00 0. -1.
          1   -1    0    0  501    0 -0.00000000000E+00 -0.00000000000E+00 -0.41665949984E+02  0.41665949984E+02  0.00000000000E+00 0. -1.
         25    2    1    2    0    0  0.69165800765E+02  0.16900531403E+02  0.10793070829E+04  0.10888514173E+04  0.12499637541E+03 0.  0.
          2    1    1    2  501    0 -0.83610426607E+02  0.76616491539E+01  0.11221515424E+02  0.84707300238E+02  0.00000000000E+00 0. -1.
          1    1    1    2  502    0  0.14444625842E+02 -0.24562180557E+02  0.13451105230E+04  0.13454123037E+04  0.00000000000E+00 0. -1.
         22    1    3    3    0    0  0.49276368903E+02  0.28350857605E+02  0.10504209256E+04  0.10519581991E+04  0.00000000000E+00 0.  1.
         22    1    3    3    0    0  0.19889431862E+02 -0.11450326202E+02  0.28886157312E+02  0.36893218268E+02  0.00000000000E+00 0.  1.
</event>
<event>
 7    1  0.6294601E-006  0.5996640E+02  0.7818608E-02  0.1469989E+00
          2   -1    0    0  502    0  0.00000000000E+00  0.00000000000E+00  0.10973467355E+03  0.10973467355E+03  0.00000000000E+00 0. -1.
          1   -1    0    0  501    0 -0.00000000000E+00 -0.00000000000E+00 -0.69032794808E+03  0.69032794808E+03  0.00000000000E+00 0. -1.
         25    2    1    2    0    0 -0.22907382308E+02 -0.32483781955E+02 -0.37787706845E+03  0.39999464300E+03  0.12499876527E+03 0.  0.
          2    1    1    2  501    0  0.14687058169E+02  0.66335085047E+02 -0.29432214058E+03  0.30206220489E+03  0.00000000000E+00 0. -1.
          1    1    1    2  502    0  0.82203241392E+01 -0.33851303092E+02  0.91605934501E+02  0.98005773737E+02  0.00000000000E+00 0. -1.
         22    1    3    3    0    0  0.23985651650E+02 -0.53722285911E+02 -0.30588153612E+03  0.31148821748E+03  0.00000000000E+00 0.  1.
         22    1    3    3    0    0 -0.46893033958E+02  0.21238503957E+02 -0.71995532333E+02  0.88506425529E+02  0.00000000000E+00 0.  1.
</event>
<event>
 7    1  0.6294601E-006  0.9901107E+02  0.7818608E-02  0.1320344E+00
          2   -1    0    0  502    0  0.00000000000E+00  0.00000000000E+00  0.10255048086E+04  0.10255048086E+04  0.00000000000E+00 0. -1.
          1   -1    0    0  501    0 -0.00000000000E+00 -0.00000000000E+00 -0.46374102319E+03  0.46374102319E+03  0.00000000000E+00 0. -1.
         25    2    1    2    0    0 -0.14368942291E+03 -0.79189788166E+02  0.34691527198E+03  0.40360150018E+03  0.12500516873E+03 0.  0.
          2    1    1    2  501    0  0.93009265513E+02  0.31152272625E+02 -0.42795860910E+03  0.43905553027E+03  0.00000000000E+00 0. -1.
          1    1    1    2  502    0  0.50680157393E+02  0.48037515541E+02  0.64280712253E+03  0.64658880135E+03  0.00000000000E+00 0. -1.
         22    1    3    3    0    0 -0.12424787659E+03 -0.21785227934E+02  0.30459162106E+03  0.32967891441E+03  0.00000000000E+00 0.  1.
         22    1    3    3    0    0 -0.19441546320E+02 -0.57404560232E+02  0.42323650924E+02  0.73922585766E+02  0.00000000000E+00 0.  1.
</event>
<event>
 7    1  0.6294601E-006  0.4990277E+02  0.7818608E-02  0.1457222E+00
          2   -1    0    0  502    0  0.00000000000E+00  0.00000000000E+00  0.10173183946E+04  0.10173183946E+04  0.00000000000E+00 0. -1.
          1   -1    0    0  501    0 -0.00000000000E+00 -0.00000000000E+00 -0.35832482541E+02  0.35832482541E+02  0.00000000000E+00 0. -1.
         25    2    1    2    0    0  0.30746221018E+02 -0.93987324874E+01  0.60211610231E+03  0.61579500763E+03  0.12500409783E+03 0.  0.
          2    1    1    2  501    0 -0.36305253567E+02 -0.36169557768E+02 -0.38540825735E+01  0.51392239669E+02  0.00000000000E+00 0. -1.
          1    1    1    2  502    0  0.55590325488E+01  0.45568290256E+02  0.38322389229E+03  0.38596362982E+03  0.00000000000E+00 0. -1.
         22    1    3    3    0    0  0.67262943854E+02 -0.32789616251E+02  0.48824121740E+03  0.49394225261E+03  0.00000000000E+00 0.  1.
         22    1    3    3    0    0 -0.36516722836E+02  0.23390883763E+02  0.11387488491E+03  0.12185275501E+03  0.00000000000E+00 0.  1.
</event>
<event>
 7    1  0.6294601E-006  0.7126772E+02  0.7818608E-02  0.1428464E+00
          2   -1    0    0  502    0  0.00000000000E+00  0.00000000000E+00  0.53495166497E+03  0.53495166497E+03  0.00000000000E+00 0. -1.
          1   -1    0    0  501    0 -0.00000000000E+00 -0.00000000000E+00 -0.24033093689E+03  0.24033093689E+03  0.00000000000E+00 0. -1.
         25    2    1    2    0    0 -0.81014128469E+02 -0.57040383666E+01  0.23612083116E+02  0.15092384420E+03  0.12499860485E+03 0.  0.
          2    1    1    2  501    0  0.59483700898E+02  0.39197419736E+02 -0.16855756635E+03  0.18299290030E+03  0.00000000000E+00 0. -1.
          1    1    1    2  502    0  0.21530427571E+02 -0.33493381370E+02  0.43956621132E+03  0.44136585735E+03  0.00000000000E+00 0. -1.
         22    1    3    3    0    0 -0.23313669720E+02  0.51838001141E+02 -0.17739756902E+02  0.59543299649E+02  0.00000000000E+00 0. -1.
         22    1    3    3    0    0 -0.57700458748E+02 -0.57542039507E+02  0.41351840018E+02  0.91380544556E+02  0.00000000000E+00 0. -1.
</event>
<event>
 7    1  0.6294601E-006  0.5482005E+02  0.7818608E-02  0.1438283E+00
          2   -1    0    0  502    0  0.00000000000E+00  0.00000000000E+00  0.75971493776E+03  0.75971493776E+03  0.00000000000E+00 0. -1.
          1   -1    0    0  501    0 -0.00000000000E+00 -0.00000000000E+00 -0.16899546150E+03  0.16899546150E+03  0.00000000000E+00 0. -1.
         25    2    1    2    0    0 -0.33121361316E+02 -0.92728956260E+02  0.10631766720E+02  0.15949151439E+03  0.12501529824E+03 0.  0.
          2    1    1    2  501    0  0.23311012781E+02  0.45673480811E+02 -0.86684794706E+02  0.10071605532E+03  0.00000000000E+00 0. -1.
          1    1    1    2  502    0  0.98103485358E+01  0.47055475449E+02  0.66677250424E+03  0.66850282955E+03  0.00000000000E+00 0. -1.
         22    1    3    3    0    0  0.20158412780E+02 -0.12481079952E+02  0.50074656586E+02  0.55404062981E+02  0.00000000000E+00 0.  1.
         22    1    3    3    0    0 -0.53279774097E+02 -0.80247876308E+02 -0.39442889865E+02  0.10408745141E+03  0.00000000000E+00 0.  1.
</event>
<event>
 7    1  0.6294601E-006  0.1611333E+03  0.7818608E-02  0.1222514E+00
          2   -1    0    0  502    0  0.00000000000E+00  0.00000000000E+00  0.23738531591E+04  0.23738531591E+04  0.00000000000E+00 0. -1.
          1   -1    0    0  501    0 -0.00000000000E+00 -0.00000000000E+00 -0.34511736597E+03  0.34511736597E+03  0.00000000000E+00 0. -1.
         25    2    1    2    0    0  0.13274739221E+03  0.19620005593E+02  0.11119524937E+04  0.11269737722E+04  0.12499888063E+03 0.  0.
          2    1    1    2  501    0 -0.13443003973E+03  0.90786112503E+02 -0.31550927890E+03  0.35476704875E+03  0.00000000000E+00 0. -1.
          1    1    1    2  502    0  0.16826475213E+01 -0.11040611810E+03  0.12322925784E+04  0.12372297042E+04  0.00000000000E+00 0. -1.
         22    1    3    3    0    0  0.12757774995E+03  0.59179234873E+02  0.93943293856E+03  0.94990131602E+03  0.00000000000E+00 0. -1.
         22    1    3    3    0    0  0.51696422647E+01 -0.39559229280E+02  0.17251955512E+03  0.17707245614E+03  0.00000000000E+00 0. -1.
</event>
<event>
 7    1  0.6294601E-006  0.7934304E+02  0.7818608E-02  0.1414298E+00
          2   -1    0    0  502    0  0.00000000000E+00  0.00000000000E+00  0.10805460201E+04  0.10805460201E+04  0.00000000000E+00 0. -1.
          1   -1    0    0  501    0 -0.00000000000E+00 -0.00000000000E+00 -0.45865624327E+03  0.45865624327E+03  0.00000000000E+00 0. -1.
         25    2    1    2    0    0 -0.58671299202E+01  0.67565438980E+02 -0.14133984408E+02  0.14289378968E+03  0.12497741338E+03 0.  0.
          2    1    1    2  501    0  0.39593794119E+02  0.47032187329E+01 -0.37752612449E+03  0.37962582034E+03  0.00000000000E+00 0. -1.
          1    1    1    2  502    0 -0.33726664199E+02 -0.72268657713E+02  0.10135498857E+04  0.10166826534E+04  0.00000000000E+00 0. -1.
         22    1    3    3    0    0 -0.58811785655E+02  0.66754232728E+02 -0.13159058232E+02  0.89933945385E+02  0.00000000000E+00 0.  1.
         22    1    3    3    0    0  0.52944655735E+02  0.81120625249E+00 -0.97492617577E+00  0.52959844293E+02  0.00000000000E+00 0.  1.
</event>
<event>
 7    1  0.6294601E-006  0.7101383E+02  0.7818608E-02  0.1417232E+00
          2   -1    0    0  502    0  0.00000000000E+00  0.00000000000E+00  0.55274167608E+03  0.55274167608E+03  0.00000000000E+00 0. -1.
          1   -1    0    0  501    0 -0.00000000000E+00 -0.00000000000E+00 -0.13317969619E+03  0.13317969619E+03  0.00000000000E+00 0. -1.
         25    2    1    2    0    0  0.96743001609E+01  0.27740291181E+02  0.25552376758E+03  0.28597294797E+03  0.12500006134E+03 0.  0.
          2    1    1    2  501    0 -0.29385855937E+02 -0.66572473839E+02 -0.10481038858E+03  0.12759561260E+03  0.00000000000E+00 0. -1.
          1    1    1    2  502    0  0.19711555776E+02  0.38832182659E+02  0.26884860089E+03  0.27235281170E+03  0.00000000000E+00 0. -1.
         22    1    3    3    0    0  0.37663946700E+01 -0.39941264110E+02  0.29059207991E+02  0.49537136338E+02  0.00000000000E+00 0. -1.
         22    1    3    3    0    0  0.59079054908E+01  0.67681555291E+02  0.22646455959E+03  0.23643581163E+03  0.00000000000E+00 0. -1.
</event>
<event>
 7    1  0.6294601E-006  0.1526263E+03  0.7818608E-02  0.1277448E+00
          2   -1    0    0  502    0  0.00000000000E+00  0.00000000000E+00  0.27141938726E+03  0.27141938726E+03  0.00000000000E+00 0. -1.
          1   -1    0    0  501    0 -0.00000000000E+00 -0.00000000000E+00 -0.28224980150E+03  0.28224980150E+03  0.00000000000E+00 0. -1.
         25    2    1    2    0    0  0.47692603262E+02  0.81461114048E+02 -0.19224787728E+03  0.24797833191E+03  0.12499403694E+03 0.  0.
          2    1    1    2  501    0  0.21966054593E+02  0.63638149224E+02  0.59517076918E+01  0.67585090187E+02  0.00000000000E+00 0. -1.
          1    1    1    2  502    0 -0.69658657855E+02 -0.14509926327E+03  0.17546575536E+03  0.23810576666E+03  0.00000000000E+00 0. -1.
         22    1    3    3    0    0 -0.15879155639E+02  0.31822592370E+02  0.40133976633E+01  0.35790114972E+02  0.00000000000E+00 0.  1.
         22    1    3    3    0    0  0.63571758900E+02  0.49638521678E+02 -0.19626127495E+03  0.21218821694E+03  0.00000000000E+00 0.  1.
</event>
<event>
 7    1  0.6294601E-006  0.8652607E+02  0.7818608E-02  0.1393481E+00
          2   -1    0    0  502    0  0.00000000000E+00  0.00000000000E+00  0.37757256949E+03  0.37757256949E+03  0.00000000000E+00 0. -1.
          1   -1    0    0  501    0 -0.00000000000E+00 -0.00000000000E+00 -0.62856006544E+03  0.62856006544E+03  0.00000000000E+00 0. -1.
         25    2    1    2    0    0 -0.12565784866E+03 -0.89179694384E+01 -0.54998581655E+02  0.18579422884E+03  0.12500090551E+03 0.  0.
          2    1    1    2  501    0  0.84374878067E+02 -0.33731301882E+01 -0.50314251493E+03  0.51017927084E+03  0.00000000000E+00 0. -1.
          1    1    1    2  502    0  0.41282970592E+02  0.12291099627E+02  0.30715360064E+03  0.31015913525E+03  0.00000000000E+00 0. -1.
         22    1    3    3    0    0 -0.87833325322E+02  0.50077906737E+02 -0.80180767765E+01  0.10142376120E+03  0.00000000000E+00 0. -1.
         22    1    3    3    0    0 -0.37824523337E+02 -0.58995876176E+02 -0.46980504878E+02  0.84370467641E+02  0.00000000000E+00 0. -1.
</event>
<event>
 7    1  0.6294601E-006  0.5078290E+02  0.7818608E-02  0.1462603E+00
          2   -1    0    0  502    0  0.00000000000E+00  0.00000000000E+00  0.35088007434E+04  0.35088007434E+04  0.00000000000E+00 0. -1.
          1   -1    0    0  501    0 -0.00000000000E+00 -0.00000000000E+00 -0.28338571498E+02  0.28338571498E+02  0.00000000000E+00 0. -1.
         25    2    1    2    0    0 -0.10815699559E+02  0.43547819878E+02  0.14891606974E+04  0.14950710614E+04  0.12499801543E+03 0.  0.
          2    1    1    2  501    0  0.43363502687E+02 -0.12344567125E+01 -0.62277626207E+01  0.43825817458E+02  0.00000000000E+00 0. -1.
          1    1    1    2  502    0 -0.32547803128E+02 -0.42313363165E+02  0.19975292370E+04  0.19982424360E+04  0.00000000000E+00 0. -1.
         22    1    3    3    0    0 -0.36232885317E+01 -0.34372281270E+02  0.16402361191E+03  0.16762555653E+03  0.00000000000E+00 0. -1.
         22    1    3    3    0    0 -0.71924110271E+01  0.77920101148E+02  0.13251370855E+04  0.13274455049E+04  0.00000000000E+00 0. -1.
</event>
<event>
 7    1  0.6294601E-006  0.5890919E+02  0.7818608E-02  0.1449619E+00
          2   -1    0    0  502    0  0.00000000000E+00  0.00000000000E+00  0.26652037139E+04  0.26652037139E+04  0.00000000000E+00 0. -1.
          1   -1    0    0  501    0 -0.00000000000E+00 -0.00000000000E+00 -0.49911312015E+02  0.49911312015E+02  0.00000000000E+00 0. -1.
         25    2    1    2    0    0  0.73086526090E+02  0.49530234572E+02  0.19630816619E+03  0.24891873602E+03  0.12501502548E+03 0.  0.
          2    1    1    2  501    0 -0.15620193194E+02 -0.38034654252E+02 -0.50745581698E+01  0.41429174504E+02  0.00000000000E+00 0. -1.
          1    1    1    2  502    0 -0.57466332896E+02 -0.11495580321E+02  0.24240587939E+04  0.24247671154E+04  0.00000000000E+00 0. -1.
         22    1    3    3    0    0 -0.17145672340E+02 -0.14386205776E+02  0.99394547032E+02  0.10188333022E+03  0.00000000000E+00 0.  1.
         22    1    3    3    0    0  0.90232198430E+02  0.63916440348E+02  0.96913619160E+02  0.14703540580E+03  0.00000000000E+00 0.  1.
</event>
<event>
 7    1  0.6294601E-006  0.9025680E+02  0.7818608E-02  0.1359854E+00
          2   -1    0    0  502    0  0.00000000000E+00  0.00000000000E+00  0.23122278780E+04  0.23122278780E+04  0.00000000000E+00 0. -1.
          1   -1    0    0  501    0 -0.00000000000E+00 -0.00000000000E+00 -0.10159148722E+03  0.10159148722E+03  0.00000000000E+00 0. -1.
         25    2    1    2    0    0  0.39302155607E+02  0.53912469791E+01  0.46429482257E+03  0.48246065985E+03  0.12499952423E+03 0.  0.
          2    1    1    2  501    0 -0.92638195406E+02  0.53077242938E+01 -0.68729989860E+02  0.11547215548E+03  0.00000000000E+00 0. -1.
          1    1    1    2  502    0  0.53336039799E+02 -0.10698971273E+02  0.18150715581E+04  0.18158865499E+04  0.00000000000E+00 0. -1.
         22    1    3    3    0    0  0.46837860738E+02  0.15029011926E+02  0.58290849009E+02  0.76272403110E+02  0.00000000000E+00 0.  1.
         22    1    3    3    0    0 -0.75357051307E+01 -0.96377649465E+01  0.40600397356E+03  0.40618825674E+03  0.00000000000E+00 0.  1.
</event>
<event>
 7    1  0.6294601E-006  0.6261961E+02  0.7818608E-02  0.1416369E+00
          2   -1    0    0  502    0  0.00000000000E+00  0.00000000000E+00  0.16009637804E+04  0.16009637804E+04  0.00000000000E+00 0. -1.
          1   -1    0    0  501    0 -0.00000000000E+00 -0.00000000000E+00 -0.10539614615E+02  0.10539614615E+02  0.00000000000E+00 0. -1.
         25    2    1    2    0    0 -0.25681809327E+02  0.35454236431E+02  0.69935844013E+03  0.71178957229E+03  0.12500243686E+03 0.  0.
          2    1    1    2  501    0  0.33730012196E+02  0.36524639784E+02  0.28105296319E+03  0.28541641710E+03  0.00000000000E+00 0. -1.
          1    1    1    2  502    0 -0.80482028683E+01 -0.71978876215E+02  0.61001276250E+03  0.61429740566E+03  0.00000000000E+00 0. -1.
         22    1    3    3    0    0 -0.70115368735E+02  0.48727448966E+02  0.48677331226E+03  0.49420520712E+03  0.00000000000E+00 0.  1.
         22    1    3    3    0    0  0.44433559408E+02 -0.13273212535E+02  0.21258512787E+03  0.21758436517E+03  0.00000000000E+00 0.  1.
</event>
<event>
 7    1  0.6294601E-006  0.5157652E+02  0.7818608E-02  0.1483536E+00
          2   -1    0    0  502    0  0.00000000000E+00  0.00000000000E+00  0.10147381328E+04  0.10147381328E+04  0.00000000000E+00 0. -1.
          1   -1    0    0  501    0 -0.00000000000E+00 -0.00000000000E+00 -0.16037331143E+03  0.16037331143E+03  0.00000000000E+00 0. -1.
         25    2    1    2    0    0  0.85037937230E+02  0.19173353416E+01  0.72599331540E+02  0.16772301399E+03  0.12500087815E+03 0.  0.
          2    1    1    2  501    0 -0.49499227543E+02  0.75943890742E+01 -0.10685443017E+03  0.11800727740E+03  0.00000000000E+00 0. -1.
          1    1    1    2  502    0 -0.35538709687E+02 -0.95117244158E+01  0.88861992004E+03  0.88938115287E+03  0.00000000000E+00 0. -1.
         22    1    3    3    0    0  0.71652196124E+00  0.47332568386E+02  0.50922023228E+02  0.69526526473E+02  0.00000000000E+00 0. -1.
         22    1    3    3    0    0  0.84321415268E+02 -0.45415233045E+02  0.21677308313E+02  0.98196487519E+02  0.00000000000E+00 0. -1.
</event>
<event>
 7    1  0.6294601E-006  0.5308596E+02  0.7818608E-02  0.1440735E+00
          2   -1    0    0  502    0  0.00000000000E+00  0.00000000000E+00  0.10611744874E+04  0.10611744874E+04  0.00000000000E+00 0. -1.
          1   -1    0    0  501    0 -0.00000000000E+00 -0.00000000000E+00 -0.41322786387E+03  0.41322786387E+03  0.00000000000E+00 0. -1.
         25    2    1    2    0    0  0.80168050632E+02 -0.33022882773E+02  0.38276149885E+03  0.41188289454E+03  0.12499490665E+03 0.  0.
          2    1    1    2  501    0 -0.48186841108E+02 -0.72922485906E+01 -0.39617449330E+03  0.39916084188E+03  0.00000000000E+00 0. -1.
          1    1    1    2  502    0 -0.31981209524E+02  0.40315131363E+02  0.66135961795E+03  0.66335861480E+03  0.00000000000E+00 0. -1.
         22    1    3    3    0    0  0.22426579666E+02 -0.17701032533E+02  0.33274566812E+03  0.33396999518E+03  0.00000000000E+00 0.  1.
         22    1    3    3    0    0  0.57741470966E+02 -0.15321850239E+02  0.50015830730E+02  0.77912899366E+02  0.00000000000E+00 0.  1.
</event>
<event>
 7    1  0.6294601E-006  0.1504400E+03  0.7818608E-02  0.1244383E+00
          2   -1    0    0  502    0  0.00000000000E+00  0.00000000000E+00  0.15465605498E+04  0.15465605498E+04  0.00000000000E+00 0. -1.
          1   -1    0    0  501    0 -0.00000000000E+00 -0.00000000000E+00 -0.12127558215E+04  0.12127558215E+04  0.00000000000E+00 0. -1.
         25    2    1    2    0    0  0.60616073288E+02 -0.23120155848E+02  0.72738971234E+02  0.15851973970E+03  0.12501479909E+03 0.  0.
          2    1    1    2  501    0  0.90034271704E+02 -0.28658372333E+02 -0.11635108579E+04  0.11673409908E+04  0.00000000000E+00 0. -1.
          1    1    1    2  502    0 -0.15065034499E+03  0.51778528181E+02  0.14245766150E+04  0.14334556409E+04  0.00000000000E+00 0. -1.
         22    1    3    3    0    0  0.62053273645E+01  0.21677620059E+02  0.84153379979E+02  0.87121849504E+02  0.00000000000E+00 0.  1.
         22    1    3    3    0    0  0.54410745923E+02 -0.44797775907E+02 -0.11414408745E+02  0.71397890201E+02  0.00000000000E+00 0.  1.
</event>
<event>
 7    1  0.6294601E-006  0.4568614E+02  0.7818608E-02  0.1518485E+00
          2   -1    0    0  502    0  0.00000000000E+00  0.00000000000E+00  0.44499109737E+03  0.44499109737E+03  0.00000000000E+00 0. -1.
          1   -1    0    0  501    0 -0.00000000000E+00 -0.00000000000E+00 -0.96330223804E+03  0.96330223804E+03  0.00000000000E+00 0. -1.
         25    2    1    2    0    0 -0.42299739683E+01 -0.41361388624E+02 -0.20727980126E+03  0.24559757329E+03  0.12499837938E+03 0.  0.
          2    1    1    2  501    0 -0.30546504422E+02  0.11603326575E+02 -0.73526972933E+03  0.73599544903E+03  0.00000000000E+00 0. -1.
          1    1    1    2  502    0  0.34776478390E+02  0.29758062049E+02  0.42423838992E+03  0.42670031309E+03  0.00000000000E+00 0. -1.
         22    1    3    3    0    0 -0.57793746287E+02 -0.68748519465E+01 -0.53138286054E+02  0.78810266742E+02  0.00000000000E+00 0.  1.
         22    1    3    3    0    0  0.53563772319E+02 -0.34486536677E+02 -0.15414151520E+03  0.16678730655E+03  0.00000000000E+00 0.  1.
</event>
<event>
 7    1  0.6294601E-006  0.7389229E+02  0.7818608E-02  0.1348658E+00
          2   -1    0    0  502    0  0.00000000000E+00  0.00000000000E+00  0.26981289251E+04  0.26981289251E+04  0.00000000000E+00 0. -1.
          1   -1    0    0  501    0 -0.00000000000E+00 -0.00000000000E+00 -0.57217930093E+03  0.57217930093E+03  0.00000000000E+00 0. -1.
         25    2    1    2    0    0 -0.77502435098E+02 -0.12115800690E+03  0.77853122153E+03  0.80151176876E+03  0.12499744993E+03 0.  0.
          2    1    1    2  501    0  0.51195097644E+02  0.52997578038E+02 -0.55756475058E+03  0.56241277759E+03  0.00000000000E+00 0. -1.
          1    1    1    2  502    0  0.26307337454E+02  0.68160428861E+02  0.19049831532E+04  0.19063836797E+04  0.00000000000E+00 0. -1.
         22    1    3    3    0    0 -0.43406944685E+01  0.25871707979E+02  0.11611985152E+03  0.11904623816E+03  0.00000000000E+00 0. -1.
         22    1    3    3    0    0 -0.73161740629E+02 -0.14702971488E+03  0.66241137000E+03  0.68246553060E+03  0.00000000000E+00 0. -1.
</event>
<event>
 7    1  0.6294601E-006  0.1750843E+03  0.7818608E-02  0.1348024E+00
          2   -1    0    0  502    0  0.00000000000E+00  0.00000000000E+00  0.40429547163E+02  0.40429547163E+02  0.00000000000E+00 0. -1.
          1   -1    0    0  501    0 -0.00000000000E+00 -0.00000000000E+00 -0.14826007043E+04  0.14826007043E+04  0.00000000000E+00 0. -1.
         25    2    1    2    0    0  0.13118420976E+03  0.86008652556E+02 -0.65428056136E+03  0.68433521120E+03  0.12499937248E+03 0.  0.
          2    1    1    2  501    0  0.14417015860E+02  0.27445975380E+02 -0.47059021198E+03  0.47161030472E+03  0.00000000000E+00 0. -1.
          1    1    1    2  502    0 -0.14560122562E+03 -0.11345462794E+03 -0.31730038381E+03  0.36708473554E+03  0.00000000000E+00 0. -1.
         22    1    3    3    0    0  0.39332697734E+02  0.70746696758E+01 -0.40733638081E+03  0.40929211963E+03  0.00000000000E+00 0. -1.
         22    1    3    3    0    0  0.91851512028E+02  0.78933982881E+02 -0.24694418054E+03  0.27504309157E+03  0.00000000000E+00 0. -1.
</event>
<event>
 7    1  0.6294601E-006  0.9737542E+02  0.7818608E-02  0.1413856E+00
          2   -1    0    0  502    0  0.00000000000E+00  0.00000000000E+00  0.27422517987E+03  0.27422517987E+03  0.00000000000E+00 0. -1.
          1   -1    0    0  501    0 -0.00000000000E+00 -0.00000000000E+00 -0.67476924251E+03  0.67476924251E+03  0.00000000000E+00 0. -1.
         25    2    1    2    0    0  0.97104158635E+01  0.71503109791E+02 -0.40039830180E+03  0.42561976912E+03  0.12500560345E+03 0.  0.
          2    1    1    2  501    0  0.25920578289E+02  0.19770851831E+02 -0.25149684162E+03  0.25360091543E+03  0.00000000000E+00 0. -1.
          1    1    1    2  502    0 -0.35630994153E+02 -0.91273961622E+02  0.25135108078E+03  0.26977373784E+03  0.00000000000E+00 0. -1.
         22    1    3    3    0    0 -0.20698049570E+01  0.56012634888E+02 -0.40218959536E+03  0.40607655679E+03  0.00000000000E+00 0. -1.
         22    1    3    3    0    0  0.11780220820E+02  0.15490474904E+02  0.17912935616E+01  0.19543212324E+02  0.00000000000E+00 0. -1.
</event>
<event>
 7    1  0.6294601E-006  0.1177340E+03  0.7818608E-02  0.1329717E+00
          2   -1    0    0  502    0  0.00000000000E+00  0.00000000000E+00  0.11929750973E+04  0.11929750973E+04  0.00000000000E+00 0. -1.
          1   -1    0    0  501    0 -0.00000000000E+00 -0.00000000000E+00 -0.10522500728E+04  0.10522500728E+04  0.00000000000E+00 0. -1.
         25    2    1    2    0    0 -0.16881513302E+03  0.12456765860E+02  0.50076696720E+02  0.21630151963E+03  0.12499980674E+03 0.  0.
          2    1    1    2  501    0  0.11639219502E+03  0.67413850347E+00 -0.96494917385E+03  0.97194367411E+03  0.00000000000E+00 0. -1.
          1    1    1    2  502    0  0.52422938006E+02 -0.13130904363E+02  0.10555975016E+04  0.10569799764E+04  0.00000000000E+00 0. -1.
         22    1    3    3    0    0 -0.70421283314E+01 -0.11501506905E+02  0.51008710199E+02  0.52761394492E+02  0.00000000000E+00 0. -1.
         22    1    3    3    0    0 -0.16177300469E+03  0.23958272765E+02 -0.93201347895E+00  0.16354012514E+03  0.00000000000E+00 0. -1.
</event>
<event>
 7    1  0.6294601E-006  0.1573419E+03  0.7818608E-02  0.1371241E+00
          2   -1    0    0  502    0  0.00000000000E+00  0.00000000000E+00  0.61882401643E+03  0.61882401643E+03  0.00000000000E+00 0. -1.
          1   -1    0    0  501    0 -0.00000000000E+00 -0.00000000000E+00 -0.14987123560E+04  0.14987123560E+04  0.00000000000E+00 0. -1.
         25    2    1    2    0    0  0.15961579624E+03  0.86204545591E+02  0.31599231737E+02  0.22255853003E+03  0.12500144700E+03 0.  0.
          2    1    1    2  501    0 -0.27714648077E+02 -0.61092088584E+01 -0.13909779364E+04  0.13912674236E+04  0.00000000000E+00 0. -1.
          1    1    1    2  502    0 -0.13190114817E+03 -0.80095336733E+02  0.47949036511E+03  0.50371041888E+03  0.00000000000E+00 0. -1.
         22    1    3    3    0    0  0.15216713676E+03  0.20180679632E+02  0.16178069375E+02  0.15434969151E+03  0.00000000000E+00 0. -1.
         22    1    3    3    0    0  0.74486594839E+01  0.66023865959E+02  0.15421162362E+02  0.68208838525E+02  0.00000000000E+00 0. -1.
</event>
<event>
 7    1  0.6294601E-006  0.1271076E+03  0.7818608E-02  0.1334102E+00
          2   -1    0    0  502    0  0.00000000000E+00  0.00000000000E+00  0.18961638099E+03  0.18961638099E+03  0.00000000000E+00 0. -1.
          1   -1    0    0  501    0 -0.00000000000E+00 -0.00000000000E+00 -0.85917814134E+03  0.85917814134E+03  0.00000000000E+00 0. -1.
         25    2    1    2    0    0 -0.14462948763E+03  0.77746041344E+02 -0.34618741817E+03  0.40302931329E+03  0.12499905293E+03 0.  0.
          2    1    1    2  501    0  0.10853372713E+03 -0.45851178080E+02 -0.47358459944E+03  0.48802077137E+03  0.00000000000E+00 0. -1.
          1    1    1    2  502    0  0.36095760500E+02 -0.31894863264E+02  0.15021025727E+03  0.15774443768E+03  0.00000000000E+00 0. -1.
         22    1    3    3    0    0 -0.56202582350E+02  0.63504294426E+02 -0.27746751235E+03  0.29013746066E+03  0.00000000000E+00 0. -1.
         22    1    3    3    0    0 -0.88426905275E+02  0.14241746918E+02 -0.68719905828E+02  0.11289185262E+03  0.00000000000E+00 0. -1.
</event>
<event>
 7    1  0.6294601E-006  0.1150249E+03  0.7818608E-02  0.1446514E+00
          2   -1    0    0  502    0  0.00000000000E+00  0.00000000000E+00  0.10510198145E+03  0.10510198145E+03  0.00000000000E+00 0. -1.
          1   -1    0    0  501    0 -0.00000000000E+00 -0.00000000000E+00 -0.76619460320E+03  0.76619460320E+03  0.00000000000E+00 0. -1.
         25    2    1    2    0    0  0.10035424102E+02 -0.13168266209E+03 -0.28225637881E+03  0.33574603202E+03  0.12496280010E+03 0.  0.
          2    1    1    2  501    0 -0.11262294629E+02  0.11017123451E+03 -0.44884275058E+03  0.46230331487E+03  0.00000000000E+00 0. -1.
          1    1    1    2  502    0  0.12268705273E+01  0.21511427582E+02  0.70006507632E+02  0.73247237755E+02  0.00000000000E+00 0. -1.
         22    1    3    3    0    0 -0.46597366270E+02 -0.31884137006E+02 -0.45009333106E+02  0.72206321071E+02  0.00000000000E+00 0. -1.
         22    1    3    3    0    0  0.56632790372E+02 -0.99798525083E+02 -0.23724704570E+03  0.26353971095E+03  0.00000000000E+00 0. -1.
</event>
<event>
 7    1  0.6294601E-006  0.9559282E+02  0.7818608E-02  0.1309689E+00
          2   -1    0    0  502    0  0.00000000000E+00  0.00000000000E+00  0.54356724802E+02  0.54356724802E+02  0.00000000000E+00 0. -1.
          1   -1    0    0  501    0 -0.00000000000E+00 -0.00000000000E+00 -0.30189637868E+04  0.30189637868E+04  0.00000000000E+00 0. -1.
         25    2    1    2    0    0  0.57452959436E+02 -0.42534773447E+02 -0.29848113634E+03  0.33139978007E+03  0.12499910391E+03 0.  0.
          2    1    1    2  501    0 -0.94392603154E+02 -0.27983859871E+02 -0.26602770891E+04  0.26620982797E+04  0.00000000000E+00 0. -1.
          1    1    1    2  502    0  0.36939643717E+02  0.70518633317E+02 -0.58488365157E+01  0.79822451801E+02  0.00000000000E+00 0. -1.
         22    1    3    3    0    0  0.64907014102E+02 -0.74781841617E+02 -0.27051642733E+03  0.28807009871E+03  0.00000000000E+00 0.  1.
         22    1    3    3    0    0 -0.74540546660E+01  0.32247068171E+02 -0.27964709011E+02  0.43329681359E+02  0.00000000000E+00 0.  1.
</event>
<event>
 7    1  0.6294601E-006  0.9267221E+02  0.7818608E-02  0.1396625E+00
          2   -1    0    0  502    0  0.00000000000E+00  0.00000000000E+00  0.57233001333E+03  0.57233001333E+03  0.00000000000E+00 0. -1.
          1   -1    0    0  501    0 -0.00000000000E+00 -0.00000000000E+00 -0.21809332229E+03  0.21809332229E+03  0.00000000000E+00 0. -1.
         25    2    1    2    0    0 -0.89141419553E+02 -0.18104873522E+02 -0.51139542231E+01  0.15467810933E+03  0.12500074341E+03 0.  0.
          2    1    1    2  501    0  0.92140928387E+02 -0.21001371594E+02 -0.12114803376E+03  0.15364847665E+03  0.00000000000E+00 0. -1.
          1    1    1    2  502    0 -0.29995088340E+01  0.39106245116E+02  0.48049867903E+03  0.48209674964E+03  0.00000000000E+00 0. -1.
         22    1    3    3    0    0 -0.43541242091E+02 -0.22360591368E+02  0.58510541621E+02  0.76284462966E+02  0.00000000000E+00 0. -1.
         22    1    3    3    0    0 -0.45600177463E+02  0.42557178464E+01 -0.63624495844E+02  0.78393646365E+02  0.00000000000E+00 0. -1.
</event>
<event>
 7    1  0.6294601E-006  0.8228779E+02  0.7818608E-02  0.1432212E+00
          2   -1    0    0  502    0  0.00000000000E+00  0.00000000000E+00  0.22464124356E+03  0.22464124356E+03  0.00000000000E+00 0. -1.
          1   -1    0    0  501    0 -0.00000000000E+00 -0.00000000000E+00 -0.47266053321E+03  0.47266053321E+03  0.00000000000E+00 0. -1.
         25    2    1    2    0    0 -0.87215887414E+02 -0.33625843226E+02 -0.13201227026E+03  0.20442394699E+03  0.12499840901E+03 0.  0.
          2    1    1    2  501    0  0.81372461428E+02  0.62008580829E+00 -0.29744204860E+03  0.30837255757E+03  0.00000000000E+00 0. -1.
          1    1    1    2  502    0  0.58434259860E+01  0.33005757417E+02  0.18143502921E+03  0.18450527221E+03  0.00000000000E+00 0. -1.
         22    1    3    3    0    0 -0.93732253713E+02 -0.61087866135E+02 -0.59731334146E+02  0.12682781656E+03  0.00000000000E+00 0.  1.
         22    1    3    3    0    0  0.65163662982E+01  0.27462022909E+02 -0.72280936117E+02  0.77596130431E+02  0.00000000000E+00 0.  1.
</event>
<event>
 7    1  0.6294601E-006  0.2203659E+03  0.7818608E-02  0.1196920E+00
          2   -1    0    0  502    0  0.00000000000E+00  0.00000000000E+00  0.75297640745E+03  0.75297640745E+03  0.00000000000E+00 0. -1.
          1   -1    0    0  501    0 -0.00000000000E+00 -0.00000000000E+00 -0.10788816336E+04  0.10788816336E+04  0.00000000000E+00 0. -1.
         25    2    1    2    0    0 -0.16431421264E+03 -0.36176121821E+02  0.10628074443E+03  0.23500527292E+03  0.12499603753E+03 0.  0.
          2    1    1    2  501    0 -0.40318060661E+02 -0.98172352623E+02 -0.98581905201E+03  0.99151528488E+03  0.00000000000E+00 0. -1.
          1    1    1    2  502    0  0.20463227330E+03  0.13434847444E+03  0.55363308139E+03  0.60533748329E+03  0.00000000000E+00 0. -1.
         22    1    3    3    0    0 -0.13038158400E+03 -0.32066225215E+02  0.12096702660E+02  0.13481072087E+03  0.00000000000E+00 0.  1.
         22    1    3    3    0    0 -0.33932628640E+02 -0.41098966055E+01  0.94184041769E+02  0.10019455205E+03  0.00000000000E+00 0.  1.
</event>
<event>
 7    1  0.6294601E-006  0.1343381E+03  0.7818608E-02  0.1391357E+00
          2   -1    0    0  502    0  0.00000000000E+00  0.00000000000E+00  0.21817985068E+04  0.21817985068E+04  0.00000000000E+00 0. -1.
          1   -1    0    0  501    0 -0.00000000000E+00 -0.00000000000E+00 -0.92980459715E+03  0.92980459715E+03  0.00000000000E+00 0. -1.
         25    2    1    2    0    0 -0.13535540365E+03 -0.29362864202E+02 -0.86150065011E+03  0.88146997074E+03  0.12499070397E+03 0.  0.
          2    1    1    2  501    0  0.10253370730E+01  0.28200551223E+02 -0.52698681357E+02  0.59778536468E+02  0.00000000000E+00 0. -1.
          1    1    1    2  502    0  0.13433006657E+03  0.11623129783E+01  0.21661932411E+04  0.21703545967E+04  0.00000000000E+00 0. -1.
         22    1    3    3    0    0 -0.69190745924E+02  0.21700164505E+02 -0.16840642086E+03  0.18335479008E+03  0.00000000000E+00 0.  1.
         22    1    3    3    0    0 -0.66164657722E+02 -0.51063028707E+02 -0.69309422926E+03  0.69811518066E+03  0.00000000000E+00 0.  1.
</event>
<event>
 7    1  0.6294601E-006  0.8362997E+02  0.7818608E-02  0.1345572E+00
          2   -1    0    0  502    0  0.00000000000E+00  0.00000000000E+00  0.76336231661E+03  0.76336231661E+03  0.00000000000E+00 0. -1.
          1   -1    0    0  501    0 -0.00000000000E+00 -0.00000000000E+00 -0.40757128950E+03  0.40757128950E+03  0.00000000000E+00 0. -1.
         25    2    1    2    0    0 -0.86493305535E+02 -0.11596388731E+03 -0.43004118095E+02  0.19596700516E+03  0.12499999151E+03 0.  0.
          2    1    1    2  501    0  0.24576354454E+02  0.61559434116E+02 -0.28175328061E+03  0.28944511096E+03  0.00000000000E+00 0. -1.
          1    1    1    2  502    0  0.61916951081E+02  0.54404453196E+02  0.68054842581E+03  0.68552148998E+03  0.00000000000E+00 0. -1.
         22    1    3    3    0    0 -0.48340388714E+02 -0.56454920015E+02 -0.85656896868E+02  0.11340659221E+03  0.00000000000E+00 0. -1.
         22    1    3    3    0    0 -0.38152916820E+02 -0.59508967297E+02  0.42652778773E+02  0.82560412958E+02  0.00000000000E+00 0. -1.
</event>
<event>
 7    1  0.6294601E-006  0.1176166E+03  0.7818608E-02  0.1272024E+00
          2   -1    0    0  502    0  0.00000000000E+00  0.00000000000E+00  0.66204900281E+02  0.66204900281E+02  0.00000000000E+00 0. -1.
          1   -1    0    0  501    0 -0.00000000000E+00 -0.00000000000E+00 -0.68251445354E+03  0.68251445354E+03  0.00000000000E+00 0. -1.
         25    2    1    2    0    0 -0.29084342631E+02 -0.61717648607E+02 -0.18976558823E+03  0.23725843168E+03  0.12500247113E+03 0.  0.
          2    1    1    2  501    0 -0.27672958131E+02 -0.87770514667E+02 -0.27937891177E+03  0.29414627687E+03  0.00000000000E+00 0. -1.
          1    1    1    2  502    0  0.56757300762E+02  0.14948816327E+03 -0.14716505326E+03  0.21731464527E+03  0.00000000000E+00 0. -1.
         22    1    3    3    0    0  0.23152416265E+02 -0.20222409678E-01  0.72835529546E+01  0.24271071907E+02  0.00000000000E+00 0. -1.
         22    1    3    3    0    0 -0.52236758896E+02 -0.61697426198E+02 -0.19704914118E+03  0.21298735977E+03  0.00000000000E+00 0. -1.
</event>
<event>
 7    1  0.6294601E-006  0.1124321E+03  0.7818608E-02  0.1265011E+00
          2   -1    0    0  502    0  0.00000000000E+00  0.00000000000E+00  0.10963276437E+04  0.10963276437E+04  0.00000000000E+00 0. -1.
          1   -1    0    0  501    0 -0.00000000000E+00 -0.00000000000E+00 -0.17531333759E+04  0.17531333759E+04  0.00000000000E+00 0. -1.
         25    2    1    2    0    0  0.41471166043E+02 -0.31322689645E+02  0.11544758603E+03  0.17791480042E+03  0.12499825034E+03 0.  0.
          2    1    1    2  501    0 -0.47480503356E+02 -0.91454241322E+02 -0.17163701869E+04  0.17194606407E+04  0.00000000000E+00 0. -1.
          1    1    1    2  502    0  0.60093373132E+01  0.12277693097E+03  0.94411686873E+03  0.95208557847E+03  0.00000000000E+00 0. -1.
         22    1    3    3    0    0 -0.19511449622E+02 -0.61872641167E+02  0.72611416858E+02  0.97372163627E+02  0.00000000000E+00 0.  1.
         22    1    3    3    0    0  0.60982615665E+02  0.30549951522E+02  0.42836169173E+02  0.80542636788E+02  0.00000000000E+00 0.  1.
</event>
<event>
 7    1  0.6294601E-006  0.3725941E+02  0.7818608E-02  0.1563334E+00
          2   -1    0    0  502    0  0.00000000000E+00  0.00000000000E+00  0.11146029433E+04  0.11146029433E+04  0.00000000000E+00 0. -1.
          1   -1    0    0  501    0 -0.00000000000E+00 -0.00000000000E+00 -0.26165598598E+03  0.26165598598E+03  0.00000000000E+00 0. -1.
         25    2    1    2    0    0 -0.44789239882E+02  0.32400134514E+02 -0.67757766638E+02  0.15255303339E+03  0.12500187331E+03 0.  0.
          2    1    1    2  501    0  0.36499414140E+02 -0.36397968477E+01 -0.14906797854E+03  0.15351455168E+03  0.00000000000E+00 0. -1.
          1    1    1    2  502    0  0.82898257428E+01 -0.28760337667E+02  0.10697727025E+04  0.10701913442E+04  0.00000000000E+00 0. -1.
         22    1    3    3    0    0 -0.24638830766E+02  0.71857404759E+02 -0.76037243030E+02  0.10748125850E+03  0.00000000000E+00 0.  1.
         22    1    3    3    0    0 -0.20150409117E+02 -0.39457270245E+02  0.82794763927E+01  0.45071774894E+02  0.00000000000E+00 0.  1.
</event>
<event>
 7    1  0.6294601E-006  0.4014176E+02  0.7818608E-02  0.1567595E+00
          2   -1    0    0  502    0  0.00000000000E+00  0.00000000000E+00  0.10140896469E+04  0.10140896469E+04  0.00000000000E+00 0. -1.
          1   -1    0    0  501    0 -0.00000000000E+00 -0.00000000000E+00 -0.69341407920E+03  0.69341407920E+03  0.00000000000E+00 0. -1.
         25    2    1    2    0    0 -0.39147951448E+01  0.46311068824E+02  0.98241462481E+03  0.99142481074E+03  0.12499847837E+03 0.  0.
          2    1    1    2  501    0 -0.20440846051E+02 -0.34549121456E+02 -0.68143754330E+03  0.68261892400E+03  0.00000000000E+00 0. -1.
          1    1    1    2  502    0  0.24355641196E+02 -0.11761947368E+02  0.19698486214E+02  0.33459991379E+02  0.00000000000E+00 0. -1.
         22    1    3    3    0    0 -0.28987487181E+02  0.29626822921E+02  0.93038286730E+03  0.93130569783E+03  0.00000000000E+00 0. -1.
         22    1    3    3    0    0  0.25072692036E+02  0.16684245903E+02  0.52031757514E+02  0.60119112911E+02  0.00000000000E+00 0. -1.
</event>
<event>
 7    1  0.6294601E-006  0.5604182E+02  0.7818608E-02  0.1444903E+00
          2   -1    0    0  502    0  0.00000000000E+00  0.00000000000E+00  0.29431412462E+03  0.29431412462E+03  0.00000000000E+00 0. -1.
          1   -1    0    0  501    0 -0.00000000000E+00 -0.00000000000E+00 -0.20750026414E+04  0.20750026414E+04  0.00000000000E+00 0. -1.
         25    2    1    2    0    0 -0.39015221662E+02  0.72314273734E+02 -0.93482984710E+03  0.94672219419E+03  0.12499811294E+03 0.  0.
          2    1    1    2  501    0  0.46368176392E+02 -0.28167645275E+02 -0.11318364400E+04  0.11331359808E+04  0.00000000000E+00 0. -1.
          1    1    1    2  502    0 -0.73529547300E+01 -0.44146628459E+02  0.28597777038E+03  0.28945859099E+03  0.00000000000E+00 0. -1.
         22    1    3    3    0    0 -0.47294254841E+02 -0.24449267763E+01 -0.66266617208E+03  0.66435621457E+03  0.00000000000E+00 0. -1.
         22    1    3    3    0    0  0.82790331785E+01  0.74759200510E+02 -0.27216367501E+03  0.28236597962E+03  0.00000000000E+00 0. -1.
</event>
<event>
 7    1  0.6294601E-006  0.2943300E+03  0.7818608E-02  0.1289081E+00
          2   -1    0    0  502    0  0.00000000000E+00  0.00000000000E+00  0.68277412867E+03  0.68277412867E+03  0.00000000000E+00 0. -1.
          1   -1    0    0  501    0 -0.00000000000E+00 -0.00000000000E+00 -0.16183547947E+04  0.16183547947E+04  0.00000000000E+00 0. -1.
         25    2    1    2    0    0 -0.16922615952E+03 -0.22032110892E+03 -0.24744925518E+03  0.39247329836E+03  0.12500108773E+03 0.  0.
          2    1    1    2  501    0 -0.31199819016E+02  0.20985080081E+01 -0.12622237177E+04  0.12626110034E+04  0.00000000000E+00 0. -1.
          1    1    1    2  502    0  0.20042597854E+03  0.21822260091E+03  0.57409230680E+03  0.64604462164E+03  0.00000000000E+00 0. -1.
         22    1    3    3    0    0  0.17587269680E+02 -0.34132676006E+02 -0.16105754895E+02  0.41638287271E+02  0.00000000000E+00 0. -1.
         22    1    3    3    0    0 -0.18681342920E+03 -0.18618843291E+03 -0.23134350029E+03  0.35083501109E+03  0.00000000000E+00 0. -1.
</event>
<event>
 7    1  0.6294601E-006  0.4726359E+02  0.7818608E-02  0.1490439E+00
          2   -1    0    0  502    0  0.00000000000E+00  0.00000000000E+00  0.58094842087E+02  0.58094842087E+02  0.00000000000E+00 0. -1.
          1   -1    0    0  501    0 -0.00000000000E+00 -0.00000000000E+00 -0.13462437171E+04  0.13462437171E+04  0.00000000000E+00 0. -1.
         25    2    1    2    0    0 -0.10547456449E+02 -0.69344062495E+01 -0.47473967149E+03  0.49108362395E+03  0.12500414073E+03 0.  0.
          2    1    1    2  501    0  0.34790039398E+02  0.36526342629E+02 -0.85514985189E+03  0.85663632291E+03  0.00000000000E+00 0. -1.
          1    1    1    2  502    0 -0.24242582949E+02 -0.29591936379E+02  0.41740648410E+02  0.56618612279E+02  0.00000000000E+00 0. -1.
         22    1    3    3    0    0  0.21619357069E+02  0.95613046398E+00 -0.78494072856E+01  0.23020077764E+02  0.00000000000E+00 0.  1.
         22    1    3    3    0    0 -0.32166813518E+02 -0.78905367135E+01 -0.46689026420E+03  0.46806354619E+03  0.00000000000E+00 0.  1.
</event>
<event>
 7    1  0.7903437E-006  0.7421087E+02  0.7818608E-02  0.1348216E+00
          2   -1    0    0  502    0  0.00000000000E+00  0.00000000000E+00  0.80884025358E+03  0.80884025358E+03  0.00000000000E+00 0. -1.
          1   -1    0    0  501    0 -0.00000000000E+00 -0.00000000000E+00 -0.22917926087E+04  0.22917926087E+04  0.00000000000E+00 0. -1.
         25    2    1    2    0    0  0.42760691685E+01  0.60611659400E+00 -0.31829451625E+03  0.34198707297E+03  0.12500042743E+03 0.  0.
          2    1    1    2  501    0 -0.53080247391E+02 -0.56511441400E+02 -0.19591558962E+04  0.19606893893E+04  0.00000000000E+00 0. -1.
          1    1    1    2  502    0  0.48804178222E+02  0.55905324806E+02  0.79449805736E+03  0.79795640000E+03  0.00000000000E+00 0. -1.
         22    1    3    3    0    0  0.39412860544E+02  0.50430716792E+02 -0.16991700605E+03  0.18157207858E+03  0.00000000000E+00 0.  1.
         22    1    3    3    0    0 -0.35136791375E+02 -0.49824600198E+02 -0.14837751020E+03  0.16041499439E+03  0.00000000000E+00 0.  1.
</event>
<event>
 7    1  0.6294601E-006  0.6576808E+02  0.7818608E-02  0.1391241E+00
          2   -1    0    0  502    0  0.00000000000E+00  0.00000000000E+00  0.82777082024E+03  0.82777082024E+03  0.00000000000E+00 0. -1.
          1   -1    0    0  501    0 -0.00000000000E+00 -0.00000000000E+00 -0.43139633339E+03  0.43139633339E+03  0.00000000000E+00 0. -1.
         25    2    1    2    0    0 -0.69946757667E+02 -0.93041577983E+02  0.74348918437E+02  0.18628762271E+03  0.12500413017E+03 0.  0.
          2    1    1    2  501    0  0.22015096693E+02  0.60929711931E+02 -0.37142520457E+03  0.37703285914E+03  0.00000000000E+00 0. -1.
          1    1    1    2  502    0  0.47931660973E+02  0.32111866052E+02  0.69345077299E+03  0.69584667178E+03  0.00000000000E+00 0. -1.
         22    1    3    3    0    0  0.17522429758E+02  0.72950241845E+01 -0.16483820606E+02  0.25138998871E+02  0.00000000000E+00 0.  1.
         22    1    3    3    0    0 -0.87469187425E+02 -0.10033660217E+03  0.90832739043E+02  0.16114862384E+03  0.00000000000E+00 0.  1.
</event>
<event>
 7    1  0.6294601E-006  0.1912372E+03  0.7818608E-02  0.1173358E+00
          2   -1    0    0  502    0  0.00000000000E+00  0.00000000000E+00  0.12110816865E+04  0.12110816865E+04  0.00000000000E+00 0. -1.
          1   -1    0    0  501    0 -0.00000000000E+00 -0.00000000000E+00 -0.32410755472E+04  0.32410755472E+04  0.00000000000E+00 0. -1.
         25    2    1    2    0    0 -0.23897268959E+03 -0.10230105798E+03 -0.72190021345E+03  0.77739202338E+03  0.12499994805E+03 0.  0.
          2    1    1    2  501    0  0.14542104124E+03 -0.64306593513E+02 -0.24811545815E+04  0.24862442910E+04  0.00000000000E+00 0. -1.
          1    1    1    2  502    0  0.93551648350E+02  0.16660765149E+03  0.11730609342E+04  0.11885209194E+04  0.00000000000E+00 0. -1.
         22    1    3    3    0    0 -0.17898015188E+03 -0.38870687391E+02 -0.34599385033E+03  0.39147997339E+03  0.00000000000E+00 0. -1.
         22    1    3    3    0    0 -0.59992537713E+02 -0.63430370587E+02 -0.37590636312E+03  0.38591204999E+03  0.00000000000E+00 0. -1.
</event>
<event>
 7    1  0.6294601E-006  0.6531562E+02  0.7818608E-02  0.1467200E+00
          2   -1    0    0  502    0  0.00000000000E+00  0.00000000000E+00  0.10621802674E+03  0.10621802674E+03  0.00000000000E+00 0. -1.
          1   -1    0    0  501    0 -0.00000000000E+00 -0.00000000000E+00 -0.86543181541E+03  0.86543181541E+03  0.00000000000E+00 0. -1.
         25    2    1    2    0    0  0.40032914294E+02  0.20826655656E+02 -0.45254078488E+02  0.14039225028E+03  0.12500267399E+03 0.  0.
          2    1    1    2  501    0  0.68466128118E+01  0.31902205820E+02 -0.75090583353E+03  0.75161439427E+03  0.00000000000E+00 0. -1.
          1    1    1    2  502    0 -0.46879527106E+02 -0.52728861476E+02  0.36946123350E+02  0.79643197606E+02  0.00000000000E+00 0. -1.
         22    1    3    3    0    0  0.11836922324E+02  0.65508403501E+02  0.59274382618E+01  0.66832613174E+02  0.00000000000E+00 0. -1.
         22    1    3    3    0    0  0.28195991970E+02 -0.44681747845E+02 -0.51181516750E+02  0.73559637101E+02  0.00000000000E+00 0. -1.
</event>
<event>
 7    1  0.6294601E-006  0.2875967E+02  0.7818608E-02  0.1646753E+00
          2   -1    0    0  502    0  0.00000000000E+00  0.00000000000E+00  0.19109280499E+04  0.19109280499E+04  0.00000000000E+00 0. -1.
          1   -1    0    0  501    0 -0.00000000000E+00 -0.00000000000E+00 -0.10007832931E+02  0.10007832931E+02  0.00000000000E+00 0. -1.
         25    2    1    2    0    0  0.11208925606E+01  0.16540707939E+02  0.10048713293E+04  0.10127512141E+04  0.12499512709E+03 0.  0.
          2    1    1    2  501    0  0.23539300484E+02  0.44427648302E+00  0.18027319744E+02  0.29652661028E+02  0.00000000000E+00 0. -1.
          1    1    1    2  502    0 -0.24660193045E+02 -0.16984984422E+02  0.87802156790E+03  0.87853200768E+03  0.00000000000E+00 0. -1.
         22    1    3    3    0    0 -0.39335102668E+02  0.10141719359E+02  0.11546182722E+03  0.12239909443E+03  0.00000000000E+00 0.  1.
         22    1    3    3    0    0  0.40455995228E+02  0.63989885808E+01  0.88940950211E+03  0.89035211970E+03  0.00000000000E+00 0.  1.
</event>
<event>
 7    1  0.6294601E-006  0.7072922E+02  0.7818608E-02  0.1472389E+00
          2   -1    0    0  502    0  0.00000000000E+00  0.00000000000E+00  0.21515444840E+04  0.21515444840E+04  0.00000000000E+00 0. -1.
          1   -1    0    0  501    0 -0.00000000000E+00 -0.00000000000E+00 -0.17754887336E+02  0.17754887336E+02  0.00000000000E+00 0. -1.
         25    2    1    2    0    0  0.37699367300E+01  0.80252177843E+02  0.10363727914E+04  0.10469663379E+04  0.12496129630E+03 0.  0.
          2    1    1    2  501    0 -0.28091613049E+02 -0.64400124314E+02  0.88501551597E+02  0.11300017421E+03  0.00000000000E+00 0. -1.
          1    1    1    2  502    0  0.24321676319E+02 -0.15852053529E+02  0.10089152537E+04  0.10093328593E+04  0.00000000000E+00 0. -1.
         22    1    3    3    0    0 -0.47071557645E+02  0.73090523353E+02  0.81951623388E+03  0.82411456347E+03  0.00000000000E+00 0. -1.
         22    1    3    3    0    0  0.50841494375E+02  0.71616544903E+01  0.21685655748E+03  0.22285177443E+03  0.00000000000E+00 0. -1.
</event>
<event>
 7    1  0.6294601E-006  0.1476168E+03  0.7818608E-02  0.1318727E+00
          2   -1    0    0  502    0  0.00000000000E+00  0.00000000000E+00  0.52540414116E+03  0.52540414116E+03  0.00000000000E+00 0. -1.
          1   -1    0    0  501    0 -0.00000000000E+00 -0.00000000000E+00 -0.11049098634E+03  0.11049098634E+03  0.00000000000E+00 0. -1.
         25    2    1    2    0    0  0.87435478558E+02 -0.12471949849E+03  0.23464146733E+03  0.30640143103E+03  0.12500121012E+03 0.  0.
          2    1    1    2  501    0  0.30702491676E+02  0.36268011785E+02 -0.41510537761E+02  0.63096247267E+02  0.00000000000E+00 0. -1.
          1    1    1    2  502    0 -0.11813797023E+03  0.88451486704E+02  0.22178222524E+03  0.26639744921E+03  0.00000000000E+00 0. -1.
         22    1    3    3    0    0  0.58512114229E+01 -0.91440915766E+02  0.56463510037E+02  0.10762808981E+03  0.00000000000E+00 0.  1.
         22    1    3    3    0    0  0.81584267135E+02 -0.33278582722E+02  0.17817795730E+03  0.19877334122E+03  0.00000000000E+00 0.  1.
</event>
<event>
 7    1  0.6294601E-006  0.4264969E+02  0.7818608E-02  0.1528926E+00
          2   -1    0    0  502    0  0.00000000000E+00  0.00000000000E+00  0.22585018673E+04  0.22585018673E+04  0.00000000000E+00 0. -1.
          1   -1    0    0  501    0 -0.00000000000E+00 -0.00000000000E+00 -0.51019658637E+02  0.51019658637E+02  0.00000000000E+00 0. -1.
         25    2    1    2    0    0  0.21485413610E+02  0.30372541835E+02  0.12291467431E+04  0.12360463347E+04  0.12499884458E+03 0.  0.
          2    1    1    2  501    0 -0.42452341869E+02 -0.53396229572E+01 -0.37633028463E+02  0.56982082576E+02  0.00000000000E+00 0. -1.
          1    1    1    2  502    0  0.20966928259E+02 -0.25032918877E+02  0.10159684940E+04  0.10164931087E+04  0.00000000000E+00 0. -1.
         22    1    3    3    0    0 -0.26535110120E+02  0.22698514780E+01  0.99587025955E+03  0.99622629867E+03  0.00000000000E+00 0.  1.
         22    1    3    3    0    0  0.48020523730E+02  0.28102690357E+02  0.23327648355E+03  0.23982003603E+03  0.00000000000E+00 0.  1.
</event>
<event>
 7    1  0.6294601E-006  0.1040428E+03  0.7818608E-02  0.1273014E+00
          2   -1    0    0  502    0  0.00000000000E+00  0.00000000000E+00  0.24702428996E+04  0.24702428996E+04  0.00000000000E+00 0. -1.
          1   -1    0    0  501    0 -0.00000000000E+00 -0.00000000000E+00 -0.54588206259E+03  0.54588206259E+03  0.00000000000E+00 0. -1.
         25    2    1    2    0    0 -0.68463644273E+02 -0.92951822097E+02  0.63032370076E+02  0.18143172981E+03  0.12496832033E+03 0.  0.
          2    1    1    2  501    0  0.10287218899E+03 -0.60308253645E+01 -0.48004243103E+03  0.49097840452E+03  0.00000000000E+00 0. -1.
          1    1    1    2  502    0 -0.34408544717E+02  0.98982647461E+02  0.23413708980E+04  0.23437148279E+04  0.00000000000E+00 0. -1.
         22    1    3    3    0    0  0.46337821512E+01 -0.53838198463E+02  0.80260611796E+02  0.96756340137E+02  0.00000000000E+00 0.  1.
         22    1    3    3    0    0 -0.73097426424E+02 -0.39113623634E+02 -0.17228241720E+02  0.84675389674E+02  0.00000000000E+00 0.  1.
</event>
<event>
 7    1  0.6294601E-006  0.5229102E+02  0.7818608E-02  0.1518774E+00
          2   -1    0    0  502    0  0.00000000000E+00  0.00000000000E+00  0.75246299686E+03  0.75246299686E+03  0.00000000000E+00 0. -1.
          1   -1    0    0  501    0 -0.00000000000E+00 -0.00000000000E+00 -0.90563483876E+03  0.90563483876E+03  0.00000000000E+00 0. -1.
         25    2    1    2    0    0 -0.45048371244E+02 -0.10961789559E+02  0.11666010558E+03  0.17715561944E+03  0.12500006674E+03 0.  0.
          2    1    1    2  501    0  0.36033373395E+02  0.37991722337E+02 -0.87426814636E+03  0.87583478276E+03  0.00000000000E+00 0. -1.
          1    1    1    2  502    0  0.90149978481E+01 -0.27029932778E+02  0.60443619888E+03  0.60510743341E+03  0.00000000000E+00 0. -1.
         22    1    3    3    0    0  0.26419115614E+02 -0.31647543019E+02  0.88450958335E+02  0.97586416469E+02  0.00000000000E+00 0. -1.
         22    1    3    3    0    0 -0.71467486857E+02  0.20685753460E+02  0.28209147241E+02  0.79569202974E+02  0.00000000000E+00 0. -1.
</event>
<event>
 7    1  0.6294601E-006  0.7618179E+02  0.7818608E-02  0.1429760E+00
          2   -1    0    0  502    0  0.00000000000E+00  0.00000000000E+00  0.53514595439E+03  0.53514595439E+03  0.00000000000E+00 0. -1.
          1   -1    0    0  501    0 -0.00000000000E+00 -0.00000000000E+00 -0.93188824093E+03  0.93188824093E+03  0.00000000000E+00 0. -1.
         25    2    1    2    0    0 -0.77131689505E+02  0.78906632300E+02  0.10289396431E+03  0.19592906933E+03  0.12500191266E+03 0.  0.
          2    1    1    2  501    0  0.44786270449E+02 -0.61181638608E+02 -0.88286030553E+03  0.88611022001E+03  0.00000000000E+00 0. -1.
          1    1    1    2  502    0  0.32345419056E+02 -0.17724993692E+02  0.38322405469E+03  0.38499490597E+03  0.00000000000E+00 0. -1.
         22    1    3    3    0    0 -0.20915254058E+02  0.22115971022E+02 -0.28788925435E+02  0.41897091238E+02  0.00000000000E+00 0. -1.
         22    1    3    3    0    0 -0.56216435447E+02  0.56790661278E+02  0.13168288975E+03  0.15403197809E+03  0.00000000000E+00 0. -1.
</event>
<event>
 7    1  0.6294601E-006  0.1058443E+03  0.7818608E-02  0.1343178E+00
          2   -1    0    0  502    0  0.00000000000E+00  0.00000000000E+00  0.69239112187E+02  0.69239112187E+02  0.00000000000E+00 0. -1.
          1   -1    0    0  501    0 -0.00000000000E+00 -0.00000000000E+00 -0.45121525522E+03  0.45121525522E+03  0.00000000000E+00 0. -1.
         25    2    1    2    0    0  0.11103405719E+03 -0.65170455331E+02 -0.20910781219E+03  0.27554891327E+03  0.12500150552E+03 0.  0.
          2    1    1    2  501    0 -0.57571759543E+02  0.65007723043E+02 -0.29203204226E+02  0.91615166261E+02  0.00000000000E+00 0. -1.
          1    1    1    2  502    0 -0.53462297644E+02  0.16273228797E+00 -0.14366512662E+03  0.15329028788E+03  0.00000000000E+00 0. -1.
         22    1    3    3    0    0  0.33410009152E+02  0.29365770941E+02 -0.10816823277E+03  0.11695701687E+03  0.00000000000E+00 0.  1.
         22    1    3    3    0    0  0.77624048034E+02 -0.94536226272E+02 -0.10093957943E+03  0.15859189641E+03  0.00000000000E+00 0.  1.
</event>
<event>
 7    1  0.6294601E-006  0.2792850E+02  0.7818608E-02  0.1627039E+00
          2   -1    0    0  502    0  0.00000000000E+00  0.00000000000E+00  0.10385899924E+04  0.10385899924E+04  0.00000000000E+00 0. -1.
          1   -1    0    0  501    0 -0.00000000000E+00 -0.00000000000E+00 -0.35467014870E+03  0.35467014870E+03  0.00000000000E+00 0. -1.
         25    2    1    2    0    0 -0.12933932806E+02 -0.51995015694E+02 -0.12141764631E+03  0.18231289596E+03  0.12499991569E+03 0.  0.
          2    1    1    2  501    0  0.12498963729E+02  0.24100775280E+02 -0.20170224222E+03  0.20352116838E+03  0.00000000000E+00 0. -1.
          1    1    1    2  502    0  0.43496907664E+00  0.27894240414E+02  0.10070397322E+04  0.10074260768E+04  0.00000000000E+00 0. -1.
         22    1    3    3    0    0  0.35033854833E+01 -0.44178096960E+02 -0.14551515345E+03  0.15211389761E+03  0.00000000000E+00 0. -1.
         22    1    3    3    0    0 -0.16437318289E+02 -0.78169187346E+01  0.24097507141E+02  0.30198998352E+02  0.00000000000E+00 0. -1.
</event>
<event>
 7    1  0.6294601E-006  0.5614703E+02  0.7818608E-02  0.1420147E+00
          2   -1    0    0  502    0  0.00000000000E+00  0.00000000000E+00  0.16223762015E+03  0.16223762015E+03  0.00000000000E+00 0. -1.
          1   -1    0    0  501    0 -0.00000000000E+00 -0.00000000000E+00 -0.34785691861E+03  0.34785691861E+03  0.00000000000E+00 0. -1.
         25    2    1    2    0    0  0.39783354430E+02  0.34743236461E+02 -0.10306284322E+03  0.17039791286E+03  0.12499476503E+03 0.  0.
          2    1    1    2  501    0  0.15141077922E+02 -0.51684221307E+02 -0.20097495706E+03  0.20806596150E+03  0.00000000000E+00 0. -1.
          1    1    1    2  502    0 -0.54924432352E+02  0.16940984846E+02  0.11841850181E+03  0.13163066439E+03  0.00000000000E+00 0. -1.
         22    1    3    3    0    0  0.69224475206E+02  0.27922878479E+02 -0.11566125678E+03  0.13765624370E+03  0.00000000000E+00 0.  1.
         22    1    3    3    0    0 -0.29441120777E+02  0.68203579827E+01  0.12598413553E+02  0.32741669164E+02  0.00000000000E+00 0.  1.
</event>
<event>
 7    1  0.6294601E-006  0.1192005E+03  0.7818608E-02  0.1450702E+00
          2   -1    0    0  502    0  0.00000000000E+00  0.00000000000E+00  0.63009257475E+03  0.63009257475E+03  0.00000000000E+00 0. -1.
          1   -1    0    0  501    0 -0.00000000000E+00 -0.00000000000E+00 -0.67739300765E+02  0.67739300765E+02  0.00000000000E+00 0. -1.
         25    2    1    2    0    0  0.11168816557E+03  0.68891900258E+02  0.28218575188E+03  0.33537168625E+03  0.12500011649E+03 0.  0.
          2    1    1    2  501    0 -0.20157710523E+02  0.20120586199E+00 -0.27509800166E+02  0.34105173838E+02  0.00000000000E+00 0. -1.
          1    1    1    2  502    0 -0.91530455052E+02 -0.69093106120E+02  0.30767732227E+03  0.32835501542E+03  0.00000000000E+00 0. -1.
         22    1    3    3    0    0  0.17048596273E+02 -0.12694179679E+02  0.15723060847E+03  0.15866083661E+03  0.00000000000E+00 0.  1.
         22    1    3    3    0    0  0.94639569302E+02  0.81586079937E+02  0.12495514341E+03  0.17671084964E+03  0.00000000000E+00 0.  1.
</event>
<event>
 7    1  0.6294601E-006  0.9565195E+02  0.7818608E-02  0.1435535E+00
          2   -1    0    0  502    0  0.00000000000E+00  0.00000000000E+00  0.31667632050E+04  0.31667632050E+04  0.00000000000E+00 0. -1.
          1   -1    0    0  501    0 -0.00000000000E+00 -0.00000000000E+00 -0.10213950986E+02  0.10213950986E+02  0.00000000000E+00 0. -1.
         25    2    1    2    0    0 -0.74565526587E+02  0.19700332044E+02  0.11221254870E+04  0.11316972054E+04  0.12499934069E+03 0.  0.
          2    1    1    2  501    0  0.10262652037E+03 -0.17844222711E+02  0.50664966647E+03  0.51724704301E+03  0.00000000000E+00 0. -1.
          1    1    1    2  502    0 -0.28060993783E+02 -0.18561093334E+01  0.15277741005E+04  0.15280329076E+04  0.00000000000E+00 0. -1.
         22    1    3    3    0    0 -0.83014276779E+02  0.50304489629E+02  0.53639420560E+03  0.54510609575E+03  0.00000000000E+00 0.  1.
         22    1    3    3    0    0  0.84487501922E+01 -0.30604157585E+02  0.58573128145E+03  0.58659110964E+03  0.00000000000E+00 0.  1.
</event>
<event>
 7    1  0.6294601E-006  0.9424524E+02  0.7818608E-02  0.1351557E+00
          2   -1    0    0  502    0  0.00000000000E+00  0.00000000000E+00  0.70768981515E+03  0.70768981515E+03  0.00000000000E+00 0. -1.
          1   -1    0    0  501    0 -0.00000000000E+00 -0.00000000000E+00 -0.15246834986E+03  0.15246834986E+03  0.00000000000E+00 0. -1.
         25    2    1    2    0    0 -0.76063918313E+02 -0.10219601214E+03 -0.16228241861E+02  0.17920683162E+03  0.12498795182E+03 0.  0.
          2    1    1    2  501    0  0.54737082293E+02  0.11262094695E+02 -0.35926420054E+02  0.66435612534E+02  0.00000000000E+00 0. -1.
          1    1    1    2  502    0  0.21326836020E+02  0.90933917445E+02  0.60737612721E+03  0.61451572086E+03  0.00000000000E+00 0. -1.
         22    1    3    3    0    0 -0.63444944103E+02 -0.84733539480E+02 -0.66157683851E+02  0.12482737191E+03  0.00000000000E+00 0.  1.
         22    1    3    3    0    0 -0.12618974210E+02 -0.17462472660E+02  0.49929441990E+02  0.54379459715E+02  0.00000000000E+00 0.  1.
</event>
<event>
 7    1  0.6294601E-006  0.4062977E+02  0.7818608E-02  0.1564348E+00
          2   -1    0    0  502    0  0.00000000000E+00  0.00000000000E+00  0.22000800145E+04  0.22000800145E+04  0.00000000000E+00 0. -1.
          1   -1    0    0  501    0 -0.00000000000E+00 -0.00000000000E+00 -0.97736713528E+01  0.97736713528E+01  0.00000000000E+00 0. -1.
         25    2    1    2    0    0  0.40003470243E+02  0.44049961433E+02  0.69584810946E+03  0.70948476434E+03  0.12499345048E+03 0.  0.
          2    1    1    2  501    0 -0.33391802439E+02 -0.17590155669E+02  0.12347178888E+03  0.12911122607E+03  0.00000000000E+00 0. -1.
          1    1    1    2  502    0 -0.66116678041E+01 -0.26459805764E+02  0.13709864448E+04  0.13712576955E+04  0.00000000000E+00 0. -1.
         22    1    3    3    0    0  0.13008632922E+02  0.77582453080E+02  0.26331084941E+03  0.27481059836E+03  0.00000000000E+00 0. -1.
         22    1    3    3    0    0  0.26994837321E+02 -0.33532491647E+02  0.43253726005E+03  0.43467416598E+03  0.00000000000E+00 0. -1.
</event>
<event>
 7    1  0.6294601E-006  0.1346962E+03  0.7818608E-02  0.1370953E+00
          2   -1    0    0  502    0  0.00000000000E+00  0.00000000000E+00  0.18086816219E+03  0.18086816219E+03  0.00000000000E+00 0. -1.
          1   -1    0    0  501    0 -0.00000000000E+00 -0.00000000000E+00 -0.21520603238E+03  0.21520603238E+03  0.00000000000E+00 0. -1.
         25    2    1    2    0    0  0.27481859151E+02  0.11978067309E+03 -0.96398887709E+02  0.20005143237E+03  0.12500067125E+03 0.  0.
          2    1    1    2  501    0  0.32851976477E+02  0.50002285222E+01 -0.16074467932E+02  0.36913996844E+02  0.00000000000E+00 0. -1.
          1    1    1    2  502    0 -0.60333835628E+02 -0.12478090161E+03  0.78135485445E+02  0.15910876536E+03  0.00000000000E+00 0. -1.
         22    1    3    3    0    0 -0.19222078354E+00  0.55422460386E+02  0.24283318746E+02  0.60509219409E+02  0.00000000000E+00 0.  1.
         22    1    3    3    0    0  0.27674079935E+02  0.64358212701E+02 -0.12068220646E+03  0.13954221296E+03  0.00000000000E+00 0.  1.
</event>
<event>
 7    1  0.6294601E-006  0.2703781E+03  0.7818608E-02  0.1280699E+00
          2   -1    0    0  502    0  0.00000000000E+00  0.00000000000E+00  0.23885436126E+04  0.23885436126E+04  0.00000000000E+00 0. -1.
          1   -1    0    0  501    0 -0.00000000000E+00 -0.00000000000E+00 -0.46272916933E+03  0.46272916933E+03  0.00000000000E+00 0. -1.
         25    2    1    2    0    0 -0.20690940541E+03 -0.12290542753E+03  0.55174543749E+03  0.61479006935E+03  0.12500622154E+03 0.  0.
          2    1    1    2  501    0  0.24374436748E+03  0.12210170998E+03 -0.38790656438E+03  0.47412197476E+03  0.00000000000E+00 0. -1.
          1    1    1    2  502    0 -0.36834962066E+02  0.80371755425E+00  0.17619755702E+04  0.17623607379E+04  0.00000000000E+00 0. -1.
         22    1    3    3    0    0 -0.20743915011E+02 -0.54626116601E+02  0.22605198739E+03  0.23348195568E+03  0.00000000000E+00 0. -1.
         22    1    3    3    0    0 -0.18616549040E+03 -0.68279310929E+02  0.32569345010E+03  0.38130811368E+03  0.00000000000E+00 0. -1.
</event>
<event>
 7    1  0.6294601E-006  0.4817264E+02  0.7818608E-02  0.1497599E+00
          2   -1    0    0  502    0  0.00000000000E+00  0.00000000000E+00  0.37067210506E+03  0.37067210506E+03  0.00000000000E+00 0. -1.
          1   -1    0    0  501    0 -0.00000000000E+00 -0.00000000000E+00 -0.38364472041E+03  0.38364472041E+03  0.00000000000E+00 0. -1.
         25    2    1    2    0    0 -0.12997070849E+02 -0.10932892251E+02  0.41755074945E+02  0.13287865919E+03  0.12499919920E+03 0.  0.
          2    1    1    2  501    0  0.48430858852E+02  0.64527073034E+01 -0.33517921438E+03  0.33872155419E+03  0.00000000000E+00 0. -1.
          1    1    1    2  502    0 -0.35433788003E+02  0.44801849473E+01  0.28045152408E+03  0.28271661209E+03  0.00000000000E+00 0. -1.
         22    1    3    3    0    0  0.32734746573E+02  0.37596690722E+02  0.43517913779E+02  0.66173133567E+02  0.00000000000E+00 0. -1.
         22    1    3    3    0    0 -0.45731817422E+02 -0.48529582973E+02 -0.17628388345E+01  0.66705525625E+02  0.00000000000E+00 0. -1.
</event>
<event>
 7    1  0.6294601E-006  0.6239599E+02  0.7818608E-02  0.1431500E+00
          2   -1    0    0  502    0  0.00000000000E+00  0.00000000000E+00  0.65093974408E+03  0.65093974408E+03  0.00000000000E+00 0. -1.
          1   -1    0    0  501    0 -0.00000000000E+00 -0.00000000000E+00 -0.18643386101E+04  0.18643386101E+04  0.00000000000E+00 0. -1.
         25    2    1    2    0    0  0.47816780839E+02  0.73737604299E+02  0.43996175089E+03  0.46574208921E+03  0.12500269036E+03 0.  0.
          2    1    1    2  501    0  0.27370983005E+00 -0.44442606969E+02 -0.18471738657E+04  0.18477084484E+04  0.00000000000E+00 0. -1.
          1    1    1    2  502    0 -0.48090490669E+02 -0.29294997330E+02  0.19381324875E+03  0.20182781659E+03  0.00000000000E+00 0. -1.
         22    1    3    3    0    0  0.46584465814E+02  0.77024402306E+02  0.44800891947E+03  0.45696264938E+03  0.00000000000E+00 0.  1.
         22    1    3    3    0    0  0.12323150256E+01 -0.32867980068E+01 -0.80471685815E+01  0.87794398249E+01  0.00000000000E+00 0.  1.
</event>
<event>
 7    1  0.6294601E-006  0.1904180E+03  0.7818608E-02  0.1339087E+00
          2   -1    0    0  502    0  0.00000000000E+00  0.00000000000E+00  0.95855718811E+03  0.95855718811E+03  0.00000000000E+00 0. -1.
          1   -1    0    0  501    0 -0.00000000000E+00 -0.00000000000E+00 -0.43076075213E+03  0.43076075213E+03  0.00000000000E+00 0. -1.
         25    2    1    2    0    0 -0.18559773789E+03 -0.87680178215E+02 -0.21662751354E+03  0.32355381284E+03  0.12500102487E+03 0.  0.
          2    1    1    2  501    0  0.44862275160E+01  0.30458783685E+02 -0.14911556848E+03  0.15226068601E+03  0.00000000000E+00 0. -1.
          1    1    1    2  502    0  0.18111151038E+03  0.57221394531E+02  0.89353951801E+03  0.91350344139E+03  0.00000000000E+00 0. -1.
         22    1    3    3    0    0 -0.92456918503E+02 -0.56048988875E+02 -0.29377233592E+02  0.11203924664E+03  0.00000000000E+00 0.  1.
         22    1    3    3    0    0 -0.93140819391E+02 -0.31631189341E+02 -0.18725027995E+03  0.21151456621E+03  0.00000000000E+00 0.  1.
</event>
<event>
 7    1  0.6294601E-006  0.1590976E+03  0.7818608E-02  0.1408442E+00
          2   -1    0    0  502    0  0.00000000000E+00  0.00000000000E+00  0.28722521856E+03  0.28722521856E+03  0.00000000000E+00 0. -1.
          1   -1    0    0  501    0 -0.00000000000E+00 -0.00000000000E+00 -0.66544923043E+03  0.66544923043E+03  0.00000000000E+00 0. -1.
         25    2    1    2    0    0  0.12424564254E+03 -0.12602166366E+03  0.15645235560E+02  0.21722670647E+03  0.12499691678E+03 0.  0.
          2    1    1    2  501    0 -0.11522434798E+03  0.10726620617E+03 -0.55299525765E+03  0.57496647236E+03  0.00000000000E+00 0. -1.
          1    1    1    2  502    0 -0.90212945567E+01  0.18755457486E+02  0.15912601022E+03  0.16048127015E+03  0.00000000000E+00 0. -1.
         22    1    3    3    0    0  0.59954803101E+02 -0.45761085205E+02 -0.54232324347E+02  0.92896718661E+02  0.00000000000E+00 0.  1.
         22    1    3    3    0    0  0.64290839439E+02 -0.80260578454E+02  0.69877559906E+02  0.12432998781E+03  0.00000000000E+00 0.  1.
</event>
<event>
 7    1  0.6294601E-006  0.1008034E+03  0.7818608E-02  0.1412583E+00
          2   -1    0    0  502    0  0.00000000000E+00  0.00000000000E+00  0.87209974256E+02  0.87209974256E+02  0.00000000000E+00 0. -1.
          1   -1    0    0  501    0 -0.00000000000E+00 -0.00000000000E+00 -0.99098561821E+03  0.99098561821E+03  0.00000000000E+00 0. -1.
         25    2    1    2    0    0 -0.77218601326E+01 -0.89520244591E+02 -0.17425261494E+03  0.23251285234E+03  0.12499900549E+03 0.  0.
          2    1    1    2  501    0  0.39092901323E+02  0.94752109742E+02 -0.77962745930E+03  0.78633656441E+03  0.00000000000E+00 0. -1.
          1    1    1    2  502    0 -0.31371041190E+02 -0.52318651515E+01  0.50104430283E+02  0.59346175718E+02  0.00000000000E+00 0. -1.
         22    1    3    3    0    0 -0.97188208517E+01  0.17892925896E+02 -0.99673363808E+02  0.10173196021E+03  0.00000000000E+00 0. -1.
         22    1    3    3    0    0  0.19969607191E+01 -0.10741317049E+03 -0.74579251131E+02  0.13078089213E+03  0.00000000000E+00 0. -1.
</event>
<event>
 7    1  0.6294601E-006  0.1137553E+03  0.7818608E-02  0.1288686E+00
          2   -1    0    0  502    0  0.00000000000E+00  0.00000000000E+00  0.32727931361E+03  0.32727931361E+03  0.00000000000E+00 0. -1.
          1   -1    0    0  501    0 -0.00000000000E+00 -0.00000000000E+00 -0.40694481618E+03  0.40694481618E+03  0.00000000000E+00 0. -1.
         25    2    1    2    0    0  0.15378086466E+02 -0.15675073899E+03  0.36832263889E+02  0.20441758549E+03  0.12499061515E+03 0.  0.
          2    1    1    2  501    0  0.46024880898E+02  0.66907415326E+02 -0.30310047324E+03  0.31379099536E+03  0.00000000000E+00 0. -1.
          1    1    1    2  502    0 -0.61402967364E+02  0.89843323662E+02  0.18660270678E+03  0.21601554895E+03  0.00000000000E+00 0. -1.
         22    1    3    3    0    0 -0.24904397458E+02 -0.15877745823E+03  0.28292425064E+02  0.16318998612E+03  0.00000000000E+00 0.  1.
         22    1    3    3    0    0  0.40282483925E+02  0.20267192437E+01  0.85398388252E+01  0.41227599363E+02  0.00000000000E+00 0.  1.
</event>
<event>
 7    1  0.6294601E-006  0.1168131E+03  0.7818608E-02  0.1417195E+00
          2   -1    0    0  502    0  0.00000000000E+00  0.00000000000E+00  0.15582856853E+04  0.15582856853E+04  0.00000000000E+00 0. -1.
          1   -1    0    0  501    0 -0.00000000000E+00 -0.00000000000E+00 -0.14118448382E+03  0.14118448382E+03  0.00000000000E+00 0. -1.
         25    2    1    2    0    0  0.91429645578E+02 -0.11422702742E+02  0.13161687435E+03  0.20356293700E+03  0.12500003792E+03 0.  0.
          2    1    1    2  501    0  0.25907083658E+02 -0.54880345188E+01 -0.10097448884E+03  0.10438938118E+03  0.00000000000E+00 0. -1.
          1    1    1    2  502    0 -0.11733672924E+03  0.16910737261E+02  0.13864588160E+04  0.13915178509E+04  0.00000000000E+00 0. -1.
         22    1    3    3    0    0  0.62276200286E+02  0.51689765458E+02  0.95628873222E+02  0.12527984023E+03  0.00000000000E+00 0.  1.
         22    1    3    3    0    0  0.29153445292E+02 -0.63112468200E+02  0.35988001127E+02  0.78283096769E+02  0.00000000000E+00 0.  1.
</event>
<event>
 7    1  0.6294601E-006  0.1356025E+03  0.7818608E-02  0.1380688E+00
          2   -1    0    0  502    0  0.00000000000E+00  0.00000000000E+00  0.22858595717E+04  0.22858595717E+04  0.00000000000E+00 0. -1.
          1   -1    0    0  501    0 -0.00000000000E+00 -0.00000000000E+00 -0.11609938895E+04  0.11609938895E+04  0.00000000000E+00 0. -1.
         25    2    1    2    0    0  0.10915990780E+02 -0.16506658882E+03  0.96485278996E+03  0.98688003170E+03  0.12500061231E+03 0.  0.
          2    1    1    2  501    0 -0.38355041212E+01  0.13542668320E+03 -0.11458115775E+04  0.11537934255E+04  0.00000000000E+00 0. -1.
          1    1    1    2  502    0 -0.70804866589E+01  0.29639905618E+02  0.13058244697E+04  0.13061800040E+04  0.00000000000E+00 0. -1.
         22    1    3    3    0    0 -0.14985958732E+02 -0.15799751792E+03  0.58705549920E+03  0.60812988232E+03  0.00000000000E+00 0.  1.
         22    1    3    3    0    0  0.25901949513E+02 -0.70690709004E+01  0.37779729076E+03  0.37875014938E+03  0.00000000000E+00 0.  1.
</event>
<event>
 7    1  0.6294601E-006  0.2536479E+03  0.7818608E-02  0.1297452E+00
          2   -1    0    0  502    0  0.00000000000E+00  0.00000000000E+00  0.21162808270E+04  0.21162808270E+04  0.00000000000E+00 0. -1.
          1   -1    0    0  501    0 -0.00000000000E+00 -0.00000000000E+00 -0.65005959703E+03  0.65005959703E+03  0.00000000000E+00 0. -1.
         25    2    1    2    0    0  0.25664771067E+03  0.52246262547E+02  0.48396914695E+03  0.56431060222E+03  0.12499040457E+03 0.  0.
          2    1    1    2  501    0 -0.23991779432E+03 -0.81342740202E+02 -0.58339433342E+03  0.63602369270E+03  0.00000000000E+00 0. -1.
          1    1    1    2  502    0 -0.16729916346E+02  0.29096477655E+02  0.15656464164E+04  0.15660061291E+04  0.00000000000E+00 0. -1.
         22    1    3    3    0    0  0.13361030141E+03 -0.96999293356E+01  0.33813021719E+03  0.36370021316E+03  0.00000000000E+00 0. -1.
         22    1    3    3    0    0  0.12303740926E+03  0.61946191883E+02  0.14583892975E+03  0.20061038906E+03  0.00000000000E+00 0. -1.
</event>
<event>
 7    1  0.6294601E-006  0.1089748E+03  0.7818608E-02  0.1331437E+00
          2   -1    0    0  502    0  0.00000000000E+00  0.00000000000E+00  0.30018620256E+04  0.30018620256E+04  0.00000000000E+00 0. -1.
          1   -1    0    0  501    0 -0.00000000000E+00 -0.00000000000E+00 -0.26476853397E+02  0.26476853397E+02  0.00000000000E+00 0. -1.
         25    2    1    2    0    0  0.11636840124E+03 -0.98120693884E+02  0.61771806663E+03  0.64835745956E+03  0.12499004021E+03 0.  0.
          2    1    1    2  501    0 -0.73612882082E+02  0.59657958508E+02  0.19754090343E+03  0.21908979198E+03  0.00000000000E+00 0. -1.
          1    1    1    2  502    0 -0.42755519159E+02  0.38462735376E+02  0.21601262022E+04  0.21608916275E+04  0.00000000000E+00 0. -1.
         22    1    3    3    0    0  0.43858969219E+02 -0.91893218720E+02  0.49761195027E+03  0.50792285425E+03  0.00000000000E+00 0.  1.
         22    1    3    3    0    0  0.72509432023E+02 -0.62274751644E+01  0.12010611637E+03  0.14043460531E+03  0.00000000000E+00 0.  1.
</event>
<event>
 7    1  0.6294601E-006  0.1004951E+03  0.7818608E-02  0.1351264E+00
          2   -1    0    0  502    0  0.00000000000E+00  0.00000000000E+00  0.30957879250E+04  0.30957879250E+04  0.00000000000E+00 0. -1.
          1   -1    0    0  501    0 -0.00000000000E+00 -0.00000000000E+00 -0.11954520281E+04  0.11954520281E+04  0.00000000000E+00 0. -1.
         25    2    1    2    0    0 -0.12780072546E+03 -0.60252705465E+00  0.10813849096E+04  0.10960607648E+04  0.12498995528E+03 0.  0.
          2    1    1    2  501    0  0.92769243846E+02 -0.38553236068E+02 -0.11856456527E+04  0.11898941543E+04  0.00000000000E+00 0. -1.
          1    1    1    2  502    0  0.35031481619E+02  0.39155763122E+02  0.20045966400E+04  0.20052850340E+04  0.00000000000E+00 0. -1.
         22    1    3    3    0    0 -0.33886424884E+02 -0.18382240466E+02  0.75459837983E+03  0.75558249807E+03  0.00000000000E+00 0. -1.
         22    1    3    3    0    0 -0.93914300580E+02  0.17779713411E+02  0.32678652979E+03  0.34047826673E+03  0.00000000000E+00 0. -1.
</event>
<event>
 7    1  0.6294601E-006  0.4719641E+02  0.7818608E-02  0.1536778E+00
          2   -1    0    0  502    0  0.00000000000E+00  0.00000000000E+00  0.92344132864E+03  0.92344132864E+03  0.00000000000E+00 0. -1.
          1   -1    0    0  501    0 -0.00000000000E+00 -0.00000000000E+00 -0.14806882217E+04  0.14806882217E+04  0.00000000000E+00 0. -1.
         25    2    1    2    0    0  0.18771037042E+02 -0.29234383227E+02 -0.43279956221E+03  0.45183768071E+03  0.12503930446E+03 0.  0.
          2    1    1    2  501    0 -0.44628798373E+02  0.18430949489E+02 -0.10375932059E+04  0.10387160779E+04  0.00000000000E+00 0. -1.
          1    1    1    2  502    0  0.25857761331E+02  0.10803433737E+02  0.91314587509E+03  0.91357579170E+03  0.00000000000E+00 0. -1.
         22    1    3    3    0    0  0.71215785546E+02 -0.30027829722E+02 -0.26315525021E+03  0.27427002093E+03  0.00000000000E+00 0.  1.
         22    1    3    3    0    0 -0.52444748504E+02  0.79344649533E+00 -0.16964431201E+03  0.17756765978E+03  0.00000000000E+00 0.  1.
</event>
<event>
 7    1  0.6294601E-006  0.1551212E+03  0.7818608E-02  0.1344959E+00
          2   -1    0    0  502    0  0.00000000000E+00  0.00000000000E+00  0.99465434541E+03  0.99465434541E+03  0.00000000000E+00 0. -1.
          1   -1    0    0  501    0 -0.00000000000E+00 -0.00000000000E+00 -0.19306892951E+03  0.19306892951E+03  0.00000000000E+00 0. -1.
         25    2    1    2    0    0  0.14743653670E+03  0.86639313002E+02 -0.68633117433E+02  0.22266191389E+03  0.12499568063E+03 0.  0.
          2    1    1    2  501    0 -0.11591273649E+03 -0.69411684788E+02  0.50007823680E+02  0.14406431514E+03  0.00000000000E+00 0. -1.
          1    1    1    2  502    0 -0.31523800204E+02 -0.17227628214E+02  0.82021070965E+03  0.82099704590E+03  0.00000000000E+00 0. -1.
         22    1    3    3    0    0  0.12387880782E+02  0.63310462303E+02 -0.55294348618E+02  0.84965517808E+02  0.00000000000E+00 0. -1.
         22    1    3    3    0    0  0.13504865591E+03  0.23328850699E+02 -0.13338768815E+02  0.13769639608E+03  0.00000000000E+00 0. -1.
</event>
<event>
 7    1  0.6294601E-006  0.8333104E+02  0.7818608E-02  0.1369745E+00
          2   -1    0    0  502    0  0.00000000000E+00  0.00000000000E+00  0.61200598966E+03  0.61200598966E+03  0.00000000000E+00 0. -1.
          1   -1    0    0  501    0 -0.00000000000E+00 -0.00000000000E+00 -0.43590496179E+04  0.43590496179E+04  0.00000000000E+00 0. -1.
         25    2    1    2    0    0  0.10479793050E+02 -0.51392136518E+02 -0.28273222102E+03  0.31355413502E+03  0.12501083564E+03 0.  0.
          2    1    1    2  501    0  0.38158456420E+02  0.75428315007E+02 -0.40592320768E+04  0.40601121353E+04  0.00000000000E+00 0. -1.
          1    1    1    2  502    0 -0.48638249470E+02 -0.24036178489E+02  0.59492066953E+03  0.59738933722E+03  0.00000000000E+00 0. -1.
         22    1    3    3    0    0 -0.42396164577E+02 -0.13073375761E+02 -0.32645251225E+02  0.55082305254E+02  0.00000000000E+00 0. -1.
         22    1    3    3    0    0  0.52875957626E+02 -0.38318760757E+02 -0.25008696979E+03  0.25847182976E+03  0.00000000000E+00 0. -1.
</event>
<event>
 7    1  0.6294601E-006  0.4399613E+02  0.7818608E-02  0.1485859E+00
          2   -1    0    0  502    0  0.00000000000E+00  0.00000000000E+00  0.24505935928E+03  0.24505935928E+03  0.00000000000E+00 0. -1.
          1   -1    0    0  501    0 -0.00000000000E+00 -0.00000000000E+00 -0.19374211488E+03  0.19374211488E+03  0.00000000000E+00 0. -1.
         25    2    1    2    0    0  0.42544944125E+02 -0.20182648194E+02  0.11917209194E+03  0.17900939414E+03  0.12499985653E+03 0.  0.
          2    1    1    2  501    0 -0.15460660564E+01  0.42402742812E+02 -0.15513619187E+03  0.16083414111E+03  0.00000000000E+00 0. -1.
          1    1    1    2  502    0 -0.40998878069E+02 -0.22220094618E+02  0.87281344326E+02  0.98957938919E+02  0.00000000000E+00 0. -1.
         22    1    3    3    0    0 -0.25660429938E+02 -0.23961119263E+02  0.10298899086E+03  0.10880866298E+03  0.00000000000E+00 0. -1.
         22    1    3    3    0    0  0.68205374064E+02  0.37784710684E+01  0.16183101087E+02  0.70200731161E+02  0.00000000000E+00 0. -1.
</event>
<event>
 7    1  0.6294601E-006  0.1363463E+03  0.7818608E-02  0.1318873E+00
          2   -1    0    0  502    0  0.00000000000E+00  0.00000000000E+00  0.37100557899E+03  0.37100557899E+03  0.00000000000E+00 0. -1.
          1   -1    0    0  501    0 -0.00000000000E+00 -0.00000000000E+00 -0.50777518670E+03  0.50777518670E+03  0.00000000000E+00 0. -1.
         25    2    1    2    0    0 -0.43851007729E+02 -0.74690508424E+02 -0.43603639801E+03  0.46179473822E+03  0.12500022774E+03 0.  0.
          2    1    1    2  501    0 -0.22263172145E+02 -0.46305272490E+02 -0.30363504995E+02  0.59680562413E+02  0.00000000000E+00 0. -1.
          1    1    1    2  502    0  0.66114179874E+02  0.12099578091E+03  0.32963029529E+03  0.35730546505E+03  0.00000000000E+00 0. -1.
         22    1    3    3    0    0  0.37630406790E+02 -0.33501428574E+02 -0.24415963709E+03  0.24930367349E+03  0.00000000000E+00 0.  1.
         22    1    3    3    0    0 -0.81481414520E+02 -0.41189079849E+02 -0.19187676092E+03  0.21249106474E+03  0.00000000000E+00 0.  1.
</event>
<event>
 7    1  0.6294601E-006  0.8415956E+02  0.7818608E-02  0.1323443E+00
          2   -1    0    0  502    0  0.00000000000E+00  0.00000000000E+00  0.74461295802E+03  0.74461295802E+03  0.00000000000E+00 0. -1.
          1   -1    0    0  501    0 -0.00000000000E+00 -0.00000000000E+00 -0.40771153769E+03  0.40771153769E+03  0.00000000000E+00 0. -1.
         25    2    1    2    0    0 -0.22891571931E+01 -0.17335038779E+02 -0.35134151203E+02  0.13101073441E+03  0.12499464044E+03 0.  0.
          2    1    1    2  501    0  0.86229881486E+02  0.23400224125E+02 -0.31587795634E+03  0.32827129977E+03  0.00000000000E+00 0. -1.
          1    1    1    2  502    0 -0.83940724293E+02 -0.60651853454E+01  0.68791352787E+03  0.69304246154E+03  0.00000000000E+00 0. -1.
         22    1    3    3    0    0  0.22542990205E+02  0.19162703386E+02 -0.69193936877E+02  0.75254212566E+02  0.00000000000E+00 0.  1.
         22    1    3    3    0    0 -0.24832147398E+02 -0.36497742165E+02  0.34059785674E+02  0.55756521840E+02  0.00000000000E+00 0.  1.
</event>
<event>
 7    1  0.6294601E-006  0.1047138E+03  0.7818608E-02  0.1414409E+00
          2   -1    0    0  502    0  0.00000000000E+00  0.00000000000E+00  0.18141474006E+04  0.18141474006E+04  0.00000000000E+00 0. -1.
          1   -1    0    0  501    0 -0.00000000000E+00 -0.00000000000E+00 -0.42983723430E+02  0.42983723430E+02  0.00000000000E+00 0. -1.
         25    2    1    2    0    0  0.11812629210E+03 -0.76625247989E+01  0.41085821372E+03  0.44546810484E+03  0.12499930192E+03 0.  0.
          2    1    1    2  501    0 -0.16163409829E+02  0.25493472047E+02 -0.14134374784E+02  0.33330968855E+02  0.00000000000E+00 0. -1.
          1    1    1    2  502    0 -0.10196288228E+03 -0.17830947248E+02  0.13744398383E+04  0.13783320504E+04  0.00000000000E+00 0. -1.
         22    1    3    3    0    0  0.12827761238E+03 -0.77342406438E+01  0.22332757427E+03  0.25766289943E+03  0.00000000000E+00 0. -1.
         22    1    3    3    0    0 -0.10151320276E+02  0.71715844905E-01  0.18753063945E+03  0.18780520541E+03  0.00000000000E+00 0. -1.
</event>
<event>
 7    1  0.6294601E-006  0.1398006E+03  0.7818608E-02  0.1333946E+00
          2   -1    0    0  502    0  0.00000000000E+00  0.00000000000E+00  0.34584106813E+04  0.34584106813E+04  0.00000000000E+00 0. -1.
          1   -1    0    0  501    0 -0.00000000000E+00 -0.00000000000E+00 -0.54323952908E+02  0.54323952908E+02  0.00000000000E+00 0. -1.
         25    2    1    2    0    0 -0.17913059846E+02 -0.12677471095E+03  0.43338430315E+03  0.46887055883E+03  0.12499976669E+03 0.  0.
          2    1    1    2  501    0 -0.22757585271E+02  0.14317994856E+03  0.10789321218E+03  0.18071898238E+03  0.00000000000E+00 0. -1.
          1    1    1    2  502    0  0.40670645117E+02 -0.16405237608E+02  0.28628092131E+04  0.28631450930E+04  0.00000000000E+00 0. -1.
         22    1    3    3    0    0  0.50704677864E+02 -0.26452054078E+02  0.14920012011E+03  0.15978532900E+03  0.00000000000E+00 0. -1.
         22    1    3    3    0    0 -0.68617737710E+02 -0.10032265687E+03  0.28418418303E+03  0.30908522983E+03  0.00000000000E+00 0. -1.
</event>
<event>
 7    1  0.6294601E-006  0.5341335E+02  0.7818608E-02  0.1479323E+00
          2   -1    0    0  502    0  0.00000000000E+00  0.00000000000E+00  0.21104087214E+03  0.21104087214E+03  0.00000000000E+00 0. -1.
          1   -1    0    0  501    0 -0.00000000000E+00 -0.00000000000E+00 -0.66582099297E+03  0.66582099297E+03  0.00000000000E+00 0. -1.
         25    2    1    2    0    0 -0.78839979378E+02 -0.14980282777E+02  0.57858964281E+02  0.15942173102E+03  0.12500990903E+03 0.  0.
          2    1    1    2  501    0  0.28840062942E+02  0.22527355009E+02 -0.60821339908E+03  0.60931335926E+03  0.00000000000E+00 0. -1.
          1    1    1    2  502    0  0.49999916436E+02 -0.75470722327E+01  0.95574313966E+02  0.10812677482E+03  0.00000000000E+00 0. -1.
         22    1    3    3    0    0  0.29658749132E+02 -0.19808774283E+02  0.31682835795E+02  0.47705670761E+02  0.00000000000E+00 0.  1.
         22    1    3    3    0    0 -0.10849872851E+03  0.48284915066E+01  0.26176128486E+02  0.11171606026E+03  0.00000000000E+00 0.  1.
</event>
<event>
 7    1  0.6294601E-006  0.5761595E+02  0.7818608E-02  0.1541838E+00
          2   -1    0    0  502    0  0.00000000000E+00  0.00000000000E+00  0.57230309792E+03  0.57230309792E+03  0.00000000000E+00 0. -1.
          1   -1    0    0  501    0 -0.00000000000E+00 -0.00000000000E+00 -0.16515491518E+04  0.16515491518E+04  0.00000000000E+00 0. -1.
         25    2    1    2    0    0 -0.40035571923E+02  0.27964922038E+02  0.21654400022E+03  0.25475846901E+03  0.12500275843E+03 0.  0.
          2    1    1    2  501    0 -0.17445350577E+02 -0.13748047400E+02 -0.16297619469E+04  0.16299132960E+04  0.00000000000E+00 0. -1.
          1    1    1    2  502    0  0.57480922500E+02 -0.14216874638E+02  0.33397189282E+03  0.33918048465E+03  0.00000000000E+00 0. -1.
         22    1    3    3    0    0  0.36858952615E+02  0.41498036908E+02  0.78057236804E+02  0.95778920815E+02  0.00000000000E+00 0.  1.
         22    1    3    3    0    0 -0.76894524538E+02 -0.13533114870E+02  0.13848676342E+03  0.15897954820E+03  0.00000000000E+00 0.  1.
</event>
<event>
 7    1  0.6294601E-006  0.1276572E+03  0.7818608E-02  0.1360223E+00
          2   -1    0    0  502    0  0.00000000000E+00  0.00000000000E+00  0.20883672165E+04  0.20883672165E+04  0.00000000000E+00 0. -1.
          1   -1    0    0  501    0 -0.00000000000E+00 -0.00000000000E+00 -0.17585041766E+03  0.17585041766E+03  0.00000000000E+00 0. -1.
         25    2    1    2    0    0 -0.13336966296E+03  0.95848654666E+02  0.17676556190E+03  0.27176958056E+03  0.12505282662E+03 0.  0.
          2    1    1    2  501    0  0.29517208114E+02 -0.24471357560E+02 -0.12330344121E+03  0.12912726873E+03  0.00000000000E+00 0. -1.
          1    1    1    2  502    0  0.10385245484E+03 -0.71377297106E+02  0.18590546781E+04  0.18633207848E+04  0.00000000000E+00 0. -1.
         22    1    3    3    0    0 -0.10203413098E+03 -0.34942073274E+01  0.82037599036E+02  0.13097076401E+03  0.00000000000E+00 0.  1.
         22    1    3    3    0    0 -0.31335531973E+02  0.99342861993E+02  0.94727962867E+02  0.14079881655E+03  0.00000000000E+00 0.  1.
</event>
<event>
 7    1  0.6294601E-006  0.1052655E+03  0.7818608E-02  0.1343192E+00
          2   -1    0    0  502    0  0.00000000000E+00  0.00000000000E+00  0.71335118668E+03  0.71335118668E+03  0.00000000000E+00 0. -1.
          1   -1    0    0  501    0 -0.00000000000E+00 -0.00000000000E+00 -0.45027795807E+04  0.45027795807E+04  0.00000000000E+00 0. -1.
         25    2    1    2    0    0  0.78553409811E+02 -0.13778102374E+03 -0.90331478020E+03  0.92561100240E+03  0.12499554769E+03 0.  0.
          2    1    1    2  501    0 -0.29717892581E+02  0.44787365905E+02 -0.35841861608E+04  0.35845891671E+04  0.00000000000E+00 0. -1.
          1    1    1    2  502    0 -0.48835517230E+02  0.92993657837E+02  0.69807254701E+03  0.70593059789E+03  0.00000000000E+00 0. -1.
         22    1    3    3    0    0  0.84168290989E+02 -0.15610659498E+03 -0.86215789672E+03  0.88021009372E+03  0.00000000000E+00 0.  1.
         22    1    3    3    0    0 -0.56148811781E+01  0.18325571234E+02 -0.41156883478E+02  0.45400908684E+02  0.00000000000E+00 0.  1.
</event>
<event>
 7    1  0.6294601E-006  0.4199249E+02  0.7818608E-02  0.1574194E+00
          2   -1    0    0  502    0  0.00000000000E+00  0.00000000000E+00  0.18051423205E+04  0.18051423205E+04  0.00000000000E+00 0. -1.
          1   -1    0    0  501    0 -0.00000000000E+00 -0.00000000000E+00 -0.29552587794E+03  0.29552587794E+03  0.00000000000E+00 0. -1.
         25    2    1    2    0    0 -0.50166793458E+02  0.38991914651E+02  0.17838143901E+03  0.22689677874E+03  0.12500053538E+03 0.  0.
          2    1    1    2  501    0  0.23950981713E+02 -0.64740421987E+01 -0.27042806020E+03  0.27156380188E+03  0.00000000000E+00 0. -1.
          1    1    1    2  502    0  0.26215811745E+02 -0.32517872452E+02  0.16016630638E+04  0.16022076178E+04  0.00000000000E+00 0. -1.
         22    1    3    3    0    0 -0.34326351761E+02  0.42931872635E+02  0.19559646244E+03  0.20317337481E+03  0.00000000000E+00 0. -1.
         22    1    3    3    0    0 -0.15840441697E+02 -0.39399579842E+01 -0.17215023431E+02  0.23723403925E+02  0.00000000000E+00 0. -1.
</event>
<event>
 7    1  0.6294601E-006  0.7185710E+02  0.7818608E-02  0.1488092E+00
          2   -1    0    0  502    0  0.00000000000E+00  0.00000000000E+00  0.18841695419E+04  0.18841695419E+04  0.00000000000E+00 0. -1.
          1   -1    0    0  501    0 -0.00000000000E+00 -0.00000000000E+00 -0.15408571504E+03  0.15408571504E+03  0.00000000000E+00 0. -1.
         25    2    1    2    0    0 -0.57108053350E+02  0.39750245814E+02  0.82789054506E+03  0.84016005745E+03  0.12499902289E+03 0.  0.
          2    1    1    2  501    0  0.15499745130E+02  0.20345211437E+02 -0.14556272853E+03  0.14779268475E+03  0.00000000000E+00 0. -1.
          1    1    1    2  502    0  0.41608308220E+02 -0.60095457251E+02  0.10477560103E+04  0.10503025147E+04  0.00000000000E+00 0. -1.
         22    1    3    3    0    0 -0.43639144393E+02  0.32695695314E+02  0.11674262725E+03  0.12884961945E+03  0.00000000000E+00 0.  1.
         22    1    3    3    0    0 -0.13468908956E+02  0.70545505005E+01  0.71114791782E+03  0.71131043800E+03  0.00000000000E+00 0.  1.
</event>
<event>
 7    1  0.6294601E-006  0.8204941E+02  0.7818608E-02  0.1394734E+00
          2   -1    0    0  502    0  0.00000000000E+00  0.00000000000E+00  0.11265930734E+03  0.11265930734E+03  0.00000000000E+00 0. -1.
          1   -1    0    0  501    0 -0.00000000000E+00 -0.00000000000E+00 -0.10472653517E+04  0.10472653517E+04  0.00000000000E+00 0. -1.
         25    2    1    2    0    0  0.41294200234E+02  0.75252855054E+00 -0.27204941052E+03  0.30222792915E+03  0.12500024847E+03 0.  0.
          2    1    1    2  501    0  0.42071684143E+02 -0.15887039051E+02 -0.74092118944E+03  0.74228473888E+03  0.00000000000E+00 0. -1.
          1    1    1    2  502    0 -0.83365884377E+02  0.15134510500E+02  0.78364555626E+02  0.11541199099E+03  0.00000000000E+00 0. -1.
         22    1    3    3    0    0  0.20854139477E+02 -0.51776138294E+02 -0.21461819065E+03  0.22175804696E+03  0.00000000000E+00 0. -1.
         22    1    3    3    0    0  0.20440060756E+02  0.52528666844E+02 -0.57431219870E+02  0.80469882192E+02  0.00000000000E+00 0. -1.
</event>
<event>
 7    1  0.6294601E-006  0.2065345E+03  0.7818608E-02  0.1236371E+00
          2   -1    0    0  502    0  0.00000000000E+00  0.00000000000E+00  0.22555804983E+04  0.22555804983E+04  0.00000000000E+00 0. -1.
          1   -1    0    0  501    0 -0.00000000000E+00 -0.00000000000E+00 -0.13737243321E+03  0.13737243321E+03  0.00000000000E+00 0. -1.
         25    2    1    2    0    0  0.75985926280E+02  0.19966865532E+03  0.52436045039E+03  0.57984516312E+03  0.12500039338E+03 0.  0.
          2    1    1    2  501    0  0.60596657897E+02 -0.43601944746E+02 -0.89775474415E+02  0.11675924092E+03  0.00000000000E+00 0. -1.
          1    1    1    2  502    0 -0.13658258418E+03 -0.15606671058E+03  0.16836230891E+04  0.16963485275E+04  0.00000000000E+00 0. -1.
         22    1    3    3    0    0 -0.11885059962E+02 -0.80120022032E+01  0.82832217317E+02  0.84063208690E+02  0.00000000000E+00 0. -1.
         22    1    3    3    0    0  0.87870986242E+02  0.20768065753E+03  0.44152823307E+03  0.49578195443E+03  0.00000000000E+00 0. -1.
</event>
<event>
 7    1  0.6294601E-006  0.3009976E+02  0.7818608E-02  0.1637909E+00
          2   -1    0    0  502    0  0.00000000000E+00  0.00000000000E+00  0.12421594533E+02  0.12421594533E+02  0.00000000000E+00 0. -1.
          1   -1    0    0  501    0 -0.00000000000E+00 -0.00000000000E+00 -0.12627766549E+04  0.12627766549E+04  0.00000000000E+00 0. -1.
         25    2    1    2    0    0 -0.45643970469E+02 -0.21458271913E+02 -0.53657375884E+03  0.55324513876E+03  0.12499982164E+03 0.  0.
          2    1    1    2  501    0  0.23293205094E+02  0.41422680325E+01 -0.66609481199E+03  0.66651483880E+03  0.00000000000E+00 0. -1.
          1    1    1    2  502    0  0.22350765375E+02  0.17316003880E+02 -0.47686489522E+02  0.55438271854E+02  0.00000000000E+00 0. -1.
         22    1    3    3    0    0 -0.48600940025E+02 -0.68800651450E+02 -0.28289769266E+03  0.29517229803E+03  0.00000000000E+00 0.  1.
         22    1    3    3    0    0  0.29569695565E+01  0.47342379537E+02 -0.25367606618E+03  0.25807284073E+03  0.00000000000E+00 0.  1.
</event>
<event>
 7    1  0.6294601E-006  0.1086499E+03  0.7818608E-02  0.1331157E+00
          2   -1    0    0  502    0  0.00000000000E+00  0.00000000000E+00  0.81524904134E+03  0.81524904134E+03  0.00000000000E+00 0. -1.
          1   -1    0    0  501    0 -0.00000000000E+00 -0.00000000000E+00 -0.82907490150E+03  0.82907490150E+03  0.00000000000E+00 0. -1.
         25    2    1    2    0    0 -0.26735022602E+02  0.70073618368E+02 -0.20525588768E+03  0.25175457439E+03  0.12500125149E+03 0.  0.
          2    1    1    2  501    0 -0.50937996212E+01 -0.11834947064E+03 -0.59365466695E+03  0.60535808212E+03  0.00000000000E+00 0. -1.
          1    1    1    2  502    0  0.31828822223E+02  0.48275852270E+02  0.78508469447E+03  0.78721128633E+03  0.00000000000E+00 0. -1.
         22    1    3    3    0    0 -0.31156003425E+02 -0.15569199688E+02 -0.66963267998E+01  0.35467412098E+02  0.00000000000E+00 0.  1.
         22    1    3    3    0    0  0.44209808233E+01  0.85642818056E+02 -0.19855956088E+03  0.21628716229E+03  0.00000000000E+00 0.  1.
</event>
<event>
 7    1  0.6294601E-006  0.1260854E+03  0.7818608E-02  0.1372852E+00
          2   -1    0    0  502    0  0.00000000000E+00  0.00000000000E+00  0.74068219478E+03  0.74068219478E+03  0.00000000000E+00 0. -1.
          1   -1    0    0  501    0 -0.00000000000E+00 -0.00000000000E+00 -0.17838940286E+04  0.17838940286E+04  0.00000000000E+00 0. -1.
         25    2    1    2    0    0 -0.18165961670E+02  0.11820471665E+03 -0.34230235619E+03  0.38353311431E+03  0.12499755805E+03 0.  0.
          2    1    1    2  501    0  0.53043470416E+02 -0.11599305833E+03 -0.14176875920E+04  0.14234135407E+04  0.00000000000E+00 0. -1.
          1    1    1    2  502    0 -0.34877508746E+02 -0.22116583231E+01  0.71677811441E+03  0.71762956833E+03  0.00000000000E+00 0. -1.
         22    1    3    3    0    0  0.36184185831E+02  0.77884156224E+02 -0.99306452458E+02  0.13128978862E+03  0.00000000000E+00 0.  1.
         22    1    3    3    0    0 -0.54350147501E+02  0.40320560425E+02 -0.24299590374E+03  0.25224332570E+03  0.00000000000E+00 0.  1.
</event>
<event>
 7    1  0.6294601E-006  0.5256717E+02  0.7818608E-02  0.1446772E+00
          2   -1    0    0  502    0  0.00000000000E+00  0.00000000000E+00  0.33390705671E+03  0.33390705671E+03  0.00000000000E+00 0. -1.
          1   -1    0    0  501    0 -0.00000000000E+00 -0.00000000000E+00 -0.10122305494E+04  0.10122305494E+04  0.00000000000E+00 0. -1.
         25    2    1    2    0    0 -0.76806922193E+02  0.58213465658E+02 -0.76221071713E+03  0.77838175682E+03  0.12499948469E+03 0.  0.
          2    1    1    2  501    0  0.43656284661E+02 -0.17563393899E+02 -0.23749967477E+03  0.24211658248E+03  0.00000000000E+00 0. -1.
          1    1    1    2  502    0  0.33150637532E+02 -0.40650071759E+02  0.32138689921E+03  0.32563926680E+03  0.00000000000E+00 0. -1.
         22    1    3    3    0    0 -0.23587260419E+02  0.75804672262E+02 -0.23181337908E+03  0.24503091624E+03  0.00000000000E+00 0.  1.
         22    1    3    3    0    0 -0.53219661774E+02 -0.17591206604E+02 -0.53039733804E+03  0.53335084059E+03  0.00000000000E+00 0.  1.
</event>
<event>
 7    1  0.6294601E-006  0.1915102E+03  0.7818608E-02  0.1227602E+00
          2   -1    0    0  502    0  0.00000000000E+00  0.00000000000E+00  0.89932186782E+03  0.89932186782E+03  0.00000000000E+00 0. -1.
          1   -1    0    0  501    0 -0.00000000000E+00 -0.00000000000E+00 -0.12061272912E+03  0.12061272912E+03  0.00000000000E+00 0. -1.
         25    2    1    2    0    0 -0.76528816826E+02 -0.15608592247E+03  0.15130972914E+03  0.26218257763E+03  0.12500237952E+03 0.  0.
          2    1    1    2  501    0  0.16318753094E+03  0.14014640312E+03  0.12730687507E+03  0.24995644621E+03  0.00000000000E+00 0. -1.
          1    1    1    2  502    0 -0.86658714114E+02  0.15939519350E+02  0.50009253448E+03  0.50779557310E+03  0.00000000000E+00 0. -1.
         22    1    3    3    0    0 -0.16109428666E+02  0.20166467480E+02  0.31246777367E+02  0.40528523269E+02  0.00000000000E+00 0. -1.
         22    1    3    3    0    0 -0.60419388160E+02 -0.17625238995E+03  0.12006295177E+03  0.22165405436E+03  0.00000000000E+00 0. -1.
</event>
<event>
 7    1  0.6294601E-006  0.1212731E+03  0.7818608E-02  0.1320496E+00
          2   -1    0    0  502    0  0.00000000000E+00  0.00000000000E+00  0.14294602788E+04  0.14294602788E+04  0.00000000000E+00 0. -1.
          1   -1    0    0  501    0 -0.00000000000E+00 -0.00000000000E+00 -0.84212842700E+02  0.84212842700E+02  0.00000000000E+00 0. -1.
         25    2    1    2    0    0  0.31597323340E+02 -0.15996427746E+03  0.31550346802E+03  0.37650127527E+03  0.12499524410E+03 0.  0.
          2    1    1    2  501    0  0.18443557050E+02  0.53863173806E+02 -0.34441337902E+02  0.66540303918E+02  0.00000000000E+00 0. -1.
          1    1    1    2  502    0 -0.50040880389E+02  0.10610110365E+03  0.10641853060E+04  0.10706315423E+04  0.00000000000E+00 0. -1.
         22    1    3    3    0    0 -0.46752453375E+01 -0.52725359760E+01 -0.11187269202E+02  0.13221669592E+02  0.00000000000E+00 0. -1.
         22    1    3    3    0    0  0.36272568677E+02 -0.15469174148E+03  0.32669073722E+03  0.36327960568E+03  0.00000000000E+00 0. -1.
</event>
<event>
 7    1  0.6294601E-006  0.7266219E+02  0.7818608E-02  0.1491021E+00
          2   -1    0    0  502    0  0.00000000000E+00  0.00000000000E+00  0.10012868701E+04  0.10012868701E+04  0.00000000000E+00 0. -1.
          1   -1    0    0  501    0 -0.00000000000E+00 -0.00000000000E+00 -0.49835433108E+02  0.49835433108E+02  0.00000000000E+00 0. -1.
         25    2    1    2    0    0  0.69174243529E+02  0.83588474149E+01  0.38409983481E+03  0.40989094536E+03  0.12499183049E+03 0.  0.
          2    1    1    2  501    0 -0.31339474181E+01  0.24583225015E+02 -0.30241393736E+02  0.39098573806E+02  0.00000000000E+00 0. -1.
          1    1    1    2  502    0 -0.66040296111E+02 -0.32942072430E+02  0.59759299592E+03  0.60213278405E+03  0.00000000000E+00 0. -1.
         22    1    3    3    0    0  0.37585664424E+01 -0.23053386723E+02  0.29058872325E+03  0.29152597061E+03  0.00000000000E+00 0. -1.
         22    1    3    3    0    0  0.65415677087E+02  0.31412234138E+02  0.93511111560E+02  0.11836497475E+03  0.00000000000E+00 0. -1.
</event>
<event>
 7    1  0.6294601E-006  0.1113055E+03  0.7818608E-02  0.1326921E+00
          2   -1    0    0  502    0  0.00000000000E+00  0.00000000000E+00  0.30201943128E+04  0.30201943128E+04  0.00000000000E+00 0. -1.
          1   -1    0    0  501    0 -0.00000000000E+00 -0.00000000000E+00 -0.11523586843E+03  0.11523586843E+03  0.00000000000E+00 0. -1.
         25    2    1    2    0    0  0.32996981656E+02 -0.63034381355E+02  0.42298848330E+03  0.44677335934E+03  0.12500017433E+03 0.  0.
          2    1    1    2  501    0 -0.91221449877E+02  0.69574916605E+02 -0.71062933525E+02  0.13495170417E+03  0.00000000000E+00 0. -1.
          1    1    1    2  502    0  0.58224468221E+02 -0.65405352500E+01  0.25530328946E+04  0.25537051177E+04  0.00000000000E+00 0. -1.
         22    1    3    3    0    0 -0.14086025050E+02  0.31185316598E+02  0.63014396814E+02  0.71706026796E+02  0.00000000000E+00 0. -1.
         22    1    3    3    0    0  0.47083006706E+02 -0.94219697953E+02  0.35997408649E+03  0.37506733255E+03  0.00000000000E+00 0. -1.
</event>
<event>
 7    1  0.6294601E-006  0.1737384E+03  0.7818608E-02  0.1293403E+00
          2   -1    0    0  502    0  0.00000000000E+00  0.00000000000E+00  0.45273108992E+03  0.45273108992E+03  0.00000000000E+00 0. -1.
          1   -1    0    0  501    0 -0.00000000000E+00 -0.00000000000E+00 -0.96848901878E+03  0.96848901878E+03  0.00000000000E+00 0. -1.
         25    2    1    2    0    0  0.45401670751E+02  0.11831944425E+03 -0.38310316027E+03  0.42243765392E+03  0.12499894979E+03 0.  0.
          2    1    1    2  501    0  0.27740929214E+01  0.50801760940E+02 -0.54663727395E+03  0.54899983951E+03  0.00000000000E+00 0. -1.
          1    1    1    2  502    0 -0.48175763673E+02 -0.16912120519E+03  0.41398250536E+03  0.44978261527E+03  0.00000000000E+00 0. -1.
         22    1    3    3    0    0  0.18519691945E+02  0.94868211937E+02 -0.37305810403E+03  0.38537683585E+03  0.00000000000E+00 0. -1.
         22    1    3    3    0    0  0.26881978807E+02  0.23451232309E+02 -0.10045056241E+02  0.37060818073E+02  0.00000000000E+00 0. -1.
</event>
<event>
 7    1  0.6294601E-006  0.5370211E+02  0.7818608E-02  0.1492615E+00
          2   -1    0    0  502    0  0.00000000000E+00  0.00000000000E+00  0.20036058594E+04  0.20036058594E+04  0.00000000000E+00 0. -1.
          1   -1    0    0  501    0 -0.00000000000E+00 -0.00000000000E+00 -0.24615727662E+03  0.24615727662E+03  0.00000000000E+00 0. -1.
         25    2    1    2    0    0 -0.38748616491E+02  0.18427677524E+02  0.10116101692E+04  0.10202047406E+04  0.12498617405E+03 0.  0.
          2    1    1    2  501    0 -0.17531181593E+02 -0.28149522397E+02 -0.23989274824E+03  0.24217404609E+03  0.00000000000E+00 0. -1.
          1    1    1    2  502    0  0.56279798084E+02  0.97218448727E+01  0.98573116184E+03  0.98738434936E+03  0.00000000000E+00 0. -1.
         22    1    3    3    0    0  0.13930132321E+02  0.58061079684E+02  0.32518513226E+03  0.33062139647E+03  0.00000000000E+00 0.  1.
         22    1    3    3    0    0 -0.52678748812E+02 -0.39633402160E+02  0.68642503694E+03  0.68958334412E+03  0.00000000000E+00 0.  1.
</event>
<event>
 7    1  0.6294601E-006  0.3282664E+02  0.7818608E-02  0.1636685E+00
          2   -1    0    0  502    0  0.00000000000E+00  0.00000000000E+00  0.13027226843E+04  0.13027226843E+04  0.00000000000E+00 0. -1.
          1   -1    0    0  501    0 -0.00000000000E+00 -0.00000000000E+00 -0.12135866911E+03  0.12135866911E+03  0.00000000000E+00 0. -1.
         25    2    1    2    0    0  0.16835996040E+02 -0.83718112455E+01  0.48910813960E+02  0.13553707881E+03  0.12499797608E+03 0.  0.
          2    1    1    2  501    0  0.15278290589E+02  0.15615026188E+02 -0.76288246931E+02  0.79354595493E+02  0.00000000000E+00 0. -1.
          1    1    1    2  502    0 -0.32114286629E+02 -0.72432149425E+01  0.12087414482E+04  0.12091896791E+04  0.00000000000E+00 0. -1.
         22    1    3    3    0    0  0.41965705987E+02  0.19487851002E+02  0.76197004732E+02  0.89145276632E+02  0.00000000000E+00 0. -1.
         22    1    3    3    0    0 -0.25129709947E+02 -0.27859662248E+02 -0.27286190772E+02  0.46391802179E+02  0.00000000000E+00 0. -1.
</event>
<event>
 7    1  0.6294601E-006  0.9355582E+02  0.7818608E-02  0.1356570E+00
          2   -1    0    0  502    0  0.00000000000E+00  0.00000000000E+00  0.17717341369E+04  0.17717341369E+04  0.00000000000E+00 0. -1.
          1   -1    0    0  501    0 -0.00000000000E+00 -0.00000000000E+00 -0.22057436101E+03  0.22057436101E+03  0.00000000000E+00 0. -1.
         25    2    1    2    0    0  0.45259816708E+02 -0.14833677219E+02  0.61759655130E+03  0.63191741398E+03  0.12500251570E+03 0.  0.
          2    1    1    2  501    0 -0.94028496098E+02 -0.82431288477E+01 -0.20230554897E+03  0.22324166815E+03  0.00000000000E+00 0. -1.
          1    1    1    2  502    0  0.48768679390E+02  0.23076806067E+02  0.11358687736E+04  0.11371494158E+04  0.00000000000E+00 0. -1.
         22    1    3    3    0    0  0.33808673196E+02  0.24573623166E+02  0.55797333418E+03  0.55953653232E+03  0.00000000000E+00 0.  1.
         22    1    3    3    0    0  0.11451143511E+02 -0.39407300385E+02  0.59623217115E+02  0.72380881664E+02  0.00000000000E+00 0.  1.
</event>
<event>
 7    1  0.6294601E-006  0.6183737E+02  0.7818608E-02  0.1404341E+00
          2   -1    0    0  502    0  0.00000000000E+00  0.00000000000E+00  0.37913735073E+03  0.37913735073E+03  0.00000000000E+00 0. -1.
          1   -1    0    0  501    0 -0.00000000000E+00 -0.00000000000E+00 -0.26572625721E+03  0.26572625721E+03  0.00000000000E+00 0. -1.
         25    2    1    2    0    0  0.41771622787E+01 -0.72357433855E+02  0.16824657058E+02  0.14546862469E+03  0.12500001906E+03 0.  0.
          2    1    1    2  501    0  0.44342094380E+02  0.33038851069E+02 -0.19423027163E+03  0.20194847222E+03  0.00000000000E+00 0. -1.
          1    1    1    2  502    0 -0.48519256658E+02  0.39318582786E+02  0.29081670809E+03  0.29744651103E+03  0.00000000000E+00 0. -1.
         22    1    3    3    0    0  0.41160741911E+02  0.43697886066E+01  0.39617625129E+02  0.57296229788E+02  0.00000000000E+00 0. -1.
         22    1    3    3    0    0 -0.36983579632E+02 -0.76727222461E+02 -0.22792968071E+02  0.88172394900E+02  0.00000000000E+00 0. -1.
</event>
<event>
 7    1  0.6294601E-006  0.7088742E+02  0.7818608E-02  0.1469168E+00
          2   -1    0    0  502    0  0.00000000000E+00  0.00000000000E+00  0.14970503350E+04  0.14970503350E+04  0.00000000000E+00 0. -1.
          1   -1    0    0  501    0 -0.00000000000E+00 -0.00000000000E+00 -0.13845408691E+03  0.13845408691E+03  0.00000000000E+00 0. -1.
         25    2    1    2    0    0 -0.17057289047E+02 -0.64919732894E+02  0.32425826203E+02  0.14554142884E+03  0.12500140189E+03 0.  0.
          2    1    1    2  501    0 -0.11844103011E+02  0.71504779705E+02 -0.65671335927E+02  0.97805626930E+02  0.00000000000E+00 0. -1.
          1    1    1    2  502    0  0.28901392058E+02 -0.65850468113E+01  0.13918417578E+04  0.13921573661E+04  0.00000000000E+00 0. -1.
         22    1    3    3    0    0 -0.26388551052E+02 -0.73947381240E+02  0.70371594798E+02  0.10543591501E+03  0.00000000000E+00 0.  1.
         22    1    3    3    0    0  0.93312620048E+01  0.90276483459E+01 -0.37945768594E+02  0.40105513829E+02  0.00000000000E+00 0.  1.
</event>
<event>
 7    1  0.6294601E-006  0.9757357E+02  0.7818608E-02  0.1303376E+00
          2   -1    0    0  502    0  0.00000000000E+00  0.00000000000E+00  0.46331654878E+03  0.46331654878E+03  0.00000000000E+00 0. -1.
          1   -1    0    0  501    0 -0.00000000000E+00 -0.00000000000E+00 -0.23631752456E+03  0.23631752456E+03  0.00000000000E+00 0. -1.
         25    2    1    2    0    0 -0.15999382937E+02  0.90938380289E+02  0.66276697107E+02  0.16894553654E+03  0.12499689786E+03 0.  0.
          2    1    1    2  501    0 -0.65598919722E+02 -0.78013159046E+02 -0.16538907867E+03  0.19427511060E+03  0.00000000000E+00 0. -1.
          1    1    1    2  502    0  0.81598302659E+02 -0.12925221243E+02  0.32611140579E+03  0.33641342620E+03  0.00000000000E+00 0. -1.
         22    1    3    3    0    0 -0.40303661718E+02  0.10906462409E+03  0.27069335042E+02  0.11938268834E+03  0.00000000000E+00 0.  1.
         22    1    3    3    0    0  0.24304278781E+02 -0.18126243802E+02  0.39207362065E+02  0.49562848198E+02  0.00000000000E+00 0.  1.
</event>
<event>
 7    1  0.6294601E-006  0.9321204E+02  0.7818608E-02  0.1383383E+00
          2   -1    0    0  502    0  0.00000000000E+00  0.00000000000E+00  0.55281394342E+03  0.55281394342E+03  0.00000000000E+00 0. -1.
          1   -1    0    0  501    0 -0.00000000000E+00 -0.00000000000E+00 -0.46417486630E+03  0.46417486630E+03  0.00000000000E+00 0. -1.
         25    2    1    2    0    0 -0.11453715070E+03  0.32631272878E+02 -0.13379708103E+03  0.21843478550E+03  0.12501415025E+03 0.  0.
          2    1    1    2  501    0  0.74667853006E+02 -0.49706076231E+02 -0.28011925002E+03  0.29413054333E+03  0.00000000000E+00 0. -1.
          1    1    1    2  502    0  0.39869297692E+02  0.17074803354E+02  0.50255540817E+03  0.50442348090E+03  0.00000000000E+00 0. -1.
         22    1    3    3    0    0 -0.21461465886E+02  0.69203836539E+01  0.24319275020E+02  0.33164941812E+02  0.00000000000E+00 0. -1.
         22    1    3    3    0    0 -0.93075684811E+02  0.25710889224E+02 -0.15811635605E+03  0.18526984368E+03  0.00000000000E+00 0. -1.
</event>
<event>
 7    1  0.6294601E-006  0.6038835E+02  0.7818608E-02  0.1400949E+00
          2   -1    0    0  502    0  0.00000000000E+00  0.00000000000E+00  0.16862149788E+03  0.16862149788E+03  0.00000000000E+00 0. -1.
          1   -1    0    0  501    0 -0.00000000000E+00 -0.00000000000E+00 -0.25840842925E+03  0.25840842925E+03  0.00000000000E+00 0. -1.
         25    2    1    2    0    0 -0.36666014192E+01  0.73642799048E+01 -0.71528146926E+02  0.14425457450E+03  0.12500171949E+03 0.  0.
          2    1    1    2  501    0 -0.57418137597E+02 -0.18705877509E+02 -0.13646875269E+03  0.14923294824E+03  0.00000000000E+00 0. -1.
          1    1    1    2  502    0  0.61084739016E+02  0.11341597605E+02  0.11820996825E+03  0.13354240440E+03  0.00000000000E+00 0. -1.
         22    1    3    3    0    0  0.52328243839E+01 -0.57598095880E+02 -0.21204331844E+02  0.61599892768E+02  0.00000000000E+00 0.  1.
         22    1    3    3    0    0 -0.88994258031E+01  0.64962375785E+02 -0.50323815083E+02  0.82654681729E+02  0.00000000000E+00 0.  1.
</event>
<event>
 7    1  0.6294601E-006  0.1858118E+03  0.7818608E-02  0.1317758E+00
          2   -1    0    0  502    0  0.00000000000E+00  0.00000000000E+00  0.21206557365E+04  0.21206557365E+04  0.00000000000E+00 0. -1.
          1   -1    0    0  501    0 -0.00000000000E+00 -0.00000000000E+00 -0.18238104980E+03  0.18238104980E+03  0.00000000000E+00 0. -1.
         25    2    1    2    0    0  0.13413236132E+03 -0.89125779350E+02  0.93014207616E+02  0.22407812015E+03  0.12499786483E+03 0.  0.
          2    1    1    2  501    0 -0.16686541748E+03  0.10858356227E+03 -0.31717212264E+02  0.20159473977E+03  0.00000000000E+00 0. -1.
          1    1    1    2  502    0  0.32733056159E+02 -0.19457782922E+02  0.18769776913E+04  0.18773639264E+04  0.00000000000E+00 0. -1.
         22    1    3    3    0    0  0.10646696892E+03 -0.71577309327E+02  0.30420864088E+01  0.12832685211E+03  0.00000000000E+00 0.  1.
         22    1    3    3    0    0  0.27665392402E+02 -0.17548470022E+02  0.89972121208E+02  0.95751268041E+02  0.00000000000E+00 0.  1.
</event>
<event>
 7    1  0.6294601E-006  0.1397455E+03  0.7818608E-02  0.1347789E+00
          2   -1    0    0  502    0  0.00000000000E+00  0.00000000000E+00  0.64284448544E+03  0.64284448544E+03  0.00000000000E+00 0. -1.
          1   -1    0    0  501    0 -0.00000000000E+00 -0.00000000000E+00 -0.22394337756E+03  0.22394337756E+03  0.00000000000E+00 0. -1.
         25    2    1    2    0    0  0.10514536507E+03  0.46921912742E+02  0.13050172382E+03  0.21427347109E+03  0.12500082720E+03 0.  0.
          2    1    1    2  501    0 -0.14075984260E+03 -0.31224947023E+02 -0.15251886338E+03  0.20988171500E+03  0.00000000000E+00 0. -1.
          1    1    1    2  502    0  0.35614477531E+02 -0.15696965719E+02  0.44091824744E+03  0.44263267691E+03  0.00000000000E+00 0. -1.
         22    1    3    3    0    0  0.82696758312E+02  0.73492618009E+02  0.13978786301E+03  0.17827104471E+03  0.00000000000E+00 0. -1.
         22    1    3    3    0    0  0.22448606761E+02 -0.26570705267E+02 -0.92861391906E+01  0.36002426376E+02  0.00000000000E+00 0. -1.
</event>
<event>
 7    1  0.6294601E-006  0.1176905E+03  0.7818608E-02  0.1334503E+00
          2   -1    0    0  502    0  0.00000000000E+00  0.00000000000E+00  0.21191960788E+04  0.21191960788E+04  0.00000000000E+00 0. -1.
          1   -1    0    0  501    0 -0.00000000000E+00 -0.00000000000E+00 -0.70063872276E+02  0.70063872276E+02  0.00000000000E+00 0. -1.
         25    2    1    2    0    0 -0.70588116633E+02  0.53368033607E+02  0.30801110975E+03  0.34398525645E+03  0.12499673477E+03 0.  0.
          2    1    1    2  501    0  0.11989204687E+03 -0.37350995181E+02  0.24589312926E+02  0.12796028311E+03  0.00000000000E+00 0. -1.
          1    1    1    2  502    0 -0.49303930234E+02 -0.16017038426E+02  0.17165317838E+04  0.17173144115E+04  0.00000000000E+00 0. -1.
         22    1    3    3    0    0 -0.60936222688E+01  0.65998374528E+02  0.67274357413E+02  0.94439170041E+02  0.00000000000E+00 0.  1.
         22    1    3    3    0    0 -0.64494494364E+02 -0.12630340921E+02  0.24073675234E+03  0.24954608641E+03  0.00000000000E+00 0.  1.
</event>
<event>
 7    1  0.6294601E-006  0.2420683E+03  0.7818608E-02  0.1251674E+00
          2   -1    0    0  502    0  0.00000000000E+00  0.00000000000E+00  0.62185445384E+03  0.62185445384E+03  0.00000000000E+00 0. -1.
          1   -1    0    0  501    0 -0.00000000000E+00 -0.00000000000E+00 -0.39955710769E+03  0.39955710769E+03  0.00000000000E+00 0. -1.
         25    2    1    2    0    0  0.23393444660E+03 -0.21996685388E+02  0.19219236774E+02  0.26683908102E+03  0.12499814647E+03 0.  0.
          2    1    1    2  501    0 -0.11185328531E+01 -0.54571543023E+02 -0.24113477720E+03  0.24723528308E+03  0.00000000000E+00 0. -1.
          1    1    1    2  502    0 -0.23281591375E+03  0.76568228411E+02  0.44421288658E+03  0.50733719743E+03  0.00000000000E+00 0. -1.
         22    1    3    3    0    0  0.11765129946E+03 -0.54515003691E+01  0.72030876532E+02  0.13805793818E+03  0.00000000000E+00 0.  1.
         22    1    3    3    0    0  0.11628314714E+03 -0.16545185019E+02 -0.52811639759E+02  0.12878114283E+03  0.00000000000E+00 0.  1.
</event>
<event>
 7    1  0.6294601E-006  0.3710493E+02  0.7818608E-02  0.1562357E+00
          2   -1    0    0  502    0  0.00000000000E+00  0.00000000000E+00  0.28636190990E+04  0.28636190990E+04  0.00000000000E+00 0. -1.
          1   -1    0    0  501    0 -0.00000000000E+00 -0.00000000000E+00 -0.21440435847E+04  0.21440435847E+04  0.00000000000E+00 0. -1.
         25    2    1    2    0    0 -0.59595166943E+01  0.58602430665E+02  0.87706839032E+03  0.88788621697E+03  0.12499284886E+03 0.  0.
          2    1    1    2  501    0 -0.13001536389E+02 -0.27304324800E+02 -0.21383587638E+04  0.21385726008E+04  0.00000000000E+00 0. -1.
          1    1    1    2  502    0  0.18961053083E+02 -0.31298105865E+02  0.19808658878E+04  0.19812038659E+04  0.00000000000E+00 0. -1.
         22    1    3    3    0    0  0.43755460165E+02  0.40263453216E+01  0.58442644140E+03  0.58607594828E+03  0.00000000000E+00 0.  1.
         22    1    3    3    0    0 -0.49714976859E+02  0.54576085343E+02  0.29264194892E+03  0.30181026869E+03  0.00000000000E+00 0.  1.
</event>
<event>
 7    1  0.6294601E-006  0.1640684E+03  0.7818608E-02  0.1246086E+00
          2   -1    0    0  502    0  0.00000000000E+00  0.00000000000E+00  0.13628429803E+04  0.13628429803E+04  0.00000000000E+00 0. -1.
          1   -1    0    0  501    0 -0.00000000000E+00 -0.00000000000E+00 -0.71879670965E+03  0.71879670965E+03  0.00000000000E+00 0. -1.
         25    2    1    2    0    0  0.19827452132E+03 -0.10294954364E+03 -0.37903642295E+03  0.45738967584E+03  0.12500124522E+03 0.  0.
          2    1    1    2  501    0 -0.12896517514E+03  0.53461443781E+02 -0.28291136516E+03  0.31548214356E+03  0.00000000000E+00 0. -1.
          1    1    1    2  502    0 -0.69309346180E+02  0.49488099856E+02  0.13059940588E+04  0.13087678706E+04  0.00000000000E+00 0. -1.
         22    1    3    3    0    0  0.94856587556E+02  0.14488466194E+02 -0.10839644447E+03  0.14476697492E+03  0.00000000000E+00 0.  1.
         22    1    3    3    0    0  0.10341793376E+03 -0.11743800983E+03 -0.27063997848E+03  0.31262270092E+03  0.00000000000E+00 0.  1.
</event>
<event>
 7    1  0.6294601E-006  0.1869578E+03  0.7818608E-02  0.1268255E+00
          2   -1    0    0  502    0  0.00000000000E+00  0.00000000000E+00  0.21049419938E+04  0.21049419938E+04  0.00000000000E+00 0. -1.
          1   -1    0    0  501    0 -0.00000000000E+00 -0.00000000000E+00 -0.13050030471E+04  0.13050030471E+04  0.00000000000E+00 0. -1.
         25    2    1    2    0    0 -0.12561297863E+02 -0.23907680773E+03 -0.56597520494E+02  0.27594128952E+03  0.12499923894E+03 0.  0.
          2    1    1    2  501    0  0.28705214613E+02  0.18124299130E+03 -0.11308846319E+04  0.11456758102E+04  0.00000000000E+00 0. -1.
          1    1    1    2  502    0 -0.16143916750E+02  0.57833816430E+02  0.19874210992E+04  0.19883279412E+04  0.00000000000E+00 0. -1.
         22    1    3    3    0    0 -0.82910328937E+01 -0.17964689835E+03 -0.96633905737E+02  0.20415646218E+03  0.00000000000E+00 0. -1.
         22    1    3    3    0    0 -0.42702649693E+01 -0.59429909383E+02  0.40036385242E+02  0.71784827335E+02  0.00000000000E+00 0. -1.
</event>
<event>
 7    1  0.6294601E-006  0.1076060E+03  0.7818608E-02  0.1396851E+00
          2   -1    0    0  502    0  0.00000000000E+00  0.00000000000E+00  0.12306973140E+04  0.12306973140E+04  0.00000000000E+00 0. -1.
          1   -1    0    0  501    0 -0.00000000000E+00 -0.00000000000E+00 -0.16567730218E+03  0.16567730218E+03  0.00000000000E+00 0. -1.
         25    2    1    2    0    0  0.14010158442E+02  0.77756261896E+02  0.70924680569E+03  0.72449843844E+03  0.12499854045E+03 0.  0.
          2    1    1    2  501    0 -0.37915801791E+02 -0.10153371574E+03 -0.13882930314E+03  0.17612574731E+03  0.00000000000E+00 0. -1.
          1    1    1    2  502    0  0.23905643348E+02  0.23777453839E+02  0.49460250927E+03  0.49575043042E+03  0.00000000000E+00 0. -1.
         22    1    3    3    0    0  0.40423524236E+02  0.35091511108E+01  0.48711386149E+03  0.48880086898E+03  0.00000000000E+00 0.  1.
         22    1    3    3    0    0 -0.26413365793E+02  0.74247110785E+02  0.22213294420E+03  0.23569756946E+03  0.00000000000E+00 0.  1.
</event>
<event>
 7    1  0.6294601E-006  0.3951523E+02  0.7818608E-02  0.1533504E+00
          2   -1    0    0  502    0  0.00000000000E+00  0.00000000000E+00  0.18655676601E+03  0.18655676601E+03  0.00000000000E+00 0. -1.
          1   -1    0    0  501    0 -0.00000000000E+00 -0.00000000000E+00 -0.50290920862E+03  0.50290920862E+03  0.00000000000E+00 0. -1.
         25    2    1    2    0    0 -0.14719737991E+02 -0.53713516174E-01 -0.43467415088E+02  0.13315744787E+03  0.12499926471E+03 0.  0.
          2    1    1    2  501    0  0.22400671927E+02  0.33376902273E+02 -0.41154014445E+03  0.41349860726E+03  0.00000000000E+00 0. -1.
          1    1    1    2  502    0 -0.76809339364E+01 -0.33323188757E+02  0.13865511693E+03  0.14280991950E+03  0.00000000000E+00 0. -1.
         22    1    3    3    0    0  0.38959297002E+02  0.89905882794E+01 -0.63595093033E+02  0.75119859946E+02  0.00000000000E+00 0.  1.
         22    1    3    3    0    0 -0.53679034993E+02 -0.90443017956E+01  0.20127677945E+02  0.58037587925E+02  0.00000000000E+00 0.  1.
</event>
<event>
 7    1  0.6294601E-006  0.7253819E+02  0.7818608E-02  0.1384455E+00
          2   -1    0    0  502    0  0.00000000000E+00  0.00000000000E+00  0.25480601803E+03  0.25480601803E+03  0.00000000000E+00 0. -1.
          1   -1    0    0  501    0 -0.00000000000E+00 -0.00000000000E+00 -0.12275598726E+04  0.12275598726E+04  0.00000000000E+00 0. -1.
         25    2    1    2    0    0 -0.45619038571E+02  0.57907254315E+02 -0.56192733120E+02  0.15561822640E+03  0.12500024941E+03 0.  0.
          2    1    1    2  501    0  0.72371437460E+02 -0.95652747903E+01 -0.11167198504E+04  0.11191033660E+04  0.00000000000E+00 0. -1.
          1    1    1    2  502    0 -0.26752398889E+02 -0.48341979525E+02  0.20015872894E+03  0.20764429827E+03  0.00000000000E+00 0. -1.
         22    1    3    3    0    0 -0.44211618869E+02  0.37467766438E+02 -0.95260839265E+02  0.11150393833E+03  0.00000000000E+00 0. -1.
         22    1    3    3    0    0 -0.14074197020E+01  0.20439487877E+02  0.39068106145E+02  0.44114288078E+02  0.00000000000E+00 0. -1.
</event>
<event>
 7    1  0.6294601E-006  0.5723704E+02  0.7818608E-02  0.1472963E+00
          2   -1    0    0  502    0  0.00000000000E+00  0.00000000000E+00  0.49859969453E+03  0.49859969453E+03  0.00000000000E+00 0. -1.
          1   -1    0    0  501    0 -0.00000000000E+00 -0.00000000000E+00 -0.39650562253E+03  0.39650562253E+03  0.00000000000E+00 0. -1.
         25    2    1    2    0    0 -0.17214923223E+02  0.37875531935E+02  0.21932602343E+03  0.25585073433E+03  0.12499913680E+03 0.  0.
          2    1    1    2  501    0  0.51045960987E+02 -0.26387215580E+02 -0.37482067654E+03  0.37919983497E+03  0.00000000000E+00 0. -1.
          1    1    1    2  502    0 -0.33831037764E+02 -0.11488316354E+02  0.25758872511E+03  0.26005474776E+03  0.00000000000E+00 0. -1.
         22    1    3    3    0    0  0.35215282898E+02 -0.21488189993E+02  0.13038817895E+03  0.13675867676E+03  0.00000000000E+00 0.  1.
         22    1    3    3    0    0 -0.52430206121E+02  0.59363721928E+02  0.88937844483E+02  0.11909205757E+03  0.00000000000E+00 0.  1.
</event>
<event>
 7    1  0.6294601E-006  0.1012085E+03  0.7818608E-02  0.1441245E+00
          2   -1    0    0  502    0  0.00000000000E+00  0.00000000000E+00  0.11020193688E+04  0.11020193688E+04  0.00000000000E+00 0. -1.
          1   -1    0    0  501    0 -0.00000000000E+00 -0.00000000000E+00 -0.10062706435E+04  0.10062706435E+04  0.00000000000E+00 0. -1.
         25    2    1    2    0    0  0.60834029105E+01 -0.81028708765E+02 -0.14879764732E+03  0.21063835115E+03  0.12500046277E+03 0.  0.
          2    1    1    2  501    0 -0.21838601926E+02  0.10103562075E+03 -0.82316839520E+03  0.82963324912E+03  0.00000000000E+00 0. -1.
          1    1    1    2  502    0  0.15755199015E+02 -0.20006911985E+02  0.10677147679E+04  0.10680184120E+04  0.00000000000E+00 0. -1.
         22    1    3    3    0    0 -0.37457791188E+02 -0.16457648880E+02 -0.12135291273E+03  0.12806431882E+03  0.00000000000E+00 0.  1.
         22    1    3    3    0    0  0.43541194098E+02 -0.64571059884E+02 -0.27444734592E+02  0.82574032328E+02  0.00000000000E+00 0.  1.
</event>
<event>
 7    1  0.6294601E-006  0.1239845E+03  0.7818608E-02  0.1334630E+00
          2   -1    0    0  502    0  0.00000000000E+00  0.00000000000E+00  0.19313956950E+04  0.19313956950E+04  0.00000000000E+00 0. -1.
          1   -1    0    0  501    0 -0.00000000000E+00 -0.00000000000E+00 -0.27334626825E+02  0.27334626825E+02  0.00000000000E+00 0. -1.
         25    2    1    2    0    0  0.11317639953E+03  0.38735046758E+02  0.91730839316E+03  0.93348193043E+03  0.12499810006E+03 0.  0.
          2    1    1    2  501    0 -0.94738423400E+02 -0.84300164269E+02  0.19905542041E+03  0.23601895466E+03  0.00000000000E+00 0. -1.
          1    1    1    2  502    0 -0.18437976127E+02  0.45565117511E+02  0.78769725465E+03  0.78922943678E+03  0.00000000000E+00 0. -1.
         22    1    3    3    0    0  0.34393933733E+01  0.58094234033E+02  0.40772645292E+03  0.41185874989E+03  0.00000000000E+00 0. -1.
         22    1    3    3    0    0  0.10973700615E+03 -0.19359187275E+02  0.50958194024E+03  0.52162318054E+03  0.00000000000E+00 0. -1.
</event>
<event>
 7    1  0.6294601E-006  0.1734054E+03  0.7818608E-02  0.1311878E+00
          2   -1    0    0  502    0  0.00000000000E+00  0.00000000000E+00  0.38468856924E+04  0.38468856924E+04  0.00000000000E+00 0. -1.
          1   -1    0    0  501    0 -0.00000000000E+00 -0.00000000000E+00 -0.26018425480E+03  0.26018425480E+03  0.00000000000E+00 0. -1.
         25    2    1    2    0    0 -0.12762557470E+03 -0.15055553625E+03  0.46534381860E+03  0.52069707882E+03  0.12500128627E+03 0.  0.
          2    1    1    2  501    0  0.43009414795E+02  0.10916957998E+01 -0.22829812804E+03  0.23231667359E+03  0.00000000000E+00 0. -1.
          1    1    1    2  502    0  0.84616159902E+02  0.14946384045E+03  0.33496557471E+04  0.33540561948E+04  0.00000000000E+00 0. -1.
         22    1    3    3    0    0 -0.34690918439E+02 -0.11584177670E+03  0.16623019346E+03  0.20556082864E+03  0.00000000000E+00 0.  1.
         22    1    3    3    0    0 -0.92934656257E+02 -0.34713759551E+02  0.29911362513E+03  0.31513625018E+03  0.00000000000E+00 0.  1.
</event>
<event>
 7    1  0.6294601E-006  0.5172599E+02  0.7818608E-02  0.1532127E+00
          2   -1    0    0  502    0  0.00000000000E+00  0.00000000000E+00  0.16606611971E+04  0.16606611971E+04  0.00000000000E+00 0. -1.
          1   -1    0    0  501    0 -0.00000000000E+00 -0.00000000000E+00 -0.36117128593E+03  0.36117128593E+03  0.00000000000E+00 0. -1.
         25    2    1    2    0    0 -0.48109594074E+02 -0.46682277337E+02  0.35560235001E+03  0.38284713721E+03  0.12500052431E+03 0.  0.
          2    1    1    2  501    0  0.21748473197E+02  0.46869165665E+02 -0.34549303005E+03  0.34933529537E+03  0.00000000000E+00 0. -1.
          1    1    1    2  502    0  0.26361120877E+02 -0.18688832760E+00  0.12893805912E+04  0.12896500505E+04  0.00000000000E+00 0. -1.
         22    1    3    3    0    0 -0.77218458221E+02 -0.45792346403E+02  0.33588994955E+03  0.34768043875E+03  0.00000000000E+00 0.  1.
         22    1    3    3    0    0  0.29108864146E+02 -0.88993093360E+00  0.19712400460E+02  0.35166698464E+02  0.00000000000E+00 0.  1.
</event>
<event>
 7    1  0.6294601E-006  0.2076293E+03  0.7818608E-02  0.1216961E+00
          2   -1    0    0  502    0  0.00000000000E+00  0.00000000000E+00  0.13862117539E+04  0.13862117539E+04  0.00000000000E+00 0. -1.
          1   -1    0    0  501    0 -0.00000000000E+00 -0.00000000000E+00 -0.71670184358E+03  0.71670184358E+03  0.00000000000E+00 0. -1.
         25    2    1    2    0    0  0.92305898744E+01 -0.14268422668E+03  0.96481599696E+02  0.21302070190E+03  0.12500051209E+03 0.  0.
          2    1    1    2  501    0  0.64627488862E+02 -0.63836173571E+02 -0.64546061578E+03  0.65182142945E+03  0.00000000000E+00 0. -1.
          1    1    1    2  502    0 -0.73858078737E+02  0.20652040025E+03  0.12184889264E+04  0.12380714661E+04  0.00000000000E+00 0. -1.
         22    1    3    3    0    0  0.65015235208E+02 -0.99284233868E+02  0.52471128799E+02  0.12975962107E+03  0.00000000000E+00 0.  1.
         22    1    3    3    0    0 -0.55784645333E+02 -0.43399992811E+02  0.44010470897E+02  0.83261080822E+02  0.00000000000E+00 0.  1.
</event>
<event>
 7    1  0.6294601E-006  0.5956985E+02  0.7818608E-02  0.1448132E+00
          2   -1    0    0  502    0  0.00000000000E+00  0.00000000000E+00  0.79903852566E+02  0.79903852566E+02  0.00000000000E+00 0. -1.
          1   -1    0    0  501    0 -0.00000000000E+00 -0.00000000000E+00 -0.19890830835E+04  0.19890830835E+04  0.00000000000E+00 0. -1.
         25    2    1    2    0    0  0.53218902025E+01 -0.33652234344E+02 -0.33968616283E+03  0.36355863430E+03  0.12500958350E+03 0.  0.
          2    1    1    2  501    0  0.40629989701E+02 -0.62622881525E+01 -0.16235212472E+04  0.16240416412E+04  0.00000000000E+00 0. -1.
          1    1    1    2  502    0 -0.45951879904E+02  0.39914522497E+02  0.54028179113E+02  0.81386660523E+02  0.00000000000E+00 0. -1.
         22    1    3    3    0    0 -0.31908609425E+02  0.34260587908E+02 -0.81323224513E+02  0.93837167926E+02  0.00000000000E+00 0. -1.
         22    1    3    3    0    0  0.37230499627E+02 -0.67912822252E+02 -0.25836293832E+03  0.26972146638E+03  0.00000000000E+00 0. -1.
</event>
<event>
 7    1  0.6294601E-006  0.1237340E+03  0.7818608E-02  0.1267613E+00
          2   -1    0    0  502    0  0.00000000000E+00  0.00000000000E+00  0.50777700068E+02  0.50777700068E+02  0.00000000000E+00 0. -1.
          1   -1    0    0  501    0 -0.00000000000E+00 -0.00000000000E+00 -0.28521956351E+04  0.28521956351E+04  0.00000000000E+00 0. -1.
         25    2    1    2    0    0 -0.52982186519E+02  0.56633692656E+02 -0.90116059018E+03  0.91308804748E+03  0.12499954371E+03 0.  0.
          2    1    1    2  501    0 -0.77608507441E+02 -0.48075253280E+02 -0.18459301262E+04  0.18481862301E+04  0.00000000000E+00 0. -1.
          1    1    1    2  502    0  0.13059069396E+03 -0.85584393755E+01 -0.54327218685E+02  0.14169905760E+03  0.00000000000E+00 0. -1.
         22    1    3    3    0    0 -0.28257859842E+02  0.86937047680E+01 -0.77885685290E+03  0.77941778556E+03  0.00000000000E+00 0. -1.
         22    1    3    3    0    0 -0.24724326677E+02  0.47939987888E+02 -0.12230373728E+03  0.13367026192E+03  0.00000000000E+00 0. -1.
</event>
<event>
 7    1  0.6294601E-006  0.9931613E+02  0.7818608E-02  0.1432468E+00
          2   -1    0    0  502    0  0.00000000000E+00  0.00000000000E+00  0.66440140462E+03  0.66440140462E+03  0.00000000000E+00 0. -1.
          1   -1    0    0  501    0 -0.00000000000E+00 -0.00000000000E+00 -0.11066492112E+04  0.11066492112E+04  0.00000000000E+00 0. -1.
         25    2    1    2    0    0 -0.67172516596E+02  0.59516823328E+02 -0.13078887758E+03  0.20195341140E+03  0.12500020253E+03 0.  0.
          2    1    1    2  501    0  0.90114861058E+02 -0.43962094300E+02 -0.93729746259E+03  0.94264515449E+03  0.00000000000E+00 0. -1.
          1    1    1    2  502    0 -0.22942344462E+02 -0.15554729029E+02  0.62583853357E+03  0.62645204994E+03  0.00000000000E+00 0. -1.
         22    1    3    3    0    0 -0.54451899466E+02  0.20800099066E+02  0.65868622403E+01  0.58660380418E+02  0.00000000000E+00 0. -1.
         22    1    3    3    0    0 -0.12720617131E+02  0.38716724263E+02 -0.13737573982E+03  0.14329303098E+03  0.00000000000E+00 0. -1.
</event>
<event>
 7    1  0.6294601E-006  0.9243137E+02  0.7818608E-02  0.1329401E+00
          2   -1    0    0  502    0  0.00000000000E+00  0.00000000000E+00  0.76602066457E+02  0.76602066457E+02  0.00000000000E+00 0. -1.
          1   -1    0    0  501    0 -0.00000000000E+00 -0.00000000000E+00 -0.36926272351E+03  0.36926272351E+03  0.00000000000E+00 0. -1.
         25    2    1    2    0    0 -0.39211540159E+02 -0.29717914097E+02 -0.16745055119E+03  0.21467540849E+03  0.12500057848E+03 0.  0.
          2    1    1    2  501    0 -0.68760112160E+02  0.60717842381E+01 -0.93462393959E+02  0.11618966681E+03  0.00000000000E+00 0. -1.
          1    1    1    2  502    0  0.10797165232E+03  0.23646129859E+02 -0.31747711908E+02  0.11499971467E+03  0.00000000000E+00 0. -1.
         22    1    3    3    0    0 -0.11284252339E+02  0.15290412968E+02 -0.16007104467E+03  0.16119513150E+03  0.00000000000E+00 0.  1.
         22    1    3    3    0    0 -0.27927287821E+02 -0.45008327066E+02 -0.73795065166E+01  0.53480276988E+02  0.00000000000E+00 0.  1.
</event>
<event>
 7    1  0.6294601E-006  0.4523502E+02  0.7818608E-02  0.1505877E+00
          2   -1    0    0  502    0  0.00000000000E+00  0.00000000000E+00  0.92119920424E+03  0.92119920424E+03  0.00000000000E+00 0. -1.
          1   -1    0    0  501    0 -0.00000000000E+00 -0.00000000000E+00 -0.19828629989E+03  0.19828629989E+03  0.00000000000E+00 0. -1.
         25    2    1    2    0    0 -0.31335176918E+02 -0.14774082773E+02 -0.13826099936E+03  0.18957289816E+03  0.12498645103E+03 0.  0.
          2    1    1    2  501    0  0.34709072999E+02 -0.30334937714E+02 -0.18065382009E+02  0.49510465779E+02  0.00000000000E+00 0. -1.
          1    1    1    2  502    0 -0.33738960814E+01  0.45109020487E+02  0.87923928571E+03  0.88040214019E+03  0.00000000000E+00 0. -1.
         22    1    3    3    0    0 -0.20535142430E+02  0.31772115439E+02 -0.13662106344E+03  0.14176203431E+03  0.00000000000E+00 0. -1.
         22    1    3    3    0    0 -0.10800034488E+02 -0.46546198212E+02 -0.16399359147E+01  0.47810863857E+02  0.00000000000E+00 0. -1.
</event>
<event>
 7    1  0.6294601E-006  0.7073006E+02  0.7818608E-02  0.1438427E+00
          2   -1    0    0  502    0  0.00000000000E+00  0.00000000000E+00  0.56836790730E+03  0.56836790730E+03  0.00000000000E+00 0. -1.
          1   -1    0    0  501    0 -0.00000000000E+00 -0.00000000000E+00 -0.70288757567E+03  0.70288757567E+03  0.00000000000E+00 0. -1.
         25    2    1    2    0    0  0.48230801236E+02 -0.53332126125E+01  0.25511024590E+03  0.28820223348E+03  0.12499854590E+03 0.  0.
          2    1    1    2  501    0  0.27891243063E+02  0.24637975314E+02 -0.68062801679E+03  0.68164466440E+03  0.00000000000E+00 0. -1.
          1    1    1    2  502    0 -0.76122044299E+02 -0.19304762701E+02  0.29099810253E+03  0.30140858509E+03  0.00000000000E+00 0. -1.
         22    1    3    3    0    0  0.17420363851E+02 -0.22978356929E+02 -0.17607709055E+01  0.28888999257E+02  0.00000000000E+00 0.  1.
         22    1    3    3    0    0  0.30810437384E+02  0.17645144317E+02  0.25687101681E+03  0.25931323423E+03  0.00000000000E+00 0.  1.
</event>
<event>
 7    1  0.6294601E-006  0.3109364E+02  0.7818608E-02  0.1610479E+00
          2   -1    0    0  502    0  0.00000000000E+00  0.00000000000E+00  0.13928536155E+04  0.13928536155E+04  0.00000000000E+00 0. -1.
          1   -1    0    0  501    0 -0.00000000000E+00 -0.00000000000E+00 -0.10392718760E+03  0.10392718760E+03  0.00000000000E+00 0. -1.
         25    2    1    2    0    0  0.51979662492E+02  0.33271102323E+01  0.12846962395E+02  0.13603347246E+03  0.12500842456E+03 0.  0.
          2    1    1    2  501    0 -0.26887610702E+02 -0.12957307114E+02 -0.36918498138E+02  0.47474318548E+02  0.00000000000E+00 0. -1.
          1    1    1    2  502    0 -0.25092051790E+02  0.96301968814E+01  0.13129979637E+04  0.13132730121E+04  0.00000000000E+00 0. -1.
         22    1    3    3    0    0  0.56465011077E+02  0.33558126544E+02 -0.38605012487E+02  0.76189187698E+02  0.00000000000E+00 0. -1.
         22    1    3    3    0    0 -0.44853485850E+01 -0.30231016311E+02  0.51451974882E+02  0.59844284760E+02  0.00000000000E+00 0. -1.
</event>
<event>
 7    1  0.6294601E-006  0.5700686E+02  0.7818608E-02  0.1475075E+00
          2   -1    0    0  502    0  0.00000000000E+00  0.00000000000E+00  0.16083225369E+04  0.16083225369E+04  0.00000000000E+00 0. -1.
          1   -1    0    0  501    0 -0.00000000000E+00 -0.00000000000E+00 -0.22556869597E+02  0.22556869597E+02  0.00000000000E+00 0. -1.
         25    2    1    2    0    0  0.81583300822E+02  0.29310279886E+02  0.95872095044E+03  0.97071402069E+03  0.12499968670E+03 0.  0.
          2    1    1    2  501    0 -0.34391112558E+02 -0.81215050928E+01  0.46697897412E+01  0.35644275897E+02  0.00000000000E+00 0. -1.
          1    1    1    2  502    0 -0.47192188264E+02 -0.21188774793E+02  0.62237492716E+03  0.62452110994E+03  0.00000000000E+00 0. -1.
         22    1    3    3    0    0  0.96695088775E+02  0.14674214267E+02  0.92991432014E+03  0.93504326935E+03  0.00000000000E+00 0.  1.
         22    1    3    3    0    0 -0.15111787953E+02  0.14636065619E+02  0.28806630295E+02  0.35670751336E+02  0.00000000000E+00 0.  1.
</event>
<event>
 7    1  0.6294601E-006  0.1053158E+03  0.7818608E-02  0.1394155E+00
          2   -1    0    0  502    0  0.00000000000E+00  0.00000000000E+00  0.63822915021E+02  0.63822915021E+02  0.00000000000E+00 0. -1.
          1   -1    0    0  501    0 -0.00000000000E+00 -0.00000000000E+00 -0.45516364242E+03  0.45516364242E+03  0.00000000000E+00 0. -1.
         25    2    1    2    0    0  0.54222990895E+02  0.60949838253E+02 -0.17754459854E+03  0.23195250572E+03  0.12499945965E+03 0.  0.
          2    1    1    2  501    0  0.21977271539E+02  0.27494640048E+02 -0.14984298379E+03  0.15392165373E+03  0.00000000000E+00 0. -1.
          1    1    1    2  502    0 -0.76200262434E+02 -0.88444478301E+02 -0.63953145073E+02  0.13311239800E+03  0.00000000000E+00 0. -1.
         22    1    3    3    0    0 -0.36674765093E+02  0.28468551097E+02 -0.91665592392E+02  0.10275250666E+03  0.00000000000E+00 0. -1.
         22    1    3    3    0    0  0.90897755988E+02  0.32481287156E+02 -0.85879006150E+02  0.12919999906E+03  0.00000000000E+00 0. -1.
</event>
<event>
 7    1  0.6294601E-006  0.1673327E+03  0.7818608E-02  0.1192921E+00
          2   -1    0    0  502    0  0.00000000000E+00  0.00000000000E+00  0.12768278522E+04  0.12768278522E+04  0.00000000000E+00 0. -1.
          1   -1    0    0  501    0 -0.00000000000E+00 -0.00000000000E+00 -0.92230169780E+03  0.92230169780E+03  0.00000000000E+00 0. -1.
         25    2    1    2    0    0  0.16666362145E+03  0.14094630460E+02 -0.90891304416E+02  0.22771560083E+03  0.12497097391E+03 0.  0.
          2    1    1    2  501    0 -0.10004605033E+03 -0.14403559147E+03 -0.74841339575E+03  0.76868594025E+03  0.00000000000E+00 0. -1.
          1    1    1    2  502    0 -0.66617571124E+02  0.12994096101E+03  0.11938308545E+04  0.12027280089E+04  0.00000000000E+00 0. -1.
         22    1    3    3    0    0  0.66756090459E+02 -0.10275426090E+02 -0.10404013345E+03  0.12404156305E+03  0.00000000000E+00 0.  1.
         22    1    3    3    0    0  0.99907530991E+02  0.24370056551E+02  0.13148829033E+02  0.10367403778E+03  0.00000000000E+00 0.  1.
</event>
<event>
 7    1  0.6294601E-006  0.5406252E+02  0.7818608E-02  0.1444760E+00
          2   -1    0    0  502    0  0.00000000000E+00  0.00000000000E+00  0.22702302138E+03  0.22702302138E+03  0.00000000000E+00 0. -1.
          1   -1    0    0  501    0 -0.00000000000E+00 -0.00000000000E+00 -0.12779425851E+04  0.12779425851E+04  0.00000000000E+00 0. -1.
         25    2    1    2    0    0  0.43575514924E+02  0.85756051564E+02 -0.63739969785E+02  0.17012052457E+03  0.12500113300E+03 0.  0.
          2    1    1    2  501    0 -0.35707026117E+02 -0.39984902427E+02 -0.11572787602E+04  0.11585197077E+04  0.00000000000E+00 0. -1.
          1    1    1    2  502    0 -0.78684888070E+01 -0.45771149137E+02  0.17009916633E+03  0.17632537422E+03  0.00000000000E+00 0. -1.
         22    1    3    3    0    0  0.32551929258E+02  0.10128285842E+03 -0.29589954596E+01  0.10642650592E+03  0.00000000000E+00 0. -1.
         22    1    3    3    0    0  0.11023585666E+02 -0.15526806858E+02 -0.60780974326E+02  0.63694018653E+02  0.00000000000E+00 0. -1.
</event>
<event>
 7    1  0.6294601E-006  0.4114490E+02  0.7818608E-02  0.1538252E+00
          2   -1    0    0  502    0  0.00000000000E+00  0.00000000000E+00  0.69841021759E+03  0.69841021759E+03  0.00000000000E+00 0. -1.
          1   -1    0    0  501    0 -0.00000000000E+00 -0.00000000000E+00 -0.97101244369E+03  0.97101244369E+03  0.00000000000E+00 0. -1.
         25    2    1    2    0    0  0.27294705350E+01 -0.68142033614E+02  0.11505532167E+02  0.14285867057E+03  0.12500174292E+03 0.  0.
          2    1    1    2  501    0 -0.13698907557E+02  0.28739864031E+02 -0.90438224867E+03  0.90494247970E+03  0.00000000000E+00 0. -1.
          1    1    1    2  502    0  0.10969437022E+02  0.39402169583E+02  0.62027449040E+03  0.62162151102E+03  0.00000000000E+00 0. -1.
         22    1    3    3    0    0 -0.28924677982E+02 -0.48577201937E+02  0.59533542385E+02  0.82101304577E+02  0.00000000000E+00 0.  1.
         22    1    3    3    0    0  0.31654148517E+02 -0.19564831677E+02 -0.48028010219E+02  0.60757365993E+02  0.00000000000E+00 0.  1.
</event>
<event>
 7    1  0.6294601E-006  0.1487660E+03  0.7818608E-02  0.1352163E+00
          2   -1    0    0  502    0  0.00000000000E+00  0.00000000000E+00  0.14611179904E+04  0.14611179904E+04  0.00000000000E+00 0. -1.
          1   -1    0    0  501    0 -0.00000000000E+00 -0.00000000000E+00 -0.59725440844E+03  0.59725440844E+03  0.00000000000E+00 0. -1.
         25    2    1    2    0    0  0.49053185895E+02 -0.15230035282E+03  0.22794367875E+02  0.20431926140E+03  0.12500065943E+03 0.  0.
          2    1    1    2  501    0 -0.14184059248E+02  0.14733442057E+03 -0.49544109969E+03  0.51707881632E+03  0.00000000000E+00 0. -1.
          1    1    1    2  502    0 -0.34869126646E+02  0.49659322532E+01  0.13365103138E+04  0.13369743211E+04  0.00000000000E+00 0. -1.
         22    1    3    3    0    0  0.81790540955E+02 -0.14352431427E+03  0.33145210320E+01  0.16522683628E+03  0.00000000000E+00 0.  1.
         22    1    3    3    0    0 -0.32737355061E+02 -0.87760385506E+01  0.19479846843E+02  0.39092425123E+02  0.00000000000E+00 0.  1.
</event>
<event>
 7    1  0.6294601E-006  0.5946036E+02  0.7818608E-02  0.1481365E+00
          2   -1    0    0  502    0  0.00000000000E+00  0.00000000000E+00  0.25617974621E+04  0.25617974621E+04  0.00000000000E+00 0. -1.
          1   -1    0    0  501    0 -0.00000000000E+00 -0.00000000000E+00 -0.55192085928E+02  0.55192085928E+02  0.00000000000E+00 0. -1.
         25    2    1    2    0    0 -0.59013529197E+02 -0.43792057973E+02  0.42158219362E+03  0.44582006226E+03  0.12499456373E+03 0.  0.
          2    1    1    2  501    0  0.27724338106E+02  0.52215567207E+02 -0.22603928784E+02  0.63293301214E+02  0.00000000000E+00 0. -1.
          1    1    1    2  502    0  0.31289191091E+02 -0.84235092339E+01  0.21076271113E+04  0.21078761845E+04  0.00000000000E+00 0. -1.
         22    1    3    3    0    0  0.34293824011E+02 -0.38210303579E+02  0.16022562666E+03  0.16825083983E+03  0.00000000000E+00 0. -1.
         22    1    3    3    0    0 -0.93307353208E+02 -0.55817543935E+01  0.26135656697E+03  0.27756922243E+03  0.00000000000E+00 0. -1.
</event>
<event>
 7    1  0.6294601E-006  0.2769430E+02  0.7818608E-02  0.1632145E+00
          2   -1    0    0  502    0  0.00000000000E+00  0.00000000000E+00  0.55683169535E+03  0.55683169535E+03  0.00000000000E+00 0. -1.
          1   -1    0    0  501    0 -0.00000000000E+00 -0.00000000000E+00 -0.26425750248E+03  0.26425750248E+03  0.00000000000E+00 0. -1.
         25    2    1    2    0    0 -0.38665594206E+02 -0.41047429657E+01 -0.12141356691E+03  0.17854342353E+03  0.12499849105E+03 0.  0.
          2    1    1    2  501    0  0.20558840136E+02 -0.16848120739E+02 -0.11236446461E+03  0.11546557057E+03  0.00000000000E+00 0. -1.
          1    1    1    2  502    0  0.18106754071E+02  0.20952863705E+02  0.52635222439E+03  0.52708020373E+03  0.00000000000E+00 0. -1.
         22    1    3    3    0    0 -0.42851399802E+02  0.52998294824E+02 -0.40043058312E+02  0.79047506211E+02  0.00000000000E+00 0.  1.
         22    1    3    3    0    0  0.41858055963E+01 -0.57103037789E+02 -0.81370508595E+02  0.99495917314E+02  0.00000000000E+00 0.  1.
</event>
<event>
 7    1  0.6294601E-006  0.1245645E+03  0.7818608E-02  0.1392910E+00
          2   -1    0    0  502    0  0.00000000000E+00  0.00000000000E+00  0.11270832411E+04  0.11270832411E+04  0.00000000000E+00 0. -1.
          1   -1    0    0  501    0 -0.00000000000E+00 -0.00000000000E+00 -0.12053867101E+03  0.12053867101E+03  0.00000000000E+00 0. -1.
         25    2    1    2    0    0 -0.55552156944E+02  0.94182082453E+02  0.39789613372E+03  0.43116281437E+03  0.12499492976E+03 0.  0.
          2    1    1    2  501    0  0.85574486282E+02 -0.92736493155E+02 -0.65134918698E+02  0.14200566009E+03  0.00000000000E+00 0. -1.
          1    1    1    2  502    0 -0.30022329338E+02 -0.14455892977E+01  0.67378335510E+03  0.67445343768E+03  0.00000000000E+00 0. -1.
         22    1    3    3    0    0  0.11102167160E+02  0.89127011333E+02  0.15405339995E+03  0.17832367286E+03  0.00000000000E+00 0. -1.
         22    1    3    3    0    0 -0.66654324104E+02  0.50550711199E+01  0.24384273377E+03  0.25283914151E+03  0.00000000000E+00 0. -1.
</event>
<event>
 7    1  0.6294601E-006  0.1108435E+03  0.7818608E-02  0.1313987E+00
          2   -1    0    0  502    0  0.00000000000E+00  0.00000000000E+00  0.22036402887E+03  0.22036402887E+03  0.00000000000E+00 0. -1.
          1   -1    0    0  501    0 -0.00000000000E+00 -0.00000000000E+00 -0.52242455833E+03  0.52242455833E+03  0.00000000000E+00 0. -1.
         25    2    1    2    0    0 -0.16120098777E+03  0.44090931043E+02 -0.44983544684E+02  0.21349077851E+03  0.12500009824E+03 0.  0.
          2    1    1    2  501    0  0.65618344662E+02 -0.74160506891E+01 -0.37059571508E+03  0.37643319328E+03  0.00000000000E+00 0. -1.
          1    1    1    2  502    0  0.95582643111E+02 -0.36674880354E+02  0.11351873031E+03  0.15286461541E+03  0.00000000000E+00 0. -1.
         22    1    3    3    0    0 -0.75529338811E+02  0.78968530021E+02  0.29424116347E+01  0.10931316271E+03  0.00000000000E+00 0.  1.
         22    1    3    3    0    0 -0.85671648962E+02 -0.34877598978E+02 -0.47925956319E+02  0.10417761581E+03  0.00000000000E+00 0.  1.
</event>
<event>
 7    1  0.1514781E-005  0.5555230E+02  0.7818608E-02  0.1452115E+00
          2   -1    0    0  502    0  0.00000000000E+00  0.00000000000E+00  0.21929113625E+04  0.21929113625E+04  0.00000000000E+00 0. -1.
          1   -1    0    0  501    0 -0.00000000000E+00 -0.00000000000E+00 -0.78364046201E+03  0.78364046201E+03  0.00000000000E+00 0. -1.
         25    2    1    2    0    0 -0.18627660657E+02 -0.66562895308E+02 -0.26388667548E+03  0.30006750536E+03  0.12500688581E+03 0.  0.
          2    1    1    2  501    0 -0.21359461270E+02  0.51279698901E+02 -0.49991412000E+03  0.50299101531E+03  0.00000000000E+00 0. -1.
          1    1    1    2  502    0  0.39987121927E+02  0.15283196407E+02  0.21730716960E+04  0.21734933039E+04  0.00000000000E+00 0. -1.
         22    1    3    3    0    0 -0.47375723858E+02  0.69208058164E+01 -0.39041878787E+02  0.61778839932E+02  0.00000000000E+00 0.  1.
         22    1    3    3    0    0  0.28748063200E+02 -0.73483701124E+02 -0.22484479670E+03  0.23828866542E+03  0.00000000000E+00 0.  1.
</event>
<event>
 7    1  0.7318207E-006  0.6229799E+02  0.7818608E-02  0.1423386E+00
          2   -1    0    0  502    0  0.00000000000E+00  0.00000000000E+00  0.65757472870E+03  0.65757472870E+03  0.00000000000E+00 0. -1.
          1   -1    0    0  501    0 -0.00000000000E+00 -0.00000000000E+00 -0.10750990690E+04  0.10750990690E+04  0.00000000000E+00 0. -1.
         25    2    1    2    0    0  0.28318770610E+02  0.93154111060E+02 -0.28961035791E+03  0.33011987210E+03  0.12500131747E+03 0.  0.
          2    1    1    2  501    0 -0.38410443578E+02 -0.46894076004E+02 -0.76315108787E+03  0.76555470050E+03  0.00000000000E+00 0. -1.
          1    1    1    2  502    0  0.10091672968E+02 -0.46260035056E+02  0.63523710544E+03  0.63699922515E+03  0.00000000000E+00 0. -1.
         22    1    3    3    0    0  0.12932889867E+02  0.12362542812E+03 -0.22872758536E+03  0.26032059931E+03  0.00000000000E+00 0. -1.
         22    1    3    3    0    0  0.15385880743E+02 -0.30471317055E+02 -0.60882772548E+02  0.69799272793E+02  0.00000000000E+00 0. -1.
</event>
<event>
 7    1  0.6294601E-006  0.8902818E+02  0.7818608E-02  0.1448409E+00
          2   -1    0    0  502    0  0.00000000000E+00  0.00000000000E+00  0.13418535874E+03  0.13418535874E+03  0.00000000000E+00 0. -1.
          1   -1    0    0  501    0 -0.00000000000E+00 -0.00000000000E+00 -0.30628285845E+03  0.30628285845E+03  0.00000000000E+00 0. -1.
         25    2    1    2    0    0  0.83475554872E+02 -0.79779441525E+01 -0.64731533184E+02  0.16384804865E+03  0.12499678318E+03 0.  0.
          2    1    1    2  501    0 -0.83686158141E+02  0.35427916191E+02 -0.17853922596E+03  0.20033663049E+03  0.00000000000E+00 0. -1.
          1    1    1    2  502    0  0.21060326918E+00 -0.27449972039E+02  0.71173259429E+02  0.76283538044E+02  0.00000000000E+00 0. -1.
         22    1    3    3    0    0 -0.93071235299E+01 -0.18605155355E+02  0.26231926637E+02  0.33479670387E+02  0.00000000000E+00 0. -1.
         22    1    3    3    0    0  0.92782678402E+02  0.10627211202E+02 -0.90963459820E+02  0.13036837827E+03  0.00000000000E+00 0. -1.
</event>
<event>
 7    1  0.6294601E-006  0.7156237E+02  0.7818608E-02  0.1382655E+00
          2   -1    0    0  502    0  0.00000000000E+00  0.00000000000E+00  0.53931461139E+03  0.53931461139E+03  0.00000000000E+00 0. -1.
          1   -1    0    0  501    0 -0.00000000000E+00 -0.00000000000E+00 -0.17429754663E+03  0.17429754663E+03  0.00000000000E+00 0. -1.
         25    2    1    2    0    0 -0.55895033015E+02 -0.38879075824E+01  0.14951684714E+03  0.20277974358E+03  0.12499986514E+03 0.  0.
          2    1    1    2  501    0  0.84930165871E+01 -0.56189659536E+02 -0.13794794579E+03  0.14919465445E+03  0.00000000000E+00 0. -1.
          1    1    1    2  502    0  0.47402016428E+02  0.60077567118E+02  0.35344816341E+03  0.36163775999E+03  0.00000000000E+00 0. -1.
         22    1    3    3    0    0 -0.69968815441E+02 -0.19835983543E+02  0.16238023061E+03  0.17792256931E+03  0.00000000000E+00 0. -1.
         22    1    3    3    0    0  0.14073782426E+02  0.15948075961E+02 -0.12863383465E+02  0.24857174272E+02  0.00000000000E+00 0. -1.
</event>
<event>
 7    1  0.6294601E-006  0.3126703E+03  0.7818608E-02  0.1231842E+00
          2   -1    0    0  502    0  0.00000000000E+00  0.00000000000E+00  0.23500763996E+04  0.23500763996E+04  0.00000000000E+00 0. -1.
          1   -1    0    0  501    0 -0.00000000000E+00 -0.00000000000E+00 -0.17528370601E+03  0.17528370601E+03  0.00000000000E+00 0. -1.
         25    2    1    2    0    0  0.28457849355E+03 -0.20556648587E+03  0.50875972088E+03  0.63063831848E+03  0.12500294413E+03 0.  0.
          2    1    1    2  501    0 -0.24328991317E+03  0.17452465172E+03  0.82807731611E+02  0.31065407824E+03  0.00000000000E+00 0. -1.
          1    1    1    2  502    0 -0.41288580373E+02  0.31041834153E+02  0.15832252411E+04  0.15840677089E+04  0.00000000000E+00 0. -1.
         22    1    3    3    0    0  0.26955249625E+03 -0.13750244960E+03  0.40255165650E+03  0.50360034554E+03  0.00000000000E+00 0.  1.
         22    1    3    3    0    0  0.15025997298E+02 -0.68064036270E+02  0.10620806438E+03  0.12703797294E+03  0.00000000000E+00 0.  1.
</event>
<event>
 7    1  0.6294601E-006  0.1080051E+03  0.7818608E-02  0.1314169E+00
          2   -1    0    0  502    0  0.00000000000E+00  0.00000000000E+00  0.70975381146E+03  0.70975381146E+03  0.00000000000E+00 0. -1.
          1   -1    0    0  501    0 -0.00000000000E+00 -0.00000000000E+00 -0.18735995555E+04  0.18735995555E+04  0.00000000000E+00 0. -1.
         25    2    1    2    0    0 -0.17342328967E+02 -0.53086062118E+02 -0.91040068808E+02  0.16439120394E+03  0.12496914595E+03 0.  0.
          2    1    1    2  501    0 -0.21005288930E+02  0.10882987445E+03 -0.17424182144E+04  0.17459399754E+04  0.00000000000E+00 0. -1.
          1    1    1    2  502    0  0.38347617897E+02 -0.55743812336E+02  0.66961253918E+03  0.67302218763E+03  0.00000000000E+00 0. -1.
         22    1    3    3    0    0  0.50644367808E+02 -0.22558200794E+02 -0.13954709560E+02  0.57170432328E+02  0.00000000000E+00 0.  1.
         22    1    3    3    0    0 -0.67986696775E+02 -0.30527861324E+02 -0.77085359248E+02  0.10722077162E+03  0.00000000000E+00 0.  1.
</event>
<event>
 7    1  0.6294601E-006  0.6146353E+02  0.7818608E-02  0.1439974E+00
          2   -1    0    0  502    0  0.00000000000E+00  0.00000000000E+00  0.24402610916E+04  0.24402610916E+04  0.00000000000E+00 0. -1.
          1   -1    0    0  501    0 -0.00000000000E+00 -0.00000000000E+00 -0.80382219497E+02  0.80382219497E+02  0.00000000000E+00 0. -1.
         25    2    1    2    0    0  0.69918504411E+02 -0.88282497987E+01  0.10931362240E+04  0.11025137169E+04  0.12499262558E+03 0.  0.
          2    1    1    2  501    0 -0.44386178707E+02  0.42594609154E+02 -0.62801502935E+02  0.87911673628E+02  0.00000000000E+00 0. -1.
          1    1    1    2  502    0 -0.25532325704E+02 -0.33766359356E+02  0.13295441511E+04  0.13302179206E+04  0.00000000000E+00 0. -1.
         22    1    3    3    0    0  0.67470855028E+02  0.33723114376E+02  0.34430743910E+03  0.35247294554E+03  0.00000000000E+00 0. -1.
         22    1    3    3    0    0  0.24476493834E+01 -0.42551364175E+02  0.74882878491E+03  0.75004077135E+03  0.00000000000E+00 0. -1.
</event>
<event>
 7    1  0.6294601E-006  0.3642051E+02  0.7818608E-02  0.1541055E+00
          2   -1    0    0  502    0  0.00000000000E+00  0.00000000000E+00  0.34081501444E+03  0.34081501444E+03  0.00000000000E+00 0. -1.
          1   -1    0    0  501    0 -0.00000000000E+00 -0.00000000000E+00 -0.13051416681E+03  0.13051416681E+03  0.00000000000E+00 0. -1.
         25    2    1    2    0    0 -0.10978836585E+01  0.13212045838E+02  0.96707034362E+02  0.15860296501E+03  0.12500754581E+03 0.  0.
          2    1    1    2  501    0 -0.34174980552E+02 -0.14974877550E+02 -0.94529964173E+02  0.10162721279E+03  0.00000000000E+00 0. -1.
          1    1    1    2  502    0  0.35272864211E+02  0.17628317121E+01  0.20812377743E+03  0.21109900345E+03  0.00000000000E+00 0. -1.
         22    1    3    3    0    0 -0.79187063666E+01 -0.25018149854E+02 -0.21661496165E+02  0.34026962085E+02  0.00000000000E+00 0.  1.
         22    1    3    3    0    0  0.68208227081E+01  0.38230195691E+02  0.11836853053E+03  0.12457600292E+03  0.00000000000E+00 0.  1.
</event>
<event>
 7    1  0.6294601E-006  0.9083139E+02  0.7818608E-02  0.1408011E+00
          2   -1    0    0  502    0  0.00000000000E+00  0.00000000000E+00  0.49516321436E+03  0.49516321436E+03  0.00000000000E+00 0. -1.
          1   -1    0    0  501    0 -0.00000000000E+00 -0.00000000000E+00 -0.71842898088E+03  0.71842898088E+03  0.00000000000E+00 0. -1.
         25    2    1    2    0    0  0.61650591291E+02  0.70830394291E+02 -0.94804310399E+02  0.18284018266E+03  0.12499973985E+03 0.  0.
          2    1    1    2  501    0 -0.28610820837E+02 -0.86523598765E+02 -0.57527264310E+03  0.58244615727E+03  0.00000000000E+00 0. -1.
          1    1    1    2  502    0 -0.33039770454E+02  0.15693204474E+02  0.44681118698E+03  0.44830585531E+03  0.00000000000E+00 0. -1.
         22    1    3    3    0    0  0.27641699272E+02  0.18874786676E+02  0.29031554470E+02  0.44307474151E+02  0.00000000000E+00 0.  1.
         22    1    3    3    0    0  0.34008892019E+02  0.51955607615E+02 -0.12383586487E+03  0.13853270851E+03  0.00000000000E+00 0.  1.
</event>
<event>
 7    1  0.1232628E-005  0.6981397E+02  0.7818608E-02  0.1363498E+00
          2   -1    0    0  502    0  0.00000000000E+00  0.00000000000E+00  0.82208420487E+03  0.82208420487E+03  0.00000000000E+00 0. -1.
          1   -1    0    0  501    0 -0.00000000000E+00 -0.00000000000E+00 -0.19900850525E+04  0.19900850525E+04  0.00000000000E+00 0. -1.
         25    2    1    2    0    0  0.25549926009E+02 -0.28746108445E+02 -0.10990888079E+04  0.11068459999E+04  0.12503088604E+03 0.  0.
          2    1    1    2  501    0 -0.60294240031E+02 -0.31898114992E+02 -0.88430923694E+03  0.88693613731E+03  0.00000000000E+00 0. -1.
          1    1    1    2  502    0  0.34744314022E+02  0.60644223437E+02  0.81539719720E+03  0.81838712013E+03  0.00000000000E+00 0. -1.
         22    1    3    3    0    0  0.31733005644E+02 -0.40696732272E+02 -0.17001412613E+03  0.17767388876E+03  0.00000000000E+00 0. -1.
         22    1    3    3    0    0 -0.61830796349E+01  0.11950623827E+02 -0.92907468173E+03  0.92917211114E+03  0.00000000000E+00 0. -1.
</event>
<event>
 7    1  0.7393592E-006  0.1534928E+03  0.7818608E-02  0.1280090E+00
          2   -1    0    0  502    0  0.00000000000E+00  0.00000000000E+00  0.18897175364E+04  0.18897175364E+04  0.00000000000E+00 0. -1.
          1   -1    0    0  501    0 -0.00000000000E+00 -0.00000000000E+00 -0.75913914064E+03  0.75913914064E+03  0.00000000000E+00 0. -1.
         25    2    1    2    0    0 -0.10583384188E+03  0.69115392018E+02 -0.15375304199E+03  0.23503874176E+03  0.12500189083E+03 0.  0.
          2    1    1    2  501    0 -0.46517598188E+02 -0.45795474483E+02 -0.55963113332E+03  0.56342534359E+03  0.00000000000E+00 0. -1.
          1    1    1    2  502    0  0.15235144007E+03 -0.23319917535E+02  0.18439625711E+04  0.18503925917E+04  0.00000000000E+00 0. -1.
         22    1    3    3    0    0 -0.53065387414E+02 -0.32760821169E+02 -0.64116641543E+02  0.89443560237E+02  0.00000000000E+00 0.  1.
         22    1    3    3    0    0 -0.52768454464E+02  0.10187621319E+03 -0.89636400444E+02  0.14559518153E+03  0.00000000000E+00 0.  1.
</event>
<event>
 7    1  0.6294601E-006  0.1261510E+03  0.7818608E-02  0.1378116E+00
          2   -1    0    0  502    0  0.00000000000E+00  0.00000000000E+00  0.14518900716E+04  0.14518900716E+04  0.00000000000E+00 0. -1.
          1   -1    0    0  501    0 -0.00000000000E+00 -0.00000000000E+00 -0.16341381400E+03  0.16341381400E+03  0.00000000000E+00 0. -1.
         25    2    1    2    0    0  0.50520238864E+02 -0.13655610411E+03 -0.95827672526E+01  0.19213941343E+03  0.12500344259E+03 0.  0.
          2    1    1    2  501    0 -0.28267023899E+02  0.11157931536E+03 -0.92058005169E+01  0.11547170658E+03  0.00000000000E+00 0. -1.
          1    1    1    2  502    0 -0.22253214966E+02  0.24976788750E+02  0.13072648254E+04  0.13076927656E+04  0.00000000000E+00 0. -1.
         22    1    3    3    0    0  0.88143273394E+01 -0.54321336302E+02  0.56366441836E+02  0.78776111286E+02  0.00000000000E+00 0. -1.
         22    1    3    3    0    0  0.41705911525E+02 -0.82234767811E+02 -0.65949209089E+02  0.11336330214E+03  0.00000000000E+00 0. -1.
</event>
<event>
 7    1  0.6294601E-006  0.1050955E+03  0.7818608E-02  0.1283787E+00
          2   -1    0    0  502    0  0.00000000000E+00  0.00000000000E+00  0.12964633145E+04  0.12964633145E+04  0.00000000000E+00 0. -1.
          1   -1    0    0  501    0 -0.00000000000E+00 -0.00000000000E+00 -0.56213625698E+03  0.56213625698E+03  0.00000000000E+00 0. -1.
         25    2    1    2    0    0 -0.92070653006E+02  0.65717853716E+02  0.42753822976E+03  0.45957524411E+03  0.12499850262E+03 0.  0.
          2    1    1    2  501    0  0.10226160257E+03  0.25769024437E+02 -0.53850443753E+03  0.54873354847E+03  0.00000000000E+00 0. -1.
          1    1    1    2  502    0 -0.10190949564E+02 -0.91486878153E+02  0.84529326528E+03  0.85029077888E+03  0.00000000000E+00 0. -1.
         22    1    3    3    0    0 -0.89421145158E+02  0.97053352728E+02  0.38265223612E+03  0.40476935195E+03  0.00000000000E+00 0.  1.
         22    1    3    3    0    0 -0.26495078476E+01 -0.31335499012E+02  0.44885993639E+02  0.54805892157E+02  0.00000000000E+00 0.  1.
</event>
<event>
 7    1  0.6294601E-006  0.3128736E+02  0.7818608E-02  0.1606329E+00
          2   -1    0    0  502    0  0.00000000000E+00  0.00000000000E+00  0.12657621848E+03  0.12657621848E+03  0.00000000000E+00 0. -1.
          1   -1    0    0  501    0 -0.00000000000E+00 -0.00000000000E+00 -0.26002534977E+03  0.26002534977E+03  0.00000000000E+00 0. -1.
         25    2    1    2    0    0 -0.38079038277E+02 -0.11101247407E+02  0.61314906081E+02  0.14476431394E+03  0.12499575206E+03 0.  0.
          2    1    1    2  501    0  0.27859153631E+02 -0.14297922366E+02 -0.20875556286E+03  0.21109108946E+03  0.00000000000E+00 0. -1.
          1    1    1    2  502    0  0.10219884646E+02  0.25399169773E+02  0.13991525484E+02  0.30746164846E+02  0.00000000000E+00 0. -1.
         22    1    3    3    0    0 -0.44324413670E+02  0.29060994620E+02  0.83164978542E+02  0.98618500857E+02  0.00000000000E+00 0. -1.
         22    1    3    3    0    0  0.62453753929E+01 -0.40162242027E+02 -0.21850072461E+02  0.46145813082E+02  0.00000000000E+00 0. -1.
</event>
<event>
 7    1  0.6294601E-006  0.5842856E+02  0.7818608E-02  0.1524747E+00
          2   -1    0    0  502    0  0.00000000000E+00  0.00000000000E+00  0.13311209157E+04  0.13311209157E+04  0.00000000000E+00 0. -1.
          1   -1    0    0  501    0 -0.00000000000E+00 -0.00000000000E+00 -0.11752937329E+03  0.11752937329E+03  0.00000000000E+00 0. -1.
         25    2    1    2    0    0  0.51592857061E+02  0.57854000037E+02  0.11201146409E+03  0.18487949912E+03  0.12499981155E+03 0.  0.
          2    1    1    2  501    0 -0.28512075516E+02 -0.49623219414E+02 -0.70853985489E+02  0.91080676408E+02  0.00000000000E+00 0. -1.
          1    1    1    2  502    0 -0.23080781545E+02 -0.82307806224E+01  0.11724340638E+04  0.11726901134E+04  0.00000000000E+00 0. -1.
         22    1    3    3    0    0  0.13375172059E+02 -0.36749123839E+02  0.94981310840E+01  0.40244351463E+02  0.00000000000E+00 0.  1.
         22    1    3    3    0    0  0.38217685003E+02  0.94603123876E+02  0.10251333301E+03  0.14463514766E+03  0.00000000000E+00 0.  1.
</event>
<event>
 7    1  0.6294601E-006  0.9914326E+02  0.7818608E-02  0.1328436E+00
          2   -1    0    0  502    0  0.00000000000E+00  0.00000000000E+00  0.47029121958E+03  0.47029121958E+03  0.00000000000E+00 0. -1.
          1   -1    0    0  501    0 -0.00000000000E+00 -0.00000000000E+00 -0.69596520661E+03  0.69596520661E+03  0.00000000000E+00 0. -1.
         25    2    1    2    0    0 -0.33947955877E+02 -0.13470226579E+03 -0.59608080789E+02  0.19615228255E+03  0.12500172214E+03 0.  0.
          2    1    1    2  501    0 -0.27686641618E+02  0.58702761317E+02 -0.56022941073E+03  0.56397655710E+03  0.00000000000E+00 0. -1.
          1    1    1    2  502    0  0.61634597495E+02  0.75999504477E+02  0.39416350448E+03  0.40612758655E+03  0.00000000000E+00 0. -1.
         22    1    3    3    0    0 -0.13757784905E+02 -0.89239980184E+01 -0.66583358698E+02  0.68573012488E+02  0.00000000000E+00 0.  1.
         22    1    3    3    0    0 -0.20190170972E+02 -0.12577826778E+03  0.69752779092E+01  0.12757927007E+03  0.00000000000E+00 0.  1.
</event>
<event>
 7    1  0.6294601E-006  0.9391458E+02  0.7818608E-02  0.1421628E+00
          2   -1    0    0  502    0  0.00000000000E+00  0.00000000000E+00  0.92007525372E+03  0.92007525372E+03  0.00000000000E+00 0. -1.
          1   -1    0    0  501    0 -0.00000000000E+00 -0.00000000000E+00 -0.52133421993E+03  0.52133421993E+03  0.00000000000E+00 0. -1.
         25    2    1    2    0    0  0.64514387912E+02  0.90848737928E+02  0.22738259555E+03  0.28238840967E+03  0.12499907891E+03 0.  0.
          2    1    1    2  501    0 -0.72009977089E+02 -0.59909679604E+02 -0.48900231915E+03  0.49789343704E+03  0.00000000000E+00 0. -1.
          1    1    1    2  502    0  0.74955891772E+01 -0.30939058323E+02  0.66036075740E+03  0.66112762694E+03  0.00000000000E+00 0. -1.
         22    1    3    3    0    0  0.47806026988E+02 -0.21083858264E+02  0.93250120887E+02  0.10689027243E+03  0.00000000000E+00 0. -1.
         22    1    3    3    0    0  0.16708360923E+02  0.11193259619E+03  0.13413247466E+03  0.17549813724E+03  0.00000000000E+00 0. -1.
</event>
<event>
 7    1  0.6294601E-006  0.4394215E+02  0.7818608E-02  0.1530968E+00
          2   -1    0    0  502    0  0.00000000000E+00  0.00000000000E+00  0.64639671505E+03  0.64639671505E+03  0.00000000000E+00 0. -1.
          1   -1    0    0  501    0 -0.00000000000E+00 -0.00000000000E+00 -0.23070129721E+03  0.23070129721E+03  0.00000000000E+00 0. -1.
         25    2    1    2    0    0  0.22750090846E+02 -0.34350848237E+02  0.11009103392E+03  0.17158962746E+03  0.12500166836E+03 0.  0.
          2    1    1    2  501    0  0.20332789549E+02  0.23755770504E+02 -0.19774776419E+03  0.20020473822E+03  0.00000000000E+00 0. -1.
          1    1    1    2  502    0 -0.43082880395E+02  0.10595077732E+02  0.50335214810E+03  0.50530364659E+03  0.00000000000E+00 0. -1.
         22    1    3    3    0    0 -0.16932391771E+02  0.36465873752E+02  0.70764091349E+02  0.81388097803E+02  0.00000000000E+00 0.  1.
         22    1    3    3    0    0  0.39682482617E+02 -0.70816721988E+02  0.39326942570E+02  0.90201529653E+02  0.00000000000E+00 0.  1.
</event>
<event>
 7    1  0.6294601E-006  0.2078411E+03  0.7818608E-02  0.1189284E+00
          2   -1    0    0  502    0  0.00000000000E+00  0.00000000000E+00  0.13891625533E+04  0.13891625533E+04  0.00000000000E+00 0. -1.
          1   -1    0    0  501    0 -0.00000000000E+00 -0.00000000000E+00 -0.20155480798E+03  0.20155480798E+03  0.00000000000E+00 0. -1.
         25    2    1    2    0    0 -0.44687740774E+02  0.23133469504E+03  0.10017066766E+03  0.28490768387E+03  0.12500196144E+03 0.  0.
          2    1    1    2  501    0 -0.95058218358E+02 -0.77065645314E+02 -0.62343920602E+02  0.13733878914E+03  0.00000000000E+00 0. -1.
          1    1    1    2  502    0  0.13974595913E+03 -0.15426904972E+03  0.11497809983E+04  0.11684708883E+04  0.00000000000E+00 0. -1.
         22    1    3    3    0    0 -0.76816310618E+02  0.19989190245E+03  0.54814440990E+02  0.22104782555E+03  0.00000000000E+00 0. -1.
         22    1    3    3    0    0  0.32128569844E+02  0.31442792588E+02  0.45356226672E+02  0.63859858314E+02  0.00000000000E+00 0. -1.
</event>
<event>
 7    1  0.6294601E-006  0.1118454E+03  0.7818608E-02  0.1298035E+00
          2   -1    0    0  502    0  0.00000000000E+00  0.00000000000E+00  0.95850457169E+02  0.95850457169E+02  0.00000000000E+00 0. -1.
          1   -1    0    0  501    0 -0.00000000000E+00 -0.00000000000E+00 -0.12861346944E+04  0.12861346944E+04  0.00000000000E+00 0. -1.
         25    2    1    2    0    0 -0.88634860929E+02  0.53724278176E+02 -0.93831113548E+02  0.18754173846E+03  0.12500075663E+03 0.  0.
          2    1    1    2  501    0  0.11235447375E+03  0.18170915321E+02 -0.11114526981E+04  0.11172648791E+04  0.00000000000E+00 0. -1.
          1    1    1    2  502    0 -0.23719612826E+02 -0.71895193497E+02  0.14999574418E+02  0.77178534019E+02  0.00000000000E+00 0. -1.
         22    1    3    3    0    0 -0.70119833342E+02 -0.20642328417E+02 -0.96962386069E+01  0.73735431059E+02  0.00000000000E+00 0. -1.
         22    1    3    3    0    0 -0.18515027587E+02  0.74366606592E+02 -0.84134874941E+02  0.11380630740E+03  0.00000000000E+00 0. -1.
</event>
<event>
 7    1  0.6294601E-006  0.5538739E+02  0.7818608E-02  0.1427789E+00
          2   -1    0    0  502    0  0.00000000000E+00  0.00000000000E+00  0.39370005679E+03  0.39370005679E+03  0.00000000000E+00 0. -1.
          1   -1    0    0  501    0 -0.00000000000E+00 -0.00000000000E+00 -0.15119518983E+03  0.15119518983E+03  0.00000000000E+00 0. -1.
         25    2    1    2    0    0 -0.88543750930E+01  0.12741510974E+02  0.13432199724E+03  0.18414083743E+03  0.12499881202E+03 0.  0.
          2    1    1    2  501    0  0.57155061227E+02  0.51167742930E+01 -0.11670292522E+03  0.13004789563E+03  0.00000000000E+00 0. -1.
          1    1    1    2  502    0 -0.48300686135E+02 -0.17858285267E+02  0.22488579495E+03  0.23070651357E+03  0.00000000000E+00 0. -1.
         22    1    3    3    0    0  0.34855250558E+02  0.39804511005E+02  0.16226462736E+02  0.55340633180E+02  0.00000000000E+00 0. -1.
         22    1    3    3    0    0 -0.43709625651E+02 -0.27063000031E+02  0.11809553450E+03  0.12880020425E+03  0.00000000000E+00 0. -1.
</event>
<event>
 7    1  0.6294601E-006  0.4244135E+02  0.7818608E-02  0.1551647E+00
          2   -1    0    0  502    0  0.00000000000E+00  0.00000000000E+00  0.24798253754E+03  0.24798253754E+03  0.00000000000E+00 0. -1.
          1   -1    0    0  501    0 -0.00000000000E+00 -0.00000000000E+00 -0.33272089394E+03  0.33272089394E+03  0.00000000000E+00 0. -1.
         25    2    1    2    0    0  0.93782440470E+01 -0.27149279136E+02 -0.41756242842E+02  0.13488219869E+03  0.12499835554E+03 0.  0.
          2    1    1    2  501    0 -0.37225326769E+02  0.22083446606E+02 -0.24147351618E+03  0.24532195700E+03  0.00000000000E+00 0. -1.
          1    1    1    2  502    0  0.27847082722E+02  0.50658325298E+01  0.19849140263E+03  0.20049927579E+03  0.00000000000E+00 0. -1.
         22    1    3    3    0    0  0.21992724686E+02 -0.14448901089E+02 -0.84520790409E+02  0.88522396562E+02  0.00000000000E+00 0. -1.
         22    1    3    3    0    0 -0.12614480639E+02 -0.12700378047E+02  0.42764547567E+02  0.46359802124E+02  0.00000000000E+00 0. -1.
</event>
<event>
 7    1  0.6294601E-006  0.7397798E+02  0.7818608E-02  0.1452339E+00
          2   -1    0    0  502    0  0.00000000000E+00  0.00000000000E+00  0.39054243598E+03  0.39054243598E+03  0.00000000000E+00 0. -1.
          1   -1    0    0  501    0 -0.00000000000E+00 -0.00000000000E+00 -0.42394497289E+03  0.42394497289E+03  0.00000000000E+00 0. -1.
         25    2    1    2    0    0  0.84897909763E+02  0.15755090463E+02  0.95477864240E+02  0.17943261496E+03  0.12499665112E+03 0.  0.
          2    1    1    2  501    0 -0.72495475321E+02  0.13844785733E+02 -0.37736068150E+03  0.38451054079E+03  0.00000000000E+00 0. -1.
          1    1    1    2  502    0 -0.12402434442E+02 -0.29599876197E+02  0.24848028035E+03  0.25054425312E+03  0.00000000000E+00 0. -1.
         22    1    3    3    0    0 -0.19843496959E+02 -0.30536144968E+02  0.32124507252E+02  0.48561347667E+02  0.00000000000E+00 0. -1.
         22    1    3    3    0    0  0.10474140672E+03  0.46291235432E+02  0.63353356988E+02  0.13087126729E+03  0.00000000000E+00 0. -1.
</event>
<event>
 7    1  0.6294601E-006  0.8078093E+02  0.7818608E-02  0.1478211E+00
          2   -1    0    0  502    0  0.00000000000E+00  0.00000000000E+00  0.39347294070E+03  0.39347294070E+03  0.00000000000E+00 0. -1.
          1   -1    0    0  501    0 -0.00000000000E+00 -0.00000000000E+00 -0.36560965658E+03  0.36560965658E+03  0.00000000000E+00 0. -1.
         25    2    1    2    0    0  0.18216606841E+02 -0.98916670520E+02 -0.14605307955E+03  0.21696085624E+03  0.12499663445E+03 0.  0.
          2    1    1    2  501    0  0.80563814466E+01  0.23019327617E+02 -0.17875982456E+03  0.18041582415E+03  0.00000000000E+00 0. -1.
          1    1    1    2  502    0 -0.26272988288E+02  0.75897342903E+02  0.35267618822E+03  0.36170591689E+03  0.00000000000E+00 0. -1.
         22    1    3    3    0    0  0.13522227716E+01 -0.40006648168E+02  0.16458259716E+02  0.43280881656E+02  0.00000000000E+00 0.  1.
         22    1    3    3    0    0  0.16864384070E+02 -0.58910022352E+02 -0.16251133926E+03  0.17367997459E+03  0.00000000000E+00 0.  1.
</event>
<event>
 7    1  0.6294601E-006  0.1060500E+03  0.7818608E-02  0.1298299E+00
          2   -1    0    0  502    0  0.00000000000E+00  0.00000000000E+00  0.13048724657E+04  0.13048724657E+04  0.00000000000E+00 0. -1.
          1   -1    0    0  501    0 -0.00000000000E+00 -0.00000000000E+00 -0.12034582070E+04  0.12034582070E+04  0.00000000000E+00 0. -1.
         25    2    1    2    0    0  0.11382237140E+02 -0.13591734749E+03  0.10364248447E+03  0.21206267652E+03  0.12500293402E+03 0.  0.
          2    1    1    2  501    0  0.54366447085E+02  0.90959865390E+02 -0.11454167071E+04  0.11503081503E+04  0.00000000000E+00 0. -1.
          1    1    1    2  502    0 -0.65748684225E+02  0.44957482096E+02  0.11431884813E+04  0.11459598460E+04  0.00000000000E+00 0. -1.
         22    1    3    3    0    0  0.61696871334E+02 -0.10370722048E+03  0.46284828408E+02  0.12924386582E+03  0.00000000000E+00 0. -1.
         22    1    3    3    0    0 -0.50314634195E+02 -0.32210127009E+02  0.57357656064E+02  0.82818810696E+02  0.00000000000E+00 0. -1.
</event>
<event>
 7    1  0.6294601E-006  0.1612762E+03  0.7818608E-02  0.1269017E+00
          2   -1    0    0  502    0  0.00000000000E+00  0.00000000000E+00  0.31410642648E+04  0.31410642648E+04  0.00000000000E+00 0. -1.
          1   -1    0    0  501    0 -0.00000000000E+00 -0.00000000000E+00 -0.35190354364E+03  0.35190354364E+03  0.00000000000E+00 0. -1.
         25    2    1    2    0    0  0.15650386032E+02  0.18223369743E+03 -0.18460505313E+03  0.28837160814E+03  0.12500041471E+03 0.  0.
          2    1    1    2  501    0 -0.63485436726E+02 -0.13237600558E+03 -0.68176149309E+02  0.16186968482E+03  0.00000000000E+00 0. -1.
          1    1    1    2  502    0  0.47835050693E+02 -0.49857691851E+02  0.30419419235E+04  0.30427265154E+04  0.00000000000E+00 0. -1.
         22    1    3    3    0    0 -0.53069460040E+02  0.57645952741E+02 -0.53340998040E+02  0.94787581087E+02  0.00000000000E+00 0.  1.
         22    1    3    3    0    0  0.68719846073E+02  0.12458774469E+03 -0.13126405509E+03  0.19358402705E+03  0.00000000000E+00 0.  1.
</event>
<event>
 7    1  0.6294601E-006  0.6215828E+02  0.7818608E-02  0.1433495E+00
          2   -1    0    0  502    0  0.00000000000E+00  0.00000000000E+00  0.80278589732E+03  0.80278589732E+03  0.00000000000E+00 0. -1.
          1   -1    0    0  501    0 -0.00000000000E+00 -0.00000000000E+00 -0.49012668686E+02  0.49012668686E+02  0.00000000000E+00 0. -1.
         25    2    1    2    0    0 -0.43671727057E+02  0.21580381437E+02  0.10457603713E+03  0.17010071320E+03  0.12500068994E+03 0.  0.
          2    1    1    2  501    0  0.37309398329E+02 -0.65063594920E+02  0.75853706302E+02  0.10667261761E+03  0.00000000000E+00 0. -1.
          1    1    1    2  502    0  0.63623287281E+01  0.43483213483E+02  0.57334348521E+03  0.57502523520E+03  0.00000000000E+00 0. -1.
         22    1    3    3    0    0 -0.65659061903E+02 -0.10996652307E+02  0.11181859117E+03  0.13013622133E+03  0.00000000000E+00 0.  1.
         22    1    3    3    0    0  0.21987334846E+02  0.32577033744E+02 -0.72425540452E+01  0.39964491868E+02  0.00000000000E+00 0.  1.
</event>
<event>
 7    1  0.6294601E-006  0.1545469E+03  0.7818608E-02  0.1265178E+00
          2   -1    0    0  502    0  0.00000000000E+00  0.00000000000E+00  0.20823053708E+04  0.20823053708E+04  0.00000000000E+00 0. -1.
          1   -1    0    0  501    0 -0.00000000000E+00 -0.00000000000E+00 -0.28746743640E+03  0.28746743640E+03  0.00000000000E+00 0. -1.
         25    2    1    2    0    0 -0.18675666096E+03 -0.10793670440E+03  0.39361264763E+02  0.25239717813E+03  0.12500657501E+03 0.  0.
          2    1    1    2  501    0  0.74747256737E+02  0.37780754029E+01 -0.17004590001E+03  0.18578760549E+03  0.00000000000E+00 0. -1.
          1    1    1    2  502    0  0.11200940422E+03  0.10415862900E+03  0.19255225696E+04  0.19315880236E+04  0.00000000000E+00 0. -1.
         22    1    3    3    0    0 -0.20063571775E+03 -0.11741901236E+03  0.35705567261E+02  0.23519524492E+03  0.00000000000E+00 0.  1.
         22    1    3    3    0    0  0.13879056796E+02  0.94823079588E+01  0.36556975015E+01  0.17201933205E+02  0.00000000000E+00 0.  1.
</event>
<event>
 7    1  0.6294601E-006  0.5904680E+02  0.7818608E-02  0.1536801E+00
          2   -1    0    0  502    0  0.00000000000E+00  0.00000000000E+00  0.12750930669E+04  0.12750930669E+04  0.00000000000E+00 0. -1.
          1   -1    0    0  501    0 -0.00000000000E+00 -0.00000000000E+00 -0.47029616697E+02  0.47029616697E+02  0.00000000000E+00 0. -1.
         25    2    1    2    0    0 -0.36036374767E+02  0.13625492861E+02  0.52039794485E+03  0.53658560161E+03  0.12500324988E+03 0.  0.
          2    1    1    2  501    0  0.52719857770E+02 -0.28567107623E+02 -0.15573359031E+02  0.61951533901E+02  0.00000000000E+00 0. -1.
          1    1    1    2  502    0 -0.16683483002E+02  0.14941614762E+02  0.72323886437E+03  0.72358554808E+03  0.00000000000E+00 0. -1.
         22    1    3    3    0    0  0.33412223870E+02 -0.12626281736E+02  0.33462607644E+03  0.33652698365E+03  0.00000000000E+00 0.  1.
         22    1    3    3    0    0 -0.69448598637E+02  0.26251774598E+02  0.18577186841E+03  0.20005861795E+03  0.00000000000E+00 0.  1.
</event>
<event>
 7    1  0.6294601E-006  0.9600732E+02  0.7818608E-02  0.1471543E+00
          2   -1    0    0  502    0  0.00000000000E+00  0.00000000000E+00  0.42856792939E+03  0.42856792939E+03  0.00000000000E+00 0. -1.
          1   -1    0    0  501    0 -0.00000000000E+00 -0.00000000000E+00 -0.95319050924E+02  0.95319050924E+02  0.00000000000E+00 0. -1.
         25    2    1    2    0    0 -0.88987822431E+02  0.21412035440E+02  0.40459243245E+02  0.16012444415E+03  0.12500231777E+03 0.  0.
          2    1    1    2  501    0  0.21817314026E+01  0.21406626137E+02 -0.24165802229E+02  0.32357218543E+02  0.00000000000E+00 0. -1.
          1    1    1    2  502    0  0.86806091029E+02 -0.42818661577E+02  0.31695543745E+03  0.33140531762E+03  0.00000000000E+00 0. -1.
         22    1    3    3    0    0 -0.11554671855E+03  0.40406079209E+01  0.51438208296E+02  0.12654351011E+03  0.00000000000E+00 0.  1.
         22    1    3    3    0    0  0.26558896117E+02  0.17371427519E+02 -0.10978965050E+02  0.33580934033E+02  0.00000000000E+00 0.  1.
</event>
<event>
 7    1  0.6294601E-006  0.1231394E+03  0.7818608E-02  0.1308353E+00
          2   -1    0    0  502    0  0.00000000000E+00  0.00000000000E+00  0.56885732461E+03  0.56885732461E+03  0.00000000000E+00 0. -1.
          1   -1    0    0  501    0 -0.00000000000E+00 -0.00000000000E+00 -0.31578367653E+03  0.31578367653E+03  0.00000000000E+00 0. -1.
         25    2    1    2    0    0  0.11837758996E+03  0.29873812565E+02  0.48121260958E+02  0.18124223757E+03  0.12500957741E+03 0.  0.
          2    1    1    2  501    0 -0.27560306368E+02  0.56156025052E+02 -0.23646433507E+03  0.24459855150E+03  0.00000000000E+00 0. -1.
          1    1    1    2  502    0 -0.90817283589E+02 -0.86029837617E+02  0.44141672219E+03  0.45880021206E+03  0.00000000000E+00 0. -1.
         22    1    3    3    0    0  0.86804358303E+02  0.28735977575E+02 -0.30596925753E+02  0.96420562606E+02  0.00000000000E+00 0. -1.
         22    1    3    3    0    0  0.31573231653E+02  0.11378349898E+01  0.78718186710E+02  0.84821674969E+02  0.00000000000E+00 0. -1.
</event>
<event>
 7    1  0.6294601E-006  0.1403290E+03  0.7818608E-02  0.1276273E+00
          2   -1    0    0  502    0  0.00000000000E+00  0.00000000000E+00  0.79241324114E+03  0.79241324114E+03  0.00000000000E+00 0. -1.
          1   -1    0    0  501    0 -0.00000000000E+00 -0.00000000000E+00 -0.17751010452E+04  0.17751010452E+04  0.00000000000E+00 0. -1.
         25    2    1    2    0    0 -0.77085696458E+02  0.23881945675E+02  0.53914981203E+02  0.15825202707E+03  0.12499730776E+03 0.  0.
          2    1    1    2  501    0 -0.51822905452E+02  0.52893237138E+02 -0.17139234265E+04  0.17155223170E+04  0.00000000000E+00 0. -1.
          1    1    1    2  502    0  0.12890860191E+03 -0.76775182812E+02  0.67732064130E+03  0.69373994225E+03  0.00000000000E+00 0. -1.
         22    1    3    3    0    0 -0.15232422515E+02 -0.43090912700E+02  0.48922466786E+02  0.66949691631E+02  0.00000000000E+00 0. -1.
         22    1    3    3    0    0 -0.61853273944E+02  0.66972858375E+02  0.49925144164E+01  0.91302335439E+02  0.00000000000E+00 0. -1.
</event>
<event>
 7    1  0.6294601E-006  0.1880311E+03  0.7818608E-02  0.1315699E+00
          2   -1    0    0  502    0  0.00000000000E+00  0.00000000000E+00  0.30410594003E+03  0.30410594003E+03  0.00000000000E+00 0. -1.
          1   -1    0    0  501    0 -0.00000000000E+00 -0.00000000000E+00 -0.41282110676E+03  0.41282110676E+03  0.00000000000E+00 0. -1.
         25    2    1    2    0    0  0.40933325929E+01 -0.16171922110E+03  0.77275385830E+01  0.20458293058E+03  0.12499839514E+03 0.  0.
          2    1    1    2  501    0 -0.24290370954E+02  0.19429915550E+03 -0.28149348536E+03  0.34290051947E+03  0.00000000000E+00 0. -1.
          1    1    1    2  502    0  0.20197038361E+02 -0.32579934397E+02  0.16505078004E+03  0.16944359674E+03  0.00000000000E+00 0. -1.
         22    1    3    3    0    0  0.44751918405E+02 -0.15372436524E+03  0.20039928112E+02  0.16135523973E+03  0.00000000000E+00 0. -1.
         22    1    3    3    0    0 -0.40658585812E+02 -0.79948558627E+01 -0.12312389529E+02  0.43227690853E+02  0.00000000000E+00 0. -1.
</event>
<event>
 7    1  0.6294601E-006  0.3807550E+02  0.7818608E-02  0.1575914E+00
          2   -1    0    0  502    0  0.00000000000E+00  0.00000000000E+00  0.12675358338E+03  0.12675358338E+03  0.00000000000E+00 0. -1.
          1   -1    0    0  501    0 -0.00000000000E+00 -0.00000000000E+00 -0.17073036175E+03  0.17073036175E+03  0.00000000000E+00 0. -1.
         25    2    1    2    0    0  0.18869609758E+02  0.39693202921E+02 -0.71530437165E+02  0.15057745753E+03  0.12500141897E+03 0.  0.
          2    1    1    2  501    0 -0.34223499988E+02 -0.17396334074E+02 -0.50990813343E+02  0.63827450489E+02  0.00000000000E+00 0. -1.
          1    1    1    2  502    0  0.15353890231E+02 -0.22296868847E+02  0.78544472136E+02  0.83079037119E+02  0.00000000000E+00 0. -1.
         22    1    3    3    0    0 -0.24313657370E+02  0.24726897123E+02  0.25685344980E+02  0.43154493656E+02  0.00000000000E+00 0. -1.
         22    1    3    3    0    0  0.43183267128E+02  0.14966305798E+02 -0.97215782144E+02  0.10742296387E+03  0.00000000000E+00 0. -1.
</event>
<event>
 7    1  0.6294601E-006  0.6582633E+02  0.7818608E-02  0.1519425E+00
          2   -1    0    0  502    0  0.00000000000E+00  0.00000000000E+00  0.11912172838E+04  0.11912172838E+04  0.00000000000E+00 0. -1.
          1   -1    0    0  501    0 -0.00000000000E+00 -0.00000000000E+00 -0.78525517907E+02  0.78525517907E+02  0.00000000000E+00 0. -1.
         25    2    1    2    0    0 -0.30028172917E+02 -0.37153933075E+02  0.54364975671E+03  0.55987925101E+03  0.12501044689E+03 0.  0.
          2    1    1    2  501    0 -0.11328250476E+02 -0.19482235014E+02 -0.66628361640E+02  0.70336514805E+02  0.00000000000E+00 0. -1.
          1    1    1    2  502    0  0.41356423394E+02  0.56636168089E+02  0.63567037082E+03  0.63952703589E+03  0.00000000000E+00 0. -1.
         22    1    3    3    0    0 -0.49817183867E+02  0.33493144491E+02  0.26716991276E+03  0.27383079597E+03  0.00000000000E+00 0.  1.
         22    1    3    3    0    0  0.19789010950E+02 -0.70647077566E+02  0.27647984395E+03  0.28604845505E+03  0.00000000000E+00 0.  1.
</event>
<event>
 7    1  0.6294601E-006  0.9726568E+02  0.7818608E-02  0.1395252E+00
          2   -1    0    0  502    0  0.00000000000E+00  0.00000000000E+00  0.58475146402E+02  0.58475146402E+02  0.00000000000E+00 0. -1.
          1   -1    0    0  501    0 -0.00000000000E+00 -0.00000000000E+00 -0.22444120271E+04  0.22444120271E+04  0.00000000000E+00 0. -1.
         25    2    1    2    0    0  0.30773525331E+02 -0.69200317230E+02 -0.70223250055E+03  0.71728124631E+03  0.12500483076E+03 0.  0.
          2    1    1    2  501    0 -0.67620492449E+02  0.77543125885E+02 -0.15256726953E+04  0.15291378749E+04  0.00000000000E+00 0. -1.
          1    1    1    2  502    0  0.36846967118E+02 -0.83428086553E+01  0.41968315188E+02  0.56468052222E+02  0.00000000000E+00 0. -1.
         22    1    3    3    0    0  0.90677266291E+01 -0.75450483308E+01 -0.56657187156E+03  0.56669465947E+03  0.00000000000E+00 0. -1.
         22    1    3    3    0    0  0.21705798702E+02 -0.61655268899E+02 -0.13566062898E+03  0.15058658684E+03  0.00000000000E+00 0. -1.
</event>
<event>
 7    1  0.6294601E-006  0.9729628E+02  0.7818608E-02  0.1301010E+00
          2   -1    0    0  502    0  0.00000000000E+00  0.00000000000E+00  0.26259035775E+04  0.26259035775E+04  0.00000000000E+00 0. -1.
          1   -1    0    0  501    0 -0.00000000000E+00 -0.00000000000E+00 -0.81657189544E+03  0.81657189544E+03  0.00000000000E+00 0. -1.
         25    2    1    2    0    0  0.57849755869E+02  0.95584473431E+02  0.73580467361E+03  0.75466234849E+03  0.12499502669E+03 0.  0.
          2    1    1    2  501    0 -0.95370530210E+02 -0.19680039130E+02 -0.80324790166E+03  0.80912918220E+03  0.00000000000E+00 0. -1.
          1    1    1    2  502    0  0.37520774340E+02 -0.75904434301E+02  0.18767749101E+04  0.18786839422E+04  0.00000000000E+00 0. -1.
         22    1    3    3    0    0 -0.35969942583E+02  0.54144204329E+02  0.29709116566E+03  0.30411937187E+03  0.00000000000E+00 0.  1.
         22    1    3    3    0    0  0.93819698452E+02  0.41440269102E+02  0.43871350796E+03  0.45054297662E+03  0.00000000000E+00 0.  1.
</event>
<event>
 7    1  0.6294601E-006  0.8816381E+02  0.7818608E-02  0.1313655E+00
          2   -1    0    0  502    0  0.00000000000E+00  0.00000000000E+00  0.12173501199E+04  0.12173501199E+04  0.00000000000E+00 0. -1.
          1   -1    0    0  501    0 -0.00000000000E+00 -0.00000000000E+00 -0.44057233536E+03  0.44057233536E+03  0.00000000000E+00 0. -1.
         25    2    1    2    0    0 -0.38484162629E+02 -0.47430278424E+02 -0.22140728072E+02  0.14087460435E+03  0.12499912091E+03 0.  0.
          2    1    1    2  501    0 -0.34509524639E+02  0.87507911098E+02 -0.35137280418E+03  0.36374632549E+03  0.00000000000E+00 0. -1.
          1    1    1    2  502    0  0.72993687267E+02 -0.40077632674E+02  0.11502913168E+04  0.11533015254E+04  0.00000000000E+00 0. -1.
         22    1    3    3    0    0  0.21501152536E+02 -0.65960580697E+02 -0.33551836472E+02  0.77063762541E+02  0.00000000000E+00 0. -1.
         22    1    3    3    0    0 -0.59985315164E+02  0.18530302274E+02  0.11411108400E+02  0.63810841811E+02  0.00000000000E+00 0. -1.
</event>
<event>
 7    1  0.6294601E-006  0.1481231E+03  0.7818608E-02  0.1361839E+00
          2   -1    0    0  502    0  0.00000000000E+00  0.00000000000E+00  0.77939801699E+03  0.77939801699E+03  0.00000000000E+00 0. -1.
          1   -1    0    0  501    0 -0.00000000000E+00 -0.00000000000E+00 -0.11329751577E+04  0.11329751577E+04  0.00000000000E+00 0. -1.
         25    2    1    2    0    0  0.61032839348E+02 -0.12178082352E+03 -0.10694833481E+03  0.21357911933E+03  0.12499006937E+03 0.  0.
          2    1    1    2  501    0 -0.37956716569E+02  0.14480743634E+03 -0.96658075675E+03  0.97810442452E+03  0.00000000000E+00 0. -1.
          1    1    1    2  502    0 -0.23076122779E+02 -0.23026612819E+02  0.71995195089E+03  0.72068963079E+03  0.00000000000E+00 0. -1.
         22    1    3    3    0    0 -0.21280340473E+02  0.82820982251E+01  0.48450304553E+01  0.23343529334E+02  0.00000000000E+00 0.  1.
         22    1    3    3    0    0  0.82313179821E+02 -0.13006292174E+03 -0.11179336526E+03  0.19023558999E+03  0.00000000000E+00 0.  1.
</event>
<event>
 7    1  0.6294601E-006  0.6243648E+02  0.7818608E-02  0.1391642E+00
          2   -1    0    0  502    0  0.00000000000E+00  0.00000000000E+00  0.25174898461E+04  0.25174898461E+04  0.00000000000E+00 0. -1.
          1   -1    0    0  501    0 -0.00000000000E+00 -0.00000000000E+00 -0.27934637108E+04  0.27934637108E+04  0.00000000000E+00 0. -1.
         25    2    1    2    0    0 -0.46417385442E+02 -0.73737296917E+02 -0.32305937357E+03  0.35718905772E+03  0.12499960588E+03 0.  0.
          2    1    1    2  501    0  0.60624502185E+02  0.14848879649E+02 -0.24525754796E+04  0.24533695813E+04  0.00000000000E+00 0. -1.
          1    1    1    2  502    0 -0.14207116743E+02  0.58888417268E+02  0.24996609885E+04  0.25003949179E+04  0.00000000000E+00 0. -1.
         22    1    3    3    0    0 -0.73072703835E+02 -0.63262108123E+00 -0.18139401858E+03  0.19556024706E+03  0.00000000000E+00 0.  1.
         22    1    3    3    0    0  0.26655318394E+02 -0.73104675835E+02 -0.14166535500E+03  0.16162881066E+03  0.00000000000E+00 0.  1.
</event>
<event>
 7    1  0.6294601E-006  0.4023230E+02  0.7818608E-02  0.1511318E+00
          2   -1    0    0  502    0  0.00000000000E+00  0.00000000000E+00  0.31317244339E+04  0.31317244339E+04  0.00000000000E+00 0. -1.
          1   -1    0    0  501    0 -0.00000000000E+00 -0.00000000000E+00 -0.14529205476E+02  0.14529205476E+02  0.00000000000E+00 0. -1.
         25    2    1    2    0    0  0.41425679390E+02  0.20257824621E+02  0.20725703935E+04  0.20768482787E+04  0.12499708185E+03 0.  0.
          2    1    1    2  501    0 -0.32832790565E+02  0.20936440730E+02  0.19741297000E+02  0.43658280932E+02  0.00000000000E+00 0. -1.
          1    1    1    2  502    0 -0.85928888251E+01 -0.41194265351E+02  0.10248835379E+04  0.10257470797E+04  0.00000000000E+00 0. -1.
         22    1    3    3    0    0  0.62702990977E+02 -0.25530421709E+02  0.16303109510E+04  0.16317160490E+04  0.00000000000E+00 0.  1.
         22    1    3    3    0    0 -0.21277311587E+02  0.45788246330E+02  0.44225944246E+03  0.44513222972E+03  0.00000000000E+00 0.  1.
</event>
<event>
 7    1  0.6294601E-006  0.4021908E+02  0.7818608E-02  0.1525675E+00
          2   -1    0    0  502    0  0.00000000000E+00  0.00000000000E+00  0.42772013167E+03  0.42772013167E+03  0.00000000000E+00 0. -1.
          1   -1    0    0  501    0 -0.00000000000E+00 -0.00000000000E+00 -0.15049148567E+04  0.15049148567E+04  0.00000000000E+00 0. -1.
         25    2    1    2    0    0 -0.10788589415E+02 -0.59308802289E+02 -0.27072871580E+03  0.30422593069E+03  0.12500180660E+03 0.  0.
          2    1    1    2  501    0  0.28132771762E+02  0.28471374639E+02 -0.12163462640E+04  0.12170046450E+04  0.00000000000E+00 0. -1.
          1    1    1    2  502    0 -0.17344182348E+02  0.30837427651E+02  0.40988025472E+03  0.41140441273E+03  0.00000000000E+00 0. -1.
         22    1    3    3    0    0 -0.50801298614E+02 -0.75893646388E+02 -0.21538992271E+03  0.23395178201E+03  0.00000000000E+00 0.  1.
         22    1    3    3    0    0  0.40012709199E+02  0.16584844099E+02 -0.55338793093E+02  0.70274148677E+02  0.00000000000E+00 0.  1.
</event>
<event>
 7    1  0.6294601E-006  0.6198959E+02  0.7818608E-02  0.1443388E+00
          2   -1    0    0  502    0  0.00000000000E+00  0.00000000000E+00  0.36063836191E+04  0.36063836191E+04  0.00000000000E+00 0. -1.
          1   -1    0    0  501    0 -0.00000000000E+00 -0.00000000000E+00 -0.28969068268E+02  0.28969068268E+02  0.00000000000E+00 0. -1.
         25    2    1    2    0    0 -0.65622439824E+02 -0.78059246842E+02  0.42880236416E+03  0.45814401779E+03  0.12499969161E+03 0.  0.
          2    1    1    2  501    0  0.24448052503E+02  0.32812044570E+02  0.15900151941E+02  0.43899343637E+02  0.00000000000E+00 0. -1.
          1    1    1    2  502    0  0.41174387321E+02  0.45247202272E+02  0.31327120348E+04  0.31333093260E+04  0.00000000000E+00 0. -1.
         22    1    3    3    0    0  0.23986400463E+02 -0.25639650831E+02  0.30414754557E+02  0.46452087108E+02  0.00000000000E+00 0. -1.
         22    1    3    3    0    0 -0.89608840287E+02 -0.52419596011E+02  0.39838760961E+03  0.41169193068E+03  0.00000000000E+00 0. -1.
</event>
<event>
 7    1  0.6294601E-006  0.9984055E+02  0.7818608E-02  0.1354395E+00
          2   -1    0    0  502    0  0.00000000000E+00  0.00000000000E+00  0.25951828648E+04  0.25951828648E+04  0.00000000000E+00 0. -1.
          1   -1    0    0  501    0 -0.00000000000E+00 -0.00000000000E+00 -0.66748385380E+03  0.66748385380E+03  0.00000000000E+00 0. -1.
         25    2    1    2    0    0  0.86161014547E+02  0.39028601079E+02  0.16549863312E+04  0.16623948503E+04  0.12501971658E+03 0.  0.
          2    1    1    2  501    0 -0.57398321563E+02 -0.81742789127E+02 -0.65930736458E+03  0.66683030216E+03  0.00000000000E+00 0. -1.
          1    1    1    2  502    0 -0.28762692983E+02  0.42714188048E+02  0.93202004434E+03  0.93344156615E+03  0.00000000000E+00 0. -1.
         22    1    3    3    0    0  0.10559653702E+03  0.55065316705E+02  0.10233796987E+04  0.10302857979E+04  0.00000000000E+00 0. -1.
         22    1    3    3    0    0 -0.19435522476E+02 -0.16036715626E+02  0.63160663256E+03  0.63210905236E+03  0.00000000000E+00 0. -1.
</event>
<event>
 7    1  0.6294601E-006  0.1037603E+03  0.7818608E-02  0.1408996E+00
          2   -1    0    0  502    0  0.00000000000E+00  0.00000000000E+00  0.82168407791E+03  0.82168407791E+03  0.00000000000E+00 0. -1.
          1   -1    0    0  501    0 -0.00000000000E+00 -0.00000000000E+00 -0.58345495922E+03  0.58345495922E+03  0.00000000000E+00 0. -1.
         25    2    1    2    0    0 -0.12653350486E+03 -0.92419241895E+01 -0.78510475466E+02  0.19463988228E+03  0.12499859199E+03 0.  0.
          2    1    1    2  501    0  0.23965956980E+02  0.20861963188E+02 -0.44281956905E+03  0.44395806033E+03  0.00000000000E+00 0. -1.
          1    1    1    2  502    0  0.10256754788E+03 -0.11620038999E+02  0.75955916320E+03  0.76654109452E+03  0.00000000000E+00 0. -1.
         22    1    3    3    0    0 -0.95844819426E+02 -0.13554368728E+02 -0.11265427084E+03  0.14852923975E+03  0.00000000000E+00 0. -1.
         22    1    3    3    0    0 -0.30688685439E+02  0.43124445383E+01  0.34143795375E+02  0.46110642529E+02  0.00000000000E+00 0. -1.
</event>
<event>
 7    1  0.6294601E-006  0.2501640E+03  0.7818608E-02  0.1316592E+00
          2   -1    0    0  502    0  0.00000000000E+00  0.00000000000E+00  0.79826577292E+03  0.79826577292E+03  0.00000000000E+00 0. -1.
          1   -1    0    0  501    0 -0.00000000000E+00 -0.00000000000E+00 -0.11188741358E+04  0.11188741358E+04  0.00000000000E+00 0. -1.
         25    2    1    2    0    0 -0.26083383188E+03 -0.45391988228E+01  0.14198940857E+03  0.32224322873E+03  0.12499925656E+03 0.  0.
          2    1    1    2  501    0  0.15259884412E+02 -0.24167052965E+02 -0.10015396033E+04  0.10019473476E+04  0.00000000000E+00 0. -1.
          1    1    1    2  502    0  0.24557394747E+03  0.28706251788E+02  0.53894183186E+03  0.59294933232E+03  0.00000000000E+00 0. -1.
         22    1    3    3    0    0 -0.18046707825E+03  0.46475353264E+01  0.28327222576E+02  0.18273586800E+03  0.00000000000E+00 0.  1.
         22    1    3    3    0    0 -0.80366753629E+02 -0.91867341492E+01  0.11366218599E+03  0.13950736073E+03  0.00000000000E+00 0.  1.
</event>
<event>
 7    1  0.6294601E-006  0.1298790E+03  0.7818608E-02  0.1371519E+00
          2   -1    0    0  502    0  0.00000000000E+00  0.00000000000E+00  0.80132052620E+02  0.80132052620E+02  0.00000000000E+00 0. -1.
          1   -1    0    0  501    0 -0.00000000000E+00 -0.00000000000E+00 -0.14017350230E+04  0.14017350230E+04  0.00000000000E+00 0. -1.
         25    2    1    2    0    0  0.26319365050E+02  0.97237434870E+02 -0.70889348033E+02  0.17549416898E+03  0.12500030386E+03 0.  0.
          2    1    1    2  501    0 -0.50114149780E+02 -0.12194441575E+03 -0.12630558148E+04  0.12699180524E+04  0.00000000000E+00 0. -1.
          1    1    1    2  502    0  0.23794784730E+02  0.24706980882E+02  0.12342192426E+02  0.36454854251E+02  0.00000000000E+00 0. -1.
         22    1    3    3    0    0 -0.46889358730E+02  0.65156651760E+02 -0.41191245108E+02  0.90225938090E+02  0.00000000000E+00 0. -1.
         22    1    3    3    0    0  0.73208723780E+02  0.32080783110E+02 -0.29698102925E+02  0.85268230894E+02  0.00000000000E+00 0. -1.
</event>
<event>
 7    1  0.6294601E-006  0.1129334E+03  0.7818608E-02  0.1283060E+00
          2   -1    0    0  502    0  0.00000000000E+00  0.00000000000E+00  0.36369501477E+04  0.36369501477E+04  0.00000000000E+00 0. -1.
          1   -1    0    0  501    0 -0.00000000000E+00 -0.00000000000E+00 -0.41409670380E+02  0.41409670380E+02  0.00000000000E+00 0. -1.
         25    2    1    2    0    0  0.50356422111E+02  0.13036364592E+03  0.10772930156E+04  0.10934880690E+04  0.12500186493E+03 0.  0.
          2    1    1    2  501    0  0.32958917937E+02 -0.10803681717E+03  0.65423244428E+02  0.13053139488E+03  0.00000000000E+00 0. -1.
          1    1    1    2  502    0 -0.83315340048E+02 -0.22326828747E+02  0.24528242172E+04  0.24543403541E+04  0.00000000000E+00 0. -1.
         22    1    3    3    0    0  0.84820688106E+02  0.91413793340E+02  0.90394668991E+03  0.91250788979E+03  0.00000000000E+00 0. -1.
         22    1    3    3    0    0 -0.34464265995E+02  0.38949852582E+02  0.17334632571E+03  0.18098017925E+03  0.00000000000E+00 0. -1.
</event>
<event>
 7    1  0.6294601E-006  0.4712730E+02  0.7818608E-02  0.1499306E+00
          2   -1    0    0  502    0  0.00000000000E+00  0.00000000000E+00  0.18048395451E+03  0.18048395451E+03  0.00000000000E+00 0. -1.
          1   -1    0    0  501    0 -0.00000000000E+00 -0.00000000000E+00 -0.26986177650E+03  0.26986177650E+03  0.00000000000E+00 0. -1.
         25    2    1    2    0    0  0.64276283640E+02  0.49517475629E+02  0.22933825687E+02  0.15077847532E+03  0.12499906890E+03 0.  0.
          2    1    1    2  501    0 -0.32173223234E+02 -0.33047034043E+02 -0.19973486514E+03  0.20499082688E+03  0.00000000000E+00 0. -1.
          1    1    1    2  502    0 -0.32103060406E+02 -0.16470441586E+02  0.87423217468E+02  0.94576428808E+02  0.00000000000E+00 0. -1.
         22    1    3    3    0    0 -0.23669421894E+02 -0.61077557830E+01  0.38454886562E+02  0.45566704006E+02  0.00000000000E+00 0. -1.
         22    1    3    3    0    0  0.87945705533E+02  0.55625231412E+02 -0.15521060875E+02  0.10521177131E+03  0.00000000000E+00 0. -1.
</event>
<event>
 7    1  0.6294601E-006  0.1191057E+03  0.7818608E-02  0.1297575E+00
          2   -1    0    0  502    0  0.00000000000E+00  0.00000000000E+00  0.19630624924E+03  0.19630624924E+03  0.00000000000E+00 0. -1.
          1   -1    0    0  501    0 -0.00000000000E+00 -0.00000000000E+00 -0.12085809159E+04  0.12085809159E+04  0.00000000000E+00 0. -1.
         25    2    1    2    0    0 -0.20841601288E+02  0.51951938224E+02 -0.70678150758E+03  0.71992939302E+03  0.12499942100E+03 0.  0.
          2    1    1    2  501    0  0.18490972879E+02  0.68958945371E+02 -0.47300001397E+03  0.47835788427E+03  0.00000000000E+00 0. -1.
          1    1    1    2  502    0  0.23506284092E+01 -0.12091088360E+03  0.16750685489E+03  0.20659988786E+03  0.00000000000E+00 0. -1.
         22    1    3    3    0    0 -0.57472576955E+02  0.90395088805E+01 -0.55428986697E+03  0.55733478848E+03  0.00000000000E+00 0. -1.
         22    1    3    3    0    0  0.36630975667E+02  0.42912429344E+02 -0.15249164061E+03  0.16259460454E+03  0.00000000000E+00 0. -1.
</event>
<event>
 7    1  0.6294601E-006  0.7591699E+02  0.7818608E-02  0.1389726E+00
          2   -1    0    0  502    0  0.00000000000E+00  0.00000000000E+00  0.32840422931E+04  0.32840422931E+04  0.00000000000E+00 0. -1.
          1   -1    0    0  501    0 -0.00000000000E+00 -0.00000000000E+00 -0.82620595796E+03  0.82620595796E+03  0.00000000000E+00 0. -1.
         25    2    1    2    0    0  0.45862800780E+02  0.11593791664E+03 -0.33079664184E+01  0.17658066867E+03  0.12499917158E+03 0.  0.
          2    1    1    2  501    0 -0.27364703480E+02 -0.42554128937E+02 -0.73494402862E+03  0.73668338253E+03  0.00000000000E+00 0. -1.
          1    1    1    2  502    0 -0.18498097299E+02 -0.73383787705E+02  0.31960883302E+04  0.31969841998E+04  0.00000000000E+00 0. -1.
         22    1    3    3    0    0 -0.53227956754E+01 -0.65423510689E+01 -0.38367318845E+02  0.39283401923E+02  0.00000000000E+00 0.  1.
         22    1    3    3    0    0  0.51185596455E+02  0.12248026771E+03  0.35059352427E+02  0.13729726674E+03  0.00000000000E+00 0.  1.
</event>
<event>
 7    1  0.6294601E-006  0.9671560E+02  0.7818608E-02  0.1290231E+00
          2   -1    0    0  502    0  0.00000000000E+00  0.00000000000E+00  0.36381607551E+03  0.36381607551E+03  0.00000000000E+00 0. -1.
          1   -1    0    0  501    0 -0.00000000000E+00 -0.00000000000E+00 -0.10855810972E+04  0.10855810972E+04  0.00000000000E+00 0. -1.
         25    2    1    2    0    0 -0.24154201122E+02  0.53837487013E+02 -0.26944221534E+03  0.30283116788E+03  0.12500283355E+03 0.  0.
          2    1    1    2  501    0 -0.61500656065E+02 -0.92904271849E+02 -0.78907490306E+03  0.79690196201E+03  0.00000000000E+00 0. -1.
          1    1    1    2  502    0  0.85654857186E+02  0.39066784836E+02  0.33675209668E+03  0.34966404284E+03  0.00000000000E+00 0. -1.
         22    1    3    3    0    0 -0.41625334869E+01  0.30904140337E+02  0.49276357899E+00  0.31187102959E+02  0.00000000000E+00 0.  1.
         22    1    3    3    0    0 -0.19991667635E+02  0.22933346676E+02 -0.26993497892E+03  0.27164406493E+03  0.00000000000E+00 0.  1.
</event>
<event>
 7    1  0.6294601E-006  0.4877768E+02  0.7818608E-02  0.1487842E+00
          2   -1    0    0  502    0  0.00000000000E+00  0.00000000000E+00  0.34552773560E+03  0.34552773560E+03  0.00000000000E+00 0. -1.
          1   -1    0    0  501    0 -0.00000000000E+00 -0.00000000000E+00 -0.37129595795E+03  0.37129595795E+03  0.00000000000E+00 0. -1.
         25    2    1    2    0    0 -0.14482243141E+02  0.27332340139E+02  0.12307644747E+02  0.12936275441E+03  0.12500580757E+03 0.  0.
          2    1    1    2  501    0  0.32512243256E+02  0.19172655444E+02 -0.30934767508E+03  0.31164181484E+03  0.00000000000E+00 0. -1.
          1    1    1    2  502    0 -0.18030000114E+02 -0.46504995583E+02  0.27127180799E+03  0.27581912430E+03  0.00000000000E+00 0. -1.
         22    1    3    3    0    0  0.45729511290E+01  0.73397698298E+02 -0.10954513393E+02  0.74351431466E+02  0.00000000000E+00 0. -1.
         22    1    3    3    0    0 -0.19055194270E+02 -0.46065358158E+02  0.23262158140E+02  0.55011322946E+02  0.00000000000E+00 0. -1.
</event>
<event>
 7    1  0.6294601E-006  0.7137008E+02  0.7818608E-02  0.1373108E+00
          2   -1    0    0  502    0  0.00000000000E+00  0.00000000000E+00  0.20114114390E+03  0.20114114390E+03  0.00000000000E+00 0. -1.
          1   -1    0    0  501    0 -0.00000000000E+00 -0.00000000000E+00 -0.63553419085E+03  0.63553419085E+03  0.00000000000E+00 0. -1.
         25    2    1    2    0    0  0.61920333850E+02  0.65465471459E+02  0.12921361968E+03  0.20110082757E+03  0.12500211056E+03 0.  0.
          2    1    1    2  501    0 -0.60045470482E+00 -0.71435610115E+02 -0.56924234518E+03  0.57370746420E+03  0.00000000000E+00 0. -1.
          1    1    1    2  502    0 -0.61319879145E+02  0.59701386556E+01  0.56356785492E+01  0.61867042976E+02  0.00000000000E+00 0. -1.
         22    1    3    3    0    0  0.52984653178E+02 -0.28161937168E+02  0.48139381848E+02  0.76927682028E+02  0.00000000000E+00 0. -1.
         22    1    3    3    0    0  0.89356806725E+01  0.93627408627E+02  0.81074237829E+02  0.12417314555E+03  0.00000000000E+00 0. -1.
</event>
<event>
 7    1  0.6294601E-006  0.1341157E+03  0.7818608E-02  0.1328005E+00
          2   -1    0    0  502    0  0.00000000000E+00  0.00000000000E+00  0.69832330414E+03  0.69832330414E+03  0.00000000000E+00 0. -1.
          1   -1    0    0  501    0 -0.00000000000E+00 -0.00000000000E+00 -0.63678747286E+03  0.63678747286E+03  0.00000000000E+00 0. -1.
         25    2    1    2    0    0  0.15704862672E+03  0.87497567258E+02 -0.71927678389E+02  0.23047293167E+03  0.12499634347E+03 0.  0.
          2    1    1    2  501    0 -0.39323561632E+02 -0.27807695342E+02 -0.47732574344E+03  0.47974938850E+03  0.00000000000E+00 0. -1.
          1    1    1    2  502    0 -0.11772506509E+03 -0.59689871917E+02  0.61078925311E+03  0.62488845683E+03  0.00000000000E+00 0. -1.
         22    1    3    3    0    0  0.16889540661E+03  0.45270225362E+02 -0.53073888241E+02  0.18273447756E+03  0.00000000000E+00 0.  1.
         22    1    3    3    0    0 -0.11846779885E+02  0.42227341896E+02 -0.18853790148E+02  0.47738454103E+02  0.00000000000E+00 0.  1.
</event>
<event>
 7    1  0.6294601E-006  0.1364620E+03  0.7818608E-02  0.1248309E+00
          2   -1    0    0  502    0  0.00000000000E+00  0.00000000000E+00  0.22458500902E+03  0.22458500902E+03  0.00000000000E+00 0. -1.
          1   -1    0    0  501    0 -0.00000000000E+00 -0.00000000000E+00 -0.11969753849E+04  0.11969753849E+04  0.00000000000E+00 0. -1.
         25    2    1    2    0    0 -0.86017210531E+02 -0.10278134035E+03 -0.13350747715E+02  0.18375576615E+03  0.12499989879E+03 0.  0.
          2    1    1    2  501    0 -0.76503921850E+01  0.13817967054E+03 -0.10754131552E+04  0.10842811463E+04  0.00000000000E+00 0. -1.
          1    1    1    2  502    0  0.93667602716E+02 -0.35398330189E+02  0.11637352702E+03  0.15352348149E+03  0.00000000000E+00 0. -1.
         22    1    3    3    0    0  0.14527667607E+02 -0.12144611072E+02  0.35179849275E+02  0.39952052503E+02  0.00000000000E+00 0.  1.
         22    1    3    3    0    0 -0.10054487814E+03 -0.90636729276E+02 -0.48530596990E+02  0.14380371364E+03  0.00000000000E+00 0.  1.
</event>
<event>
 7    1  0.6294601E-006  0.1984509E+03  0.7818608E-02  0.1262195E+00
          2   -1    0    0  502    0  0.00000000000E+00  0.00000000000E+00  0.34803085819E+04  0.34803085819E+04  0.00000000000E+00 0. -1.
          1   -1    0    0  501    0 -0.00000000000E+00 -0.00000000000E+00 -0.41866641886E+03  0.41866641886E+03  0.00000000000E+00 0. -1.
         25    2    1    2    0    0 -0.19528541265E+02 -0.18133495267E+03  0.18116996029E+03  0.28585267269E+03  0.12500186793E+03 0.  0.
          2    1    1    2  501    0  0.58167135527E+02 -0.14750851114E+02 -0.36076883380E+03  0.36572551826E+03  0.00000000000E+00 0. -1.
          1    1    1    2  502    0 -0.38638594261E+02  0.19608580379E+03  0.32412410366E+04  0.32473968099E+04  0.00000000000E+00 0. -1.
         22    1    3    3    0    0 -0.42818956126E+02 -0.16122044620E+02  0.75740192947E+02  0.88487062072E+02  0.00000000000E+00 0. -1.
         22    1    3    3    0    0  0.23290414860E+02 -0.16521290805E+03  0.10542976735E+03  0.19736561062E+03  0.00000000000E+00 0. -1.
</event>
<event>
 7    1  0.6294601E-006  0.1504899E+03  0.7818608E-02  0.1304278E+00
          2   -1    0    0  502    0  0.00000000000E+00  0.00000000000E+00  0.19648035223E+04  0.19648035223E+04  0.00000000000E+00 0. -1.
          1   -1    0    0  501    0 -0.00000000000E+00 -0.00000000000E+00 -0.11413834379E+04  0.11413834379E+04  0.00000000000E+00 0. -1.
         25    2    1    2    0    0  0.18619956118E+03  0.36684651804E+02  0.31899520793E+03  0.39166367172E+03  0.12500579505E+03 0.  0.
          2    1    1    2  501    0 -0.14996937212E+03  0.21694979865E+01 -0.10995181471E+04  0.11097007142E+04  0.00000000000E+00 0. -1.
          1    1    1    2  502    0 -0.36230189055E+02 -0.38854149791E+02  0.16039430236E+04  0.16048225742E+04  0.00000000000E+00 0. -1.
         22    1    3    3    0    0 -0.12252042445E+02  0.38091160228E+01 -0.18614171786E+01  0.12964828686E+02  0.00000000000E+00 0. -1.
         22    1    3    3    0    0  0.19845160362E+03  0.32875535781E+02  0.32085662511E+03  0.37869884303E+03  0.00000000000E+00 0. -1.
</event>
<event>
 7    1  0.6294601E-006  0.9137722E+02  0.7818608E-02  0.1306783E+00
          2   -1    0    0  502    0  0.00000000000E+00  0.00000000000E+00  0.14679532341E+04  0.14679532341E+04  0.00000000000E+00 0. -1.
          1   -1    0    0  501    0 -0.00000000000E+00 -0.00000000000E+00 -0.12442052941E+03  0.12442052941E+03  0.00000000000E+00 0. -1.
         25    2    1    2    0    0 -0.69376604166E+01 -0.38225656124E+02  0.22796733362E+03  0.26287488596E+03  0.12499907421E+03 0.  0.
          2    1    1    2  501    0  0.92288982516E+02  0.32988484409E+02 -0.82668922668E+02  0.12821718751E+03  0.00000000000E+00 0. -1.
          1    1    1    2  502    0 -0.85351322099E+02  0.52371717146E+01  0.11982342938E+04  0.12012816901E+04  0.00000000000E+00 0. -1.
         22    1    3    3    0    0 -0.35902993651E+02 -0.27951267749E+02  0.15308566808E+02  0.48006775976E+02  0.00000000000E+00 0. -1.
         22    1    3    3    0    0  0.28965333234E+02 -0.10274388374E+02  0.21265876682E+03  0.21486810999E+03  0.00000000000E+00 0. -1.
</event>
<event>
 7    1  0.6294601E-006  0.1081359E+03  0.7818608E-02  0.1297450E+00
          2   -1    0    0  502    0  0.00000000000E+00  0.00000000000E+00  0.59353260752E+03  0.59353260752E+03  0.00000000000E+00 0. -1.
          1   -1    0    0  501    0 -0.00000000000E+00 -0.00000000000E+00 -0.18275271477E+04  0.18275271477E+04  0.00000000000E+00 0. -1.
         25    2    1    2    0    0  0.10300291420E+03 -0.19556911073E+02 -0.28303561007E+03  0.32668893666E+03  0.12499772665E+03 0.  0.
          2    1    1    2  501    0 -0.39098444337E+02 -0.68334562085E+02 -0.15164706959E+04  0.15185129806E+04  0.00000000000E+00 0. -1.
          1    1    1    2  502    0 -0.63904469860E+02  0.87891473158E+02  0.56551176578E+03  0.57585783797E+03  0.00000000000E+00 0. -1.
         22    1    3    3    0    0 -0.18208178671E+02  0.26744423864E+02 -0.42810168390E+02  0.53661089216E+02  0.00000000000E+00 0.  1.
         22    1    3    3    0    0  0.12121109287E+03 -0.46301334937E+02 -0.24022544168E+03  0.27302784745E+03  0.00000000000E+00 0.  1.
</event>
<event>
 7    1  0.6294601E-006  0.1764375E+03  0.7818608E-02  0.1239816E+00
          2   -1    0    0  502    0  0.00000000000E+00  0.00000000000E+00  0.15088601739E+03  0.15088601739E+03  0.00000000000E+00 0. -1.
          1   -1    0    0  501    0 -0.00000000000E+00 -0.00000000000E+00 -0.15358787556E+04  0.15358787556E+04  0.00000000000E+00 0. -1.
         25    2    1    2    0    0 -0.99357043885E+02  0.34470257390E+02 -0.40002637105E+03  0.43209524392E+03  0.12500072588E+03 0.  0.
          2    1    1    2  501    0 -0.69685315582E+02  0.47569986581E+02 -0.10518450099E+04  0.10552236122E+04  0.00000000000E+00 0. -1.
          1    1    1    2  502    0  0.16904235947E+03 -0.82040243971E+02  0.66878642721E+02  0.19944591692E+03  0.00000000000E+00 0. -1.
         22    1    3    3    0    0 -0.52822891314E+01  0.38353675427E+02 -0.26302393682E+03  0.26585804170E+03  0.00000000000E+00 0. -1.
         22    1    3    3    0    0 -0.94074754753E+02 -0.38834180372E+01 -0.13700243423E+03  0.16623720222E+03  0.00000000000E+00 0. -1.
</event>
<event>
 7    1  0.6294601E-006  0.9194509E+02  0.7818608E-02  0.1364937E+00
          2   -1    0    0  502    0  0.00000000000E+00  0.00000000000E+00  0.14004212609E+04  0.14004212609E+04  0.00000000000E+00 0. -1.
          1   -1    0    0  501    0 -0.00000000000E+00 -0.00000000000E+00 -0.67768079524E+03  0.67768079524E+03  0.00000000000E+00 0. -1.
         25    2    1    2    0    0  0.10167412344E+02 -0.13369094159E+03  0.79790664409E+02  0.19992767567E+03  0.12501152441E+03 0.  0.
          2    1    1    2  501    0  0.15872728343E+02  0.89636834487E+02 -0.61373435832E+03  0.62044868296E+03  0.00000000000E+00 0. -1.
          1    1    1    2  502    0 -0.26040140687E+02  0.44054107100E+02  0.12566841596E+04  0.12577256975E+04  0.00000000000E+00 0. -1.
         22    1    3    3    0    0  0.54227488649E+02 -0.86801380932E+02  0.67229806578E+01  0.10256850748E+03  0.00000000000E+00 0.  1.
         22    1    3    3    0    0 -0.44060076305E+02 -0.46889560655E+02  0.73067683751E+02  0.97359168193E+02  0.00000000000E+00 0.  1.
</event>
<event>
 7    1  0.6294601E-006  0.8359884E+02  0.7818608E-02  0.1333308E+00
          2   -1    0    0  502    0  0.00000000000E+00  0.00000000000E+00  0.27702114067E+03  0.27702114067E+03  0.00000000000E+00 0. -1.
          1   -1    0    0  501    0 -0.00000000000E+00 -0.00000000000E+00 -0.18165743648E+04  0.18165743648E+04  0.00000000000E+00 0. -1.
         25    2    1    2    0    0 -0.93625398362E+02 -0.41779839307E+02 -0.29131805117E+02  0.16427155860E+03  0.12500085081E+03 0.  0.
          2    1    1    2  501    0  0.29591458083E+02  0.78364003550E+02 -0.17123253249E+04  0.17143729436E+04  0.00000000000E+00 0. -1.
          1    1    1    2  502    0  0.64033940279E+02 -0.36584164242E+02  0.20190390591E+03  0.21495100326E+03  0.00000000000E+00 0. -1.
         22    1    3    3    0    0  0.23925485915E+02 -0.29665458693E+02 -0.25852943231E+02  0.46052611103E+02  0.00000000000E+00 0.  1.
         22    1    3    3    0    0 -0.11755088428E+03 -0.12114380615E+02 -0.32788618857E+01  0.11821894750E+03  0.00000000000E+00 0.  1.
</event>
<event>
 7    1  0.6294601E-006  0.5437123E+02  0.7818608E-02  0.1459356E+00
          2   -1    0    0  502    0  0.00000000000E+00  0.00000000000E+00  0.23705420143E+04  0.23705420143E+04  0.00000000000E+00 0. -1.
          1   -1    0    0  501    0 -0.00000000000E+00 -0.00000000000E+00 -0.64744013660E+02  0.64744013660E+02  0.00000000000E+00 0. -1.
         25    2    1    2    0    0 -0.70582144518E+02  0.25929198620E+02  0.22477303714E+03  0.26796257531E+03  0.12500744408E+03 0.  0.
          2    1    1    2  501    0  0.32614785594E+02 -0.42643809915E+02 -0.26166584887E+02  0.59723604446E+02  0.00000000000E+00 0. -1.
          1    1    1    2  502    0  0.37967358924E+02  0.16714611295E+02  0.21071915484E+04  0.21075998482E+04  0.00000000000E+00 0. -1.
         22    1    3    3    0    0  0.73842968520E+01  0.30039939330E+02  0.16950796843E+03  0.17230750755E+03  0.00000000000E+00 0.  1.
         22    1    3    3    0    0 -0.77966441370E+02 -0.41107407103E+01  0.55265068711E+02  0.95655067763E+02  0.00000000000E+00 0.  1.
</event>
<event>
 7    1  0.6294601E-006  0.3867728E+02  0.7818608E-02  0.1530255E+00
          2   -1    0    0  502    0  0.00000000000E+00  0.00000000000E+00  0.47300954549E+02  0.47300954549E+02  0.00000000000E+00 0. -1.
          1   -1    0    0  501    0 -0.00000000000E+00 -0.00000000000E+00 -0.13625627683E+04  0.13625627683E+04  0.00000000000E+00 0. -1.
         25    2    1    2    0    0 -0.48532276506E+02 -0.34738238659E+02 -0.38663896313E+03  0.41070328583E+03  0.12500149636E+03 0.  0.
          2    1    1    2  501    0  0.38328213578E+02  0.53505402289E+00 -0.95437679600E+03  0.95514627517E+03  0.00000000000E+00 0. -1.
          1    1    1    2  502    0  0.10204062927E+02  0.34203184636E+02  0.25753945385E+02  0.44014161839E+02  0.00000000000E+00 0. -1.
         22    1    3    3    0    0 -0.27893204521E+02  0.24406317147E+02 -0.27523782798E+02  0.46165547702E+02  0.00000000000E+00 0. -1.
         22    1    3    3    0    0 -0.20639071985E+02 -0.59144555806E+02 -0.35911518033E+03  0.36453773812E+03  0.00000000000E+00 0. -1.
</event>
<event>
 7    1  0.6294601E-006  0.1087511E+03  0.7818608E-02  0.1376502E+00
          2   -1    0    0  502    0  0.00000000000E+00  0.00000000000E+00  0.33310086637E+04  0.33310086637E+04  0.00000000000E+00 0. -1.
          1   -1    0    0  501    0 -0.00000000000E+00 -0.00000000000E+00 -0.10113012736E+04  0.10113012736E+04  0.00000000000E+00 0. -1.
         25    2    1    2    0    0 -0.12953533863E+03  0.46885175673E+02  0.49698396269E+03  0.53065700287E+03  0.12500468740E+03 0.  0.
          2    1    1    2  501    0  0.10766899814E+03 -0.14205554176E+02 -0.99136198262E+03  0.99729283138E+03  0.00000000000E+00 0. -1.
          1    1    1    2  502    0  0.21866340490E+02 -0.32679621497E+02  0.28140854100E+04  0.28143601030E+04  0.00000000000E+00 0. -1.
         22    1    3    3    0    0 -0.96855769013E+01 -0.19318814751E+02  0.22615307798E+03  0.22718327773E+03  0.00000000000E+00 0.  1.
         22    1    3    3    0    0 -0.11984976173E+03  0.66203990424E+02  0.27083088471E+03  0.30347372514E+03  0.00000000000E+00 0.  1.
</event>
<event>
 7    1  0.6294601E-006  0.6282705E+02  0.7818608E-02  0.1458113E+00
          2   -1    0    0  502    0  0.00000000000E+00  0.00000000000E+00  0.18829216062E+04  0.18829216062E+04  0.00000000000E+00 0. -1.
          1   -1    0    0  501    0 -0.00000000000E+00 -0.00000000000E+00 -0.45912583416E+03  0.45912583416E+03  0.00000000000E+00 0. -1.
         25    2    1    2    0    0  0.84980762682E+02 -0.44356379342E+02  0.87496167953E+03  0.88902893940E+03  0.12500118410E+03 0.  0.
          2    1    1    2  501    0 -0.60107042277E+02  0.18018492292E+02 -0.44958472370E+03  0.45394266860E+03  0.00000000000E+00 0. -1.
          1    1    1    2  502    0 -0.24873720404E+02  0.26337887050E+02  0.99841881617E+03  0.99907583233E+03  0.00000000000E+00 0. -1.
         22    1    3    3    0    0  0.39394035556E+02  0.40272834734E+02  0.22235588468E+03  0.22938162678E+03  0.00000000000E+00 0. -1.
         22    1    3    3    0    0  0.45586727125E+02 -0.84629214076E+02  0.65260579485E+03  0.65964731261E+03  0.00000000000E+00 0. -1.
</event>
<event>
 7    1  0.6294601E-006  0.1758533E+03  0.7818608E-02  0.1225597E+00
          2   -1    0    0  502    0  0.00000000000E+00  0.00000000000E+00  0.10760842549E+04  0.10760842549E+04  0.00000000000E+00 0. -1.
          1   -1    0    0  501    0 -0.00000000000E+00 -0.00000000000E+00 -0.13362288789E+04  0.13362288789E+04  0.00000000000E+00 0. -1.
         25    2    1    2    0    0 -0.15926201704E+03  0.12133836819E+03  0.14074145634E+01  0.23604166948E+03  0.12500519689E+03 0.  0.
          2    1    1    2  501    0  0.17413071590E+03 -0.24497136721E+02 -0.12100330767E+04  0.12227434983E+04  0.00000000000E+00 0. -1.
          1    1    1    2  502    0 -0.14868698860E+02 -0.96841231469E+02  0.94848103817E+03  0.95352796607E+03  0.00000000000E+00 0. -1.
         22    1    3    3    0    0  0.31340297666E+01 -0.20278544007E+02  0.14504179777E+01  0.20570493478E+02  0.00000000000E+00 0.  1.
         22    1    3    3    0    0 -0.16239604681E+03  0.14161691220E+03 -0.43003414337E-01  0.21547117600E+03  0.00000000000E+00 0.  1.
</event>
<event>
 7    1  0.6294601E-006  0.5880209E+02  0.7818608E-02  0.1438199E+00
          2   -1    0    0  502    0  0.00000000000E+00  0.00000000000E+00  0.52711231041E+03  0.52711231041E+03  0.00000000000E+00 0. -1.
          1   -1    0    0  501    0 -0.00000000000E+00 -0.00000000000E+00 -0.10866556811E+03  0.10866556811E+03  0.00000000000E+00 0. -1.
         25    2    1    2    0    0 -0.19878566894E+02  0.27993166893E+02  0.11292099171E+02  0.13012115099E+03  0.12500091046E+03 0.  0.
          2    1    1    2  501    0  0.32759011047E+02  0.30618698411E+02 -0.36588722515E+02  0.57873932927E+02  0.00000000000E+00 0. -1.
          1    1    1    2  502    0 -0.12880444154E+02 -0.58611865304E+02  0.44374336564E+03  0.44778279460E+03  0.00000000000E+00 0. -1.
         22    1    3    3    0    0 -0.61658209903E+02 -0.27954694109E+01  0.37251853115E+02  0.72091955572E+02  0.00000000000E+00 0.  1.
         22    1    3    3    0    0  0.41779643010E+02  0.30788636303E+02 -0.25959753945E+02  0.58029195413E+02  0.00000000000E+00 0.  1.
</event>
<event>
 7    1  0.6294601E-006  0.1072304E+03  0.7818608E-02  0.1372062E+00
          2   -1    0    0  502    0  0.00000000000E+00  0.00000000000E+00  0.22889128295E+03  0.22889128295E+03  0.00000000000E+00 0. -1.
          1   -1    0    0  501    0 -0.00000000000E+00 -0.00000000000E+00 -0.62964825019E+03  0.62964825019E+03  0.00000000000E+00 0. -1.
         25    2    1    2    0    0 -0.14299539773E+02 -0.73945521045E+02 -0.12780272697E+03  0.19398714303E+03  0.12500023088E+03 0.  0.
          2    1    1    2  501    0  0.38635590793E+02  0.10738984958E+03 -0.45950771978E+03  0.47346872463E+03  0.00000000000E+00 0. -1.
          1    1    1    2  502    0 -0.24336051021E+02 -0.33444328532E+02  0.18655347951E+03  0.19108366547E+03  0.00000000000E+00 0. -1.
         22    1    3    3    0    0  0.15648340946E+02 -0.59295142984E+02  0.59858685499E+00  0.61328157172E+02  0.00000000000E+00 0. -1.
         22    1    3    3    0    0 -0.29947880719E+02 -0.14650378061E+02 -0.12840131383E+03  0.13265898586E+03  0.00000000000E+00 0. -1.
</event>
<event>
 7    1  0.6294601E-006  0.1433621E+03  0.7818608E-02  0.1248714E+00
          2   -1    0    0  502    0  0.00000000000E+00  0.00000000000E+00  0.10658228474E+04  0.10658228474E+04  0.00000000000E+00 0. -1.
          1   -1    0    0  501    0 -0.00000000000E+00 -0.00000000000E+00 -0.18447150865E+03  0.18447150865E+03  0.00000000000E+00 0. -1.
         25    2    1    2    0    0 -0.66083564426E+02  0.12243033347E+02  0.10451922559E+03  0.17625820803E+03  0.12500303206E+03 0.  0.
          2    1    1    2  501    0 -0.91885308031E+02 -0.23841851232E+02 -0.12580804645E+03  0.15760396015E+03  0.00000000000E+00 0. -1.
          1    1    1    2  502    0  0.15796887246E+03  0.11598817885E+02  0.90264015958E+03  0.91643218785E+03  0.00000000000E+00 0. -1.
         22    1    3    3    0    0 -0.88242436807E+02 -0.53315319369E+01  0.25016536610E+02  0.91874806070E+02  0.00000000000E+00 0.  1.
         22    1    3    3    0    0  0.22158872380E+02  0.17574565284E+02  0.79502688983E+02  0.84383401956E+02  0.00000000000E+00 0.  1.
</event>
<event>
 7    1  0.6294601E-006  0.5093505E+02  0.7818608E-02  0.1517911E+00
          2   -1    0    0  502    0  0.00000000000E+00  0.00000000000E+00  0.33954860145E+03  0.33954860145E+03  0.00000000000E+00 0. -1.
          1   -1    0    0  501    0 -0.00000000000E+00 -0.00000000000E+00 -0.44307177623E+03  0.44307177623E+03  0.00000000000E+00 0. -1.
         25    2    1    2    0    0 -0.48030691688E+02 -0.84359899545E+01 -0.16313299784E+03  0.21122369678E+03  0.12499984731E+03 0.  0.
          2    1    1    2  501    0  0.11400411965E+02 -0.27123349757E+02 -0.25297007620E+03  0.25467529316E+03  0.00000000000E+00 0. -1.
          1    1    1    2  502    0  0.36630279722E+02  0.35559339711E+02  0.31257989925E+03  0.31672138774E+03  0.00000000000E+00 0. -1.
         22    1    3    3    0    0 -0.60901951709E+02  0.39896566000E+02 -0.13614547212E+03  0.15439032767E+03  0.00000000000E+00 0. -1.
         22    1    3    3    0    0  0.12871260022E+02 -0.48332555954E+02 -0.26987525720E+02  0.56833369107E+02  0.00000000000E+00 0. -1.
</event>
<event>
 7    1  0.6294601E-006  0.8980083E+02  0.7818608E-02  0.1474046E+00
          2   -1    0    0  502    0  0.00000000000E+00  0.00000000000E+00  0.15310981836E+03  0.15310981836E+03  0.00000000000E+00 0. -1.
          1   -1    0    0  501    0 -0.00000000000E+00 -0.00000000000E+00 -0.33510340393E+03  0.33510340393E+03  0.00000000000E+00 0. -1.
         25    2    1    2    0    0 -0.97299855602E+02 -0.53023891136E+02  0.35705727417E+02  0.17081915177E+03  0.12500195483E+03 0.  0.
          2    1    1    2  501    0  0.76656658121E+02  0.43831520007E+02 -0.25717256966E+03  0.27191023512E+03  0.00000000000E+00 0. -1.
          1    1    1    2  502    0  0.20643197481E+02  0.91923711281E+01  0.39473256678E+02  0.45483835392E+02  0.00000000000E+00 0. -1.
         22    1    3    3    0    0 -0.35614137146E+02  0.40199604020E+02  0.80227963079E+00  0.53712368973E+02  0.00000000000E+00 0. -1.
         22    1    3    3    0    0 -0.61685718455E+02 -0.93223495156E+02  0.34903447787E+02  0.11710678280E+03  0.00000000000E+00 0. -1.
</event>
<event>
 7    1  0.6294601E-006  0.1089636E+03  0.7818608E-02  0.1308586E+00
          2   -1    0    0  502    0  0.00000000000E+00  0.00000000000E+00  0.48548002649E+03  0.48548002649E+03  0.00000000000E+00 0. -1.
          1   -1    0    0  501    0 -0.00000000000E+00 -0.00000000000E+00 -0.15251895783E+03  0.15251895783E+03  0.00000000000E+00 0. -1.
         25    2    1    2    0    0 -0.43180234631E+02  0.15866139131E+03  0.20591294945E+03  0.29165569190E+03  0.12499972045E+03 0.  0.
          2    1    1    2  501    0  0.30618605978E+02 -0.63551530936E+02 -0.86865891212E+02  0.11190164955E+03  0.00000000000E+00 0. -1.
          1    1    1    2  502    0  0.12561628653E+02 -0.95109860377E+02  0.21391401043E+03  0.23444164287E+03  0.00000000000E+00 0. -1.
         22    1    3    3    0    0 -0.43803957550E+01 -0.13981819873E+02  0.61603313483E+02  0.63321776554E+02  0.00000000000E+00 0.  1.
         22    1    3    3    0    0 -0.38799838876E+02  0.17264321119E+03  0.14430963597E+03  0.22833391535E+03  0.00000000000E+00 0.  1.
</event>
<event>
 7    1  0.6294601E-006  0.9989607E+02  0.7818608E-02  0.1382876E+00
          2   -1    0    0  502    0  0.00000000000E+00  0.00000000000E+00  0.50716349035E+03  0.50716349035E+03  0.00000000000E+00 0. -1.
          1   -1    0    0  501    0 -0.00000000000E+00 -0.00000000000E+00 -0.77773888156E+03  0.77773888156E+03  0.00000000000E+00 0. -1.
         25    2    1    2    0    0 -0.93651379813E+02 -0.68203754078E+02  0.18707798401E+03  0.25307259311E+03  0.12500092908E+03 0.  0.
          2    1    1    2  501    0  0.43654904159E+00  0.40634490052E+02 -0.73593656933E+03  0.73705765475E+03  0.00000000000E+00 0. -1.
          1    1    1    2  502    0  0.93214830772E+02  0.27569264026E+02  0.27828319411E+03  0.29477212405E+03  0.00000000000E+00 0. -1.
         22    1    3    3    0    0 -0.70863012076E+02  0.14010741239E+02  0.38782302543E+02  0.81987403551E+02  0.00000000000E+00 0. -1.
         22    1    3    3    0    0 -0.22788367737E+02 -0.82214495317E+02  0.14829568147E+03  0.17108518956E+03  0.00000000000E+00 0. -1.
</event>
<event>
 7    1  0.6294601E-006  0.4703920E+02  0.7818608E-02  0.1527696E+00
          2   -1    0    0  502    0  0.00000000000E+00  0.00000000000E+00  0.23367399563E+03  0.23367399563E+03  0.00000000000E+00 0. -1.
          1   -1    0    0  501    0 -0.00000000000E+00 -0.00000000000E+00 -0.91944729293E+02  0.91944729293E+02  0.00000000000E+00 0. -1.
         25    2    1    2    0    0 -0.28818529589E+02  0.30829284798E+02  0.18104329400E+03  0.22401633526E+03  0.12500276681E+03 0.  0.
          2    1    1    2  501    0  0.47116314819E+02 -0.72473774995E+01 -0.50759727875E+02  0.69634916361E+02  0.00000000000E+00 0. -1.
          1    1    1    2  502    0 -0.18297785230E+02 -0.23581907299E+02  0.11445700210E+02  0.31967473304E+02  0.00000000000E+00 0. -1.
         22    1    3    3    0    0  0.23155266454E+02  0.65446679183E+02  0.98815654295E+02  0.12076409944E+03  0.00000000000E+00 0. -1.
         22    1    3    3    0    0 -0.51973796043E+02 -0.34617394385E+02  0.82227639708E+02  0.10325223582E+03  0.00000000000E+00 0. -1.
</event>
<event>
 7    1  0.6294601E-006  0.1270110E+03  0.7818608E-02  0.1342988E+00
          2   -1    0    0  502    0  0.00000000000E+00  0.00000000000E+00  0.29918422166E+03  0.29918422166E+03  0.00000000000E+00 0. -1.
          1   -1    0    0  501    0 -0.00000000000E+00 -0.00000000000E+00 -0.32553530765E+03  0.32553530765E+03  0.00000000000E+00 0. -1.
         25    2    1    2    0    0 -0.13082939721E+03  0.91957421634E+02  0.79466611378E+02  0.21797162709E+03  0.12499675726E+03 0.  0.
          2    1    1    2  501    0  0.86308690930E+02 -0.88897085858E+02 -0.23740858457E+03  0.26779603812E+03  0.00000000000E+00 0. -1.
          1    1    1    2  502    0  0.44520706275E+02 -0.30603357756E+01  0.13159088721E+03  0.13895186411E+03  0.00000000000E+00 0. -1.
         22    1    3    3    0    0 -0.80585523581E+02  0.78735664384E+02 -0.11462662161E+02  0.11324629831E+03  0.00000000000E+00 0.  1.
         22    1    3    3    0    0 -0.50243873625E+02  0.13221757250E+02  0.90929273539E+02  0.10472532878E+03  0.00000000000E+00 0.  1.
</event>
<event>
 7    1  0.6294601E-006  0.2509387E+03  0.7818608E-02  0.1176061E+00
          2   -1    0    0  502    0  0.00000000000E+00  0.00000000000E+00  0.20604817440E+04  0.20604817440E+04  0.00000000000E+00 0. -1.
          1   -1    0    0  501    0 -0.00000000000E+00 -0.00000000000E+00 -0.35839213220E+04  0.35839213220E+04  0.00000000000E+00 0. -1.
         25    2    1    2    0    0 -0.11123913341E+03  0.33627180197E+03  0.10188215523E+03  0.38917695054E+03  0.12500342265E+03 0.  0.
          2    1    1    2  501    0  0.69685796676E+02 -0.94626160522E+02 -0.34309822261E+04  0.34329942116E+04  0.00000000000E+00 0. -1.
          1    1    1    2  502    0  0.41553336732E+02 -0.24164564145E+03  0.18056604929E+04  0.18222319039E+04  0.00000000000E+00 0. -1.
         22    1    3    3    0    0 -0.10521173857E+03  0.34285555290E+03  0.82740354213E+02  0.36805625426E+03  0.00000000000E+00 0. -1.
         22    1    3    3    0    0 -0.60273948399E+01 -0.65837509286E+01  0.19141801022E+02  0.21120696276E+02  0.00000000000E+00 0. -1.
</event>
<event>
 7    1  0.6294601E-006  0.2240409E+03  0.7818608E-02  0.1146532E+00
          2   -1    0    0  502    0  0.00000000000E+00  0.00000000000E+00  0.52386789030E+03  0.52386789030E+03  0.00000000000E+00 0. -1.
          1   -1    0    0  501    0 -0.00000000000E+00 -0.00000000000E+00 -0.87855039800E+03  0.87855039800E+03  0.00000000000E+00 0. -1.
         25    2    1    2    0    0  0.13486079439E+03  0.19076237517E+03 -0.64838127278E+02  0.27277427033E+03  0.12499640858E+03 0.  0.
          2    1    1    2  501    0 -0.23198462325E+03 -0.32749078068E+02 -0.66830308723E+03  0.70817962689E+03  0.00000000000E+00 0. -1.
          1    1    1    2  502    0  0.97123828859E+02 -0.15801329710E+03  0.37845870680E+03  0.42146439108E+03  0.00000000000E+00 0. -1.
         22    1    3    3    0    0 -0.20958222281E+01  0.91427810597E+02  0.37747421512E+00  0.91452607990E+02  0.00000000000E+00 0.  1.
         22    1    3    3    0    0  0.13695661662E+03  0.99334564575E+02 -0.65215601493E+02  0.18132166234E+03  0.00000000000E+00 0.  1.
</event>
<event>
 7    1  0.6294601E-006  0.6802273E+02  0.7818608E-02  0.1458819E+00
          2   -1    0    0  502    0  0.00000000000E+00  0.00000000000E+00  0.22255596015E+04  0.22255596015E+04  0.00000000000E+00 0. -1.
          1   -1    0    0  501    0 -0.00000000000E+00 -0.00000000000E+00 -0.61456140727E+03  0.61456140727E+03  0.00000000000E+00 0. -1.
         25    2    1    2    0    0 -0.31864779516E+02  0.89631851931E+02  0.42742378525E+03  0.45537483569E+03  0.12500366287E+03 0.  0.
          2    1    1    2  501    0  0.69456457647E+01 -0.67560413059E+02 -0.59850988371E+03  0.60235100424E+03  0.00000000000E+00 0. -1.
          1    1    1    2  502    0  0.24919133752E+02 -0.22071438872E+02  0.17820842926E+04  0.17823951688E+04  0.00000000000E+00 0. -1.
         22    1    3    3    0    0 -0.59896257885E+02 -0.31808843314E+01  0.17309955240E+03  0.18319698353E+03  0.00000000000E+00 0.  1.
         22    1    3    3    0    0  0.28031478369E+02  0.92812736263E+02  0.25432423285E+03  0.27217785216E+03  0.00000000000E+00 0.  1.
</event>
<event>
 7    1  0.6294601E-006  0.5431515E+02  0.7818608E-02  0.1513143E+00
          2   -1    0    0  502    0  0.00000000000E+00  0.00000000000E+00  0.19319421412E+04  0.19319421412E+04  0.00000000000E+00 0. -1.
          1   -1    0    0  501    0 -0.00000000000E+00 -0.00000000000E+00 -0.45339631219E+03  0.45339631219E+03  0.00000000000E+00 0. -1.
         25    2    1    2    0    0 -0.98576994907E+01 -0.32769005296E+02 -0.37616438225E+03  0.39786327036E+03  0.12499822994E+03 0.  0.
          2    1    1    2  501    0  0.19583653785E+02 -0.20692352929E+02 -0.62922915618E+02  0.69072326406E+02  0.00000000000E+00 0. -1.
          1    1    1    2  502    0 -0.97259542942E+01  0.53461358225E+02  0.19176331269E+04  0.19184028566E+04  0.00000000000E+00 0. -1.
         22    1    3    3    0    0 -0.46853121864E+02 -0.65243907937E+02 -0.22802166188E+03  0.24175578760E+03  0.00000000000E+00 0. -1.
         22    1    3    3    0    0  0.36995422373E+02  0.32474902642E+02 -0.14814272036E+03  0.15610748276E+03  0.00000000000E+00 0. -1.
</event>
<event>
 7    1  0.6294601E-006  0.6197737E+02  0.7818608E-02  0.1438856E+00
          2   -1    0    0  502    0  0.00000000000E+00  0.00000000000E+00  0.58247633128E+02  0.58247633128E+02  0.00000000000E+00 0. -1.
          1   -1    0    0  501    0 -0.00000000000E+00 -0.00000000000E+00 -0.14474358663E+04  0.14474358663E+04  0.00000000000E+00 0. -1.
         25    2    1    2    0    0  0.48824064909E+02  0.30458952523E+02 -0.19445646068E+03  0.23822257189E+03  0.12500056622E+03 0.  0.
          2    1    1    2  501    0 -0.18388538634E+02 -0.59884418618E+02 -0.12176913134E+04  0.12193016103E+04  0.00000000000E+00 0. -1.
          1    1    1    2  502    0 -0.30435526275E+02  0.29425466095E+02  0.22959540988E+02  0.48159317239E+02  0.00000000000E+00 0. -1.
         22    1    3    3    0    0  0.86455462168E+02  0.44740828094E+02 -0.13602005906E+03  0.16726549286E+03  0.00000000000E+00 0.  1.
         22    1    3    3    0    0 -0.37631397259E+02 -0.14281875570E+02 -0.58436401620E+02  0.70957079025E+02  0.00000000000E+00 0.  1.
</event>
<event>
 7    1  0.6294601E-006  0.4509353E+02  0.7818608E-02  0.1582092E+00
          2   -1    0    0  502    0  0.00000000000E+00  0.00000000000E+00  0.44564565952E+03  0.44564565952E+03  0.00000000000E+00 0. -1.
          1   -1    0    0  501    0 -0.00000000000E+00 -0.00000000000E+00 -0.10552405131E+04  0.10552405131E+04  0.00000000000E+00 0. -1.
         25    2    1    2    0    0  0.62333309959E+02  0.15962690072E+01 -0.55862952904E+03  0.57583323664E+03  0.12501590340E+03 0.  0.
          2    1    1    2  501    0 -0.18475870028E+02 -0.11947187733E+02 -0.48659831979E+03  0.48709549155E+03  0.00000000000E+00 0. -1.
          1    1    1    2  502    0 -0.43857439932E+02  0.10350918726E+02  0.43563299527E+03  0.43795744442E+03  0.00000000000E+00 0. -1.
         22    1    3    3    0    0  0.66448787587E+02  0.36720455950E+02 -0.51046531460E+03  0.51608010102E+03  0.00000000000E+00 0.  1.
         22    1    3    3    0    0 -0.41154776278E+01 -0.35124186942E+02 -0.48164214437E+02  0.59753135623E+02  0.00000000000E+00 0.  1.
</event>
<event>
 7    1  0.6294601E-006  0.1122278E+03  0.7818608E-02  0.1336260E+00
          2   -1    0    0  502    0  0.00000000000E+00  0.00000000000E+00  0.59394333102E+03  0.59394333102E+03  0.00000000000E+00 0. -1.
          1   -1    0    0  501    0 -0.00000000000E+00 -0.00000000000E+00 -0.10933499043E+03  0.10933499043E+03  0.00000000000E+00 0. -1.
         25    2    1    2    0    0  0.74945489182E+02 -0.91051454400E+02  0.48612616147E+03  0.51560724952E+03  0.12499998879E+03 0.  0.
          2    1    1    2  501    0  0.23210804457E+02  0.48243540896E+02 -0.47083035336E+02  0.71295111320E+02  0.00000000000E+00 0. -1.
          1    1    1    2  502    0 -0.98156293639E+02  0.42807913503E+02  0.45565214459E+02  0.11637596061E+03  0.00000000000E+00 0. -1.
         22    1    3    3    0    0 -0.73723917674E+01 -0.87761137934E+02  0.21827161174E+03  0.23536963692E+03  0.00000000000E+00 0. -1.
         22    1    3    3    0    0  0.82317880950E+02 -0.32903164652E+01  0.26785454973E+03  0.28023761260E+03  0.00000000000E+00 0. -1.
</event>
<event>
 7    1  0.6294601E-006  0.8310447E+02  0.7818608E-02  0.1457484E+00
          2   -1    0    0  502    0  0.00000000000E+00  0.00000000000E+00  0.76689827776E+03  0.76689827776E+03  0.00000000000E+00 0. -1.
          1   -1    0    0  501    0 -0.00000000000E+00 -0.00000000000E+00 -0.38339249775E+03  0.38339249775E+03  0.00000000000E+00 0. -1.
         25    2    1    2    0    0  0.47436645014E+02  0.71347775848E+02  0.59258283747E+02  0.16269885552E+03  0.12497452935E+03 0.  0.
          2    1    1    2  501    0 -0.21446033967E+02 -0.80374096487E+02 -0.32616085963E+03  0.33660189262E+03  0.00000000000E+00 0. -1.
          1    1    1    2  502    0 -0.25990611046E+02  0.90263206392E+01  0.65040835589E+03  0.65099002737E+03  0.00000000000E+00 0. -1.
         22    1    3    3    0    0 -0.96720249015E+01 -0.30142021968E+00 -0.31969925890E+02  0.33402321495E+02  0.00000000000E+00 0. -1.
         22    1    3    3    0    0  0.57108669915E+02  0.71649196068E+02  0.91228209637E+02  0.12929653402E+03  0.00000000000E+00 0. -1.
</event>
<event>
 7    1  0.6294601E-006  0.9718087E+02  0.7818608E-02  0.1323100E+00
          2   -1    0    0  502    0  0.00000000000E+00  0.00000000000E+00  0.15742907272E+03  0.15742907272E+03  0.00000000000E+00 0. -1.
          1   -1    0    0  501    0 -0.00000000000E+00 -0.00000000000E+00 -0.29968319370E+04  0.29968319370E+04  0.00000000000E+00 0. -1.
         25    2    1    2    0    0  0.70522202152E+02 -0.10383020572E+03 -0.10122694712E+03  0.20402980682E+03  0.12500869823E+03 0.  0.
          2    1    1    2  501    0 -0.89676361858E+02  0.37106851582E+02 -0.28319202005E+04  0.28335826775E+04  0.00000000000E+00 0. -1.
          1    1    1    2  502    0  0.19154159706E+02  0.66723354136E+02  0.93744283324E+02  0.11664852540E+03  0.00000000000E+00 0. -1.
         22    1    3    3    0    0 -0.20179469457E+02 -0.63592661345E+02 -0.68152759215E+01  0.67064786218E+02  0.00000000000E+00 0. -1.
         22    1    3    3    0    0  0.90701671609E+02 -0.40237544373E+02 -0.94411671202E+02  0.13696502060E+03  0.00000000000E+00 0. -1.
</event>
<event>
 7    1  0.6294601E-006  0.5436048E+02  0.7818608E-02  0.1435507E+00
          2   -1    0    0  502    0  0.00000000000E+00  0.00000000000E+00  0.14836805539E+03  0.14836805539E+03  0.00000000000E+00 0. -1.
          1   -1    0    0  501    0 -0.00000000000E+00 -0.00000000000E+00 -0.24982395090E+03  0.24982395090E+03  0.00000000000E+00 0. -1.
         25    2    1    2    0    0 -0.11094753539E+02  0.32384505221E+02 -0.13689649183E+03  0.18851296299E+03  0.12499855202E+03 0.  0.
          2    1    1    2  501    0  0.62088790492E+02 -0.13551815882E+02 -0.67845778167E+02  0.92960847853E+02  0.00000000000E+00 0. -1.
          1    1    1    2  502    0 -0.50994036953E+02 -0.18832689338E+02  0.10328637449E+03  0.11671819544E+03  0.00000000000E+00 0. -1.
         22    1    3    3    0    0 -0.28299870327E+02 -0.43422650538E+02 -0.56935626009E+02  0.76993991644E+02  0.00000000000E+00 0. -1.
         22    1    3    3    0    0  0.17205116788E+02  0.75807155759E+02 -0.79960865820E+02  0.11151897135E+03  0.00000000000E+00 0. -1.
</event>
<event>
 7    1  0.6294601E-006  0.9592185E+02  0.7818608E-02  0.1348178E+00
          2   -1    0    0  502    0  0.00000000000E+00  0.00000000000E+00  0.15282080040E+04  0.15282080040E+04  0.00000000000E+00 0. -1.
          1   -1    0    0  501    0 -0.00000000000E+00 -0.00000000000E+00 -0.14519840959E+03  0.14519840959E+03  0.00000000000E+00 0. -1.
         25    2    1    2    0    0  0.72949351503E+02  0.12251683193E+03  0.30232828511E+03  0.35687359978E+03  0.12499756898E+03 0.  0.
          2    1    1    2  501    0 -0.27090680059E+02 -0.89490412228E+02 -0.98608348977E+02  0.13588982786E+03  0.00000000000E+00 0. -1.
          1    1    1    2  502    0 -0.45858671445E+02 -0.33026419702E+02  0.11792896583E+04  0.11806429860E+04  0.00000000000E+00 0. -1.
         22    1    3    3    0    0  0.75795509834E+02  0.26274979999E+02  0.20422274849E+03  0.21941345648E+03  0.00000000000E+00 0. -1.
         22    1    3    3    0    0 -0.28461583301E+01  0.96241851930E+02  0.98105536624E+02  0.13746014330E+03  0.00000000000E+00 0. -1.
</event>
<event>
 7    1  0.6294601E-006  0.6547982E+02  0.7818608E-02  0.1389379E+00
          2   -1    0    0  502    0  0.00000000000E+00  0.00000000000E+00  0.16454311216E+02  0.16454311216E+02  0.00000000000E+00 0. -1.
          1   -1    0    0  501    0 -0.00000000000E+00 -0.00000000000E+00 -0.30902219833E+04  0.30902219833E+04  0.00000000000E+00 0. -1.
         25    2    1    2    0    0 -0.88288319812E+02 -0.57722300633E+02 -0.14775228654E+04  0.14865481293E+04  0.12499932596E+03 0.  0.
          2    1    1    2  501    0  0.61152303385E+02  0.55343634965E+01 -0.15312018706E+04  0.15324325114E+04  0.00000000000E+00 0. -1.
          1    1    1    2  502    0  0.27136016427E+02  0.52187937137E+02 -0.65042936058E+02  0.87695653833E+02  0.00000000000E+00 0. -1.
         22    1    3    3    0    0  0.68332871640E+00  0.30036240366E+02 -0.13931854918E+03  0.14252122937E+03  0.00000000000E+00 0.  1.
         22    1    3    3    0    0 -0.88971648529E+02 -0.87758540999E+02 -0.13382043162E+04  0.13440268999E+04  0.00000000000E+00 0.  1.
</event>
<event>
 7    1  0.6294601E-006  0.1418920E+03  0.7818608E-02  0.1410849E+00
          2   -1    0    0  502    0  0.00000000000E+00  0.00000000000E+00  0.13786253627E+04  0.13786253627E+04  0.00000000000E+00 0. -1.
          1   -1    0    0  501    0 -0.00000000000E+00 -0.00000000000E+00 -0.34325196912E+03  0.34325196912E+03  0.00000000000E+00 0. -1.
         25    2    1    2    0    0 -0.14067484499E+03 -0.39607310223E+00  0.47472675838E+02  0.19408568408E+03  0.12500411564E+03 0.  0.
          2    1    1    2  501    0  0.41423356381E+00  0.22897853884E+02 -0.26544013406E+03  0.26642625260E+03  0.00000000000E+00 0. -1.
          1    1    1    2  502    0  0.14026061143E+03 -0.22501780782E+02  0.12533408518E+04  0.12613653952E+04  0.00000000000E+00 0. -1.
         22    1    3    3    0    0 -0.12183448811E+03 -0.40457075685E+02 -0.10794908748E+01  0.12838061679E+03  0.00000000000E+00 0. -1.
         22    1    3    3    0    0 -0.18840356877E+02  0.40061002583E+02  0.48552166713E+02  0.65705067291E+02  0.00000000000E+00 0. -1.
</event>
<event>
 7    1  0.6294601E-006  0.9363255E+02  0.7818608E-02  0.1359407E+00
          2   -1    0    0  502    0  0.00000000000E+00  0.00000000000E+00  0.21367975288E+04  0.21367975288E+04  0.00000000000E+00 0. -1.
          1   -1    0    0  501    0 -0.00000000000E+00 -0.00000000000E+00 -0.14138717390E+04  0.14138717390E+04  0.00000000000E+00 0. -1.
         25    2    1    2    0    0  0.30187163773E+02 -0.11045628600E+03  0.17875863892E+03  0.24635509479E+03  0.12499730303E+03 0.  0.
          2    1    1    2  501    0  0.32556399582E+02  0.41358107100E+02 -0.13784391582E+04  0.13794437013E+04  0.00000000000E+00 0. -1.
          1    1    1    2  502    0 -0.62743563355E+02  0.69098178901E+02  0.19226063091E+04  0.19248704717E+04  0.00000000000E+00 0. -1.
         22    1    3    3    0    0 -0.27535231667E+02 -0.80283295174E+02  0.15557231899E+03  0.17721834810E+03  0.00000000000E+00 0.  1.
         22    1    3    3    0    0  0.57722395440E+02 -0.30172990826E+02  0.23186319929E+02  0.69136746688E+02  0.00000000000E+00 0.  1.
</event>
<event>
 7    1  0.6294601E-006  0.1682349E+03  0.7818608E-02  0.1211847E+00
          2   -1    0    0  502    0  0.00000000000E+00  0.00000000000E+00  0.20068020784E+04  0.20068020784E+04  0.00000000000E+00 0. -1.
          1   -1    0    0  501    0 -0.00000000000E+00 -0.00000000000E+00 -0.25447687179E+03  0.25447687179E+03  0.00000000000E+00 0. -1.
         25    2    1    2    0    0 -0.49708224761E+02  0.17233213051E+03  0.54078174483E+02  0.22520949010E+03  0.12500237861E+03 0.  0.
          2    1    1    2  501    0 -0.90205137874E+02 -0.76620114744E+02 -0.14379818964E+03  0.18624051178E+03  0.00000000000E+00 0. -1.
          1    1    1    2  502    0  0.13991336264E+03 -0.95712015771E+02  0.18420452218E+04  0.18498289483E+04  0.00000000000E+00 0. -1.
         22    1    3    3    0    0  0.36606109100E+02  0.33481731116E+02 -0.81530277070E+01  0.50274301614E+02  0.00000000000E+00 0.  1.
         22    1    3    3    0    0 -0.86314333861E+02  0.13885039940E+03  0.62231202190E+02  0.17493518848E+03  0.00000000000E+00 0.  1.
</event>
<event>
 7    1  0.6294601E-006  0.5470689E+02  0.7818608E-02  0.1459114E+00
          2   -1    0    0  502    0  0.00000000000E+00  0.00000000000E+00  0.23632068265E+03  0.23632068265E+03  0.00000000000E+00 0. -1.
          1   -1    0    0  501    0 -0.00000000000E+00 -0.00000000000E+00 -0.38438715455E+03  0.38438715455E+03  0.00000000000E+00 0. -1.
         25    2    1    2    0    0  0.71801005837E+02 -0.58012742811E+02  0.45975537615E+02  0.16204877692E+03  0.12500077310E+03 0.  0.
          2    1    1    2  501    0 -0.48270026803E+02  0.24069410255E+02 -0.32082017759E+03  0.32532279101E+03  0.00000000000E+00 0. -1.
          1    1    1    2  502    0 -0.23530979034E+02  0.33943332556E+02  0.12677816809E+03  0.13333626927E+03  0.00000000000E+00 0. -1.
         22    1    3    3    0    0  0.78653043948E+02 -0.47332567386E+02 -0.20762060429E+02  0.94115548189E+02  0.00000000000E+00 0.  1.
         22    1    3    3    0    0 -0.68520381106E+01 -0.10680175425E+02  0.66737598044E+02  0.67933228733E+02  0.00000000000E+00 0.  1.
</event>
<event>
 7    1  0.6294601E-006  0.6431268E+02  0.7818608E-02  0.1398294E+00
          2   -1    0    0  502    0  0.00000000000E+00  0.00000000000E+00  0.33022465663E+03  0.33022465663E+03  0.00000000000E+00 0. -1.
          1   -1    0    0  501    0 -0.00000000000E+00 -0.00000000000E+00 -0.34814568314E+04  0.34814568314E+04  0.00000000000E+00 0. -1.
         25    2    1    2    0    0 -0.52848222047E+02  0.57360934967E+02 -0.22795192926E+03  0.27142224052E+03  0.12499895665E+03 0.  0.
          2    1    1    2  501    0  0.55327682746E+02  0.70215334614E+01 -0.32281620770E+04  0.32286438096E+04  0.00000000000E+00 0. -1.
          1    1    1    2  502    0 -0.24794606991E+01 -0.64382468429E+02  0.30488183145E+03  0.31161543787E+03  0.00000000000E+00 0. -1.
         22    1    3    3    0    0 -0.34787927834E+02  0.65396958277E+02 -0.23799058619E+03  0.24925184290E+03  0.00000000000E+00 0. -1.
         22    1    3    3    0    0 -0.18060294212E+02 -0.80360233099E+01  0.10038656930E+02  0.22170397620E+02  0.00000000000E+00 0. -1.
</event>
<event>
 7    1  0.6294601E-006  0.1389017E+03  0.7818608E-02  0.1264933E+00
          2   -1    0    0  502    0  0.00000000000E+00  0.00000000000E+00  0.10032629802E+04  0.10032629802E+04  0.00000000000E+00 0. -1.
          1   -1    0    0  501    0 -0.00000000000E+00 -0.00000000000E+00 -0.40365827429E+03  0.40365827429E+03  0.00000000000E+00 0. -1.
         25    2    1    2    0    0  0.17959445456E+03  0.12668306348E+03 -0.71518922324E+02  0.26275945898E+03  0.12499924141E+03 0.  0.
          2    1    1    2  501    0 -0.66346460748E+02 -0.50652543327E+02 -0.22382230792E+03  0.23888063656E+03  0.00000000000E+00 0. -1.
          1    1    1    2  502    0 -0.11324799381E+03 -0.76030520156E+02  0.89494593615E+03  0.90528115894E+03  0.00000000000E+00 0. -1.
         22    1    3    3    0    0  0.14780305982E+03  0.54758447385E+02 -0.90649630509E+02  0.18182845642E+03  0.00000000000E+00 0.  1.
         22    1    3    3    0    0  0.31791394737E+02  0.71924616098E+02  0.19130708186E+02  0.80931002563E+02  0.00000000000E+00 0.  1.
</event>
<event>
 7    1  0.6294601E-006  0.9594137E+02  0.7818608E-02  0.1469350E+00
          2   -1    0    0  502    0  0.00000000000E+00  0.00000000000E+00  0.21477345749E+04  0.21477345749E+04  0.00000000000E+00 0. -1.
          1   -1    0    0  501    0 -0.00000000000E+00 -0.00000000000E+00 -0.85670442841E+02  0.85670442841E+02  0.00000000000E+00 0. -1.
         25    2    1    2    0    0 -0.21937136735E+01  0.79299905482E+02  0.62149608811E+03  0.63888566772E+03  0.12499688593E+03 0.  0.
          2    1    1    2  501    0  0.17158044887E+02 -0.95252851865E+02 -0.46439805772E+02  0.10735063974E+03  0.00000000000E+00 0. -1.
          1    1    1    2  502    0 -0.14964331213E+02  0.15952946382E+02  0.14870078497E+04  0.14871687102E+04  0.00000000000E+00 0. -1.
         22    1    3    3    0    0  0.11935376392E+02 -0.31062212200E+02  0.92185330309E+02  0.98007394418E+02  0.00000000000E+00 0. -1.
         22    1    3    3    0    0 -0.14129090065E+02  0.11036211768E+03  0.52931075781E+03  0.54087827331E+03  0.00000000000E+00 0. -1.
</event>
<event>
 7    1  0.6294601E-006  0.2620283E+03  0.7818608E-02  0.1290805E+00
          2   -1    0    0  502    0  0.00000000000E+00  0.00000000000E+00  0.18865790052E+04  0.18865790052E+04  0.00000000000E+00 0. -1.
          1   -1    0    0  501    0 -0.00000000000E+00 -0.00000000000E+00 -0.20695906544E+04  0.20695906544E+04  0.00000000000E+00 0. -1.
         25    2    1    2    0    0  0.20050136205E+03  0.21708846903E+03  0.23227894267E+03  0.39611447034E+03  0.12499986734E+03 0.  0.
          2    1    1    2  501    0 -0.17947230127E+03 -0.18965927937E+03 -0.19789056190E+04  0.19960582151E+04  0.00000000000E+00 0. -1.
          1    1    1    2  502    0 -0.21029060776E+02 -0.27429189664E+02  0.15636150272E+04  0.15639969742E+04  0.00000000000E+00 0. -1.
         22    1    3    3    0    0  0.19514850842E+03  0.13423147164E+03  0.18520173832E+03  0.30066711193E+03  0.00000000000E+00 0. -1.
         22    1    3    3    0    0  0.53528536296E+01  0.82856997391E+02  0.47077204346E+02  0.95447358411E+02  0.00000000000E+00 0. -1.
</event>
<event>
 7    1  0.6294601E-006  0.6953634E+02  0.7818608E-02  0.1377257E+00
          2   -1    0    0  502    0  0.00000000000E+00  0.00000000000E+00  0.88295982678E+03  0.88295982678E+03  0.00000000000E+00 0. -1.
          1   -1    0    0  501    0 -0.00000000000E+00 -0.00000000000E+00 -0.31320971677E+03  0.31320971677E+03  0.00000000000E+00 0. -1.
         25    2    1    2    0    0 -0.23513901612E+02 -0.34661395404E+02  0.47160787727E+03  0.48968696121E+03  0.12500005670E+03 0.  0.
          2    1    1    2  501    0 -0.53103132054E+02  0.44892765703E+02 -0.29639605952E+03  0.30444363541E+03  0.00000000000E+00 0. -1.
          1    1    1    2  502    0  0.76617033666E+02 -0.10231370299E+02  0.39453829226E+03  0.40203894693E+03  0.00000000000E+00 0. -1.
         22    1    3    3    0    0 -0.25380596810E+02  0.43341797662E+02  0.13204118465E+03  0.14127123048E+03  0.00000000000E+00 0. -1.
         22    1    3    3    0    0  0.18666951984E+01 -0.78003193065E+02  0.33956669262E+03  0.34841573072E+03  0.00000000000E+00 0. -1.
</event>
<event>
 7    1  0.6294601E-006  0.8594128E+02  0.7818608E-02  0.1344578E+00
          2   -1    0    0  502    0  0.00000000000E+00  0.00000000000E+00  0.54438617350E+03  0.54438617350E+03  0.00000000000E+00 0. -1.
          1   -1    0    0  501    0 -0.00000000000E+00 -0.00000000000E+00 -0.18072317840E+04  0.18072317840E+04  0.00000000000E+00 0. -1.
         25    2    1    2    0    0 -0.59329443489E+02 -0.16779299815E+02 -0.11325627244E+03  0.17959069679E+03  0.12499722941E+03 0.  0.
          2    1    1    2  501    0 -0.14147010189E+02  0.63497892543E+02 -0.16564576597E+04  0.16577346285E+04  0.00000000000E+00 0. -1.
          1    1    1    2  502    0  0.73476453678E+02 -0.46718592728E+02  0.50686832158E+03  0.51429263224E+03  0.00000000000E+00 0. -1.
         22    1    3    3    0    0 -0.80558079443E+02  0.28995307377E+02 -0.51774341656E+02  0.10005455745E+03  0.00000000000E+00 0.  1.
         22    1    3    3    0    0  0.21228635954E+02 -0.45774607193E+02 -0.61481930782E+02  0.79536139338E+02  0.00000000000E+00 0.  1.
</event>
<event>
 7    1  0.6294601E-006  0.9883976E+02  0.7818608E-02  0.1303442E+00
          2   -1    0    0  502    0  0.00000000000E+00  0.00000000000E+00  0.12365374538E+04  0.12365374538E+04  0.00000000000E+00 0. -1.
          1   -1    0    0  501    0 -0.00000000000E+00 -0.00000000000E+00 -0.26823209251E+02  0.26823209251E+02  0.00000000000E+00 0. -1.
         25    2    1    2    0    0 -0.29223776995E+02  0.24414225459E+02  0.25460794969E+03  0.28618124880E+03  0.12499766226E+03 0.  0.
          2    1    1    2  501    0 -0.49750097701E+02 -0.85406239485E+02  0.34162307368E+03  0.35563411315E+03  0.00000000000E+00 0. -1.
          1    1    1    2  502    0  0.78973874696E+02  0.60992014026E+02  0.61348322116E+03  0.62154530109E+03  0.00000000000E+00 0. -1.
         22    1    3    3    0    0  0.38126596801E+02 -0.70092607970E+01  0.16631274113E+03  0.17077088447E+03  0.00000000000E+00 0.  1.
         22    1    3    3    0    0 -0.67350373797E+02  0.31423486256E+02  0.88295208556E+02  0.11541036432E+03  0.00000000000E+00 0.  1.
</event>
<event>
 7    1  0.6294601E-006  0.2530887E+03  0.7818608E-02  0.1319520E+00
          2   -1    0    0  502    0  0.00000000000E+00  0.00000000000E+00  0.30399319603E+03  0.30399319603E+03  0.00000000000E+00 0. -1.
          1   -1    0    0  501    0 -0.00000000000E+00 -0.00000000000E+00 -0.39054737372E+03  0.39054737372E+03  0.00000000000E+00 0. -1.
         25    2    1    2    0    0 -0.23807553528E+03 -0.52738372171E+02 -0.99791338629E+02  0.29162504028E+03  0.12500222582E+03 0.  0.
          2    1    1    2  501    0 -0.17220429368E+02  0.21466110775E+02 -0.11307049648E+03  0.11637127770E+03  0.00000000000E+00 0. -1.
          1    1    1    2  502    0  0.25529596464E+03  0.31272261396E+02  0.12630765741E+03  0.28654425176E+03  0.00000000000E+00 0. -1.
         22    1    3    3    0    0 -0.17014365401E+03 -0.32577666171E+02 -0.50401346101E+01  0.17330773292E+03  0.00000000000E+00 0. -1.
         22    1    3    3    0    0 -0.67931881263E+02 -0.20160706000E+02 -0.94751204019E+02  0.11831730736E+03  0.00000000000E+00 0. -1.
</event>
<event>
 7    1  0.6309732E-006  0.8621217E+02  0.7818608E-02  0.1448123E+00
          2   -1    0    0  502    0  0.00000000000E+00  0.00000000000E+00  0.12949766460E+04  0.12949766460E+04  0.00000000000E+00 0. -1.
          1   -1    0    0  501    0 -0.00000000000E+00 -0.00000000000E+00 -0.10339761985E+04  0.10339761985E+04  0.00000000000E+00 0. -1.
         25    2    1    2    0    0 -0.52288848113E+02  0.51439686885E+02 -0.14860171328E+03  0.20757986270E+03  0.12500706055E+03 0.  0.
          2    1    1    2  501    0  0.12809221984E+02  0.25355474594E+02 -0.85417603809E+03  0.85464827871E+03  0.00000000000E+00 0. -1.
          1    1    1    2  502    0  0.39479626129E+02 -0.76795161478E+02  0.12637781988E+04  0.12667247031E+04  0.00000000000E+00 0. -1.
         22    1    3    3    0    0 -0.44451397626E+02 -0.19898415434E+02 -0.12144497396E+03  0.13084630444E+03  0.00000000000E+00 0. -1.
         22    1    3    3    0    0 -0.78374504868E+01  0.71338102319E+02 -0.27156739323E+02  0.76733558260E+02  0.00000000000E+00 0. -1.
</event>
<event>
 7    1  0.6294601E-006  0.1146960E+03  0.7818608E-02  0.1386830E+00
          2   -1    0    0  502    0  0.00000000000E+00  0.00000000000E+00  0.30690684788E+03  0.30690684788E+03  0.00000000000E+00 0. -1.
          1   -1    0    0  501    0 -0.00000000000E+00 -0.00000000000E+00 -0.15614085310E+03  0.15614085310E+03  0.00000000000E+00 0. -1.
         25    2    1    2    0    0  0.96965448429E+01 -0.10273144305E+03 -0.14914603103E+02  0.16277603175E+03  0.12500327497E+03 0.  0.
          2    1    1    2  501    0  0.17039285481E+02  0.12418310521E+03 -0.57200075706E+01  0.12547708698E+03  0.00000000000E+00 0. -1.
          1    1    1    2  502    0 -0.26735830324E+02 -0.21451662157E+02  0.17140060546E+03  0.17479458225E+03  0.00000000000E+00 0. -1.
         22    1    3    3    0    0 -0.25524454253E+02  0.73737217465E+01  0.28802223630E+02  0.39184660562E+02  0.00000000000E+00 0. -1.
         22    1    3    3    0    0  0.35220999096E+02 -0.11010516480E+03 -0.43716826733E+02  0.12359137119E+03  0.00000000000E+00 0. -1.
</event>
<event>
 7    1  0.6294601E-006  0.5931363E+02  0.7818608E-02  0.1515721E+00
          2   -1    0    0  502    0  0.00000000000E+00  0.00000000000E+00  0.88495420468E+02  0.88495420468E+02  0.00000000000E+00 0. -1.
          1   -1    0    0  501    0 -0.00000000000E+00 -0.00000000000E+00 -0.56649044312E+03  0.56649044312E+03  0.00000000000E+00 0. -1.
         25    2    1    2    0    0 -0.25999469898E+02 -0.26846009233E+02 -0.11691487786E+03  0.17518848027E+03  0.12500093722E+03 0.  0.
          2    1    1    2  501    0  0.50553128785E+02  0.34230687397E+02 -0.41533015100E+03  0.41979339338E+03  0.00000000000E+00 0. -1.
          1    1    1    2  502    0 -0.24553658886E+02 -0.73846781638E+01  0.54250006207E+02  0.60003989948E+02  0.00000000000E+00 0. -1.
         22    1    3    3    0    0  0.11133697425E+02  0.28600477912E+02  0.95960230433E+01  0.32156340175E+02  0.00000000000E+00 0.  1.
         22    1    3    3    0    0 -0.37133167324E+02 -0.55446487145E+02 -0.12651090090E+03  0.14303214009E+03  0.00000000000E+00 0.  1.
</event>
<event>
 7    1  0.6294601E-006  0.9420528E+02  0.7818608E-02  0.1304561E+00
          2   -1    0    0  502    0  0.00000000000E+00  0.00000000000E+00  0.25411376587E+03  0.25411376587E+03  0.00000000000E+00 0. -1.
          1   -1    0    0  501    0 -0.00000000000E+00 -0.00000000000E+00 -0.69628046070E+03  0.69628046070E+03  0.00000000000E+00 0. -1.
         25    2    1    2    0    0  0.21447847953E+02  0.34302258790E+02  0.31118433242E+02  0.13502056880E+03  0.12500216787E+03 0.  0.
          2    1    1    2  501    0 -0.76059712725E+02  0.55583770438E+02 -0.62428612551E+03  0.63135394347E+03  0.00000000000E+00 0. -1.
          1    1    1    2  502    0  0.54611864772E+02 -0.89886029229E+02  0.15100099743E+03  0.18401971430E+03  0.00000000000E+00 0. -1.
         22    1    3    3    0    0  0.16859224912E+02 -0.44277549824E+02 -0.64243091822E+01  0.47812201701E+02  0.00000000000E+00 0. -1.
         22    1    3    3    0    0  0.45886230402E+01  0.78579808614E+02  0.37542742424E+02  0.87208367099E+02  0.00000000000E+00 0. -1.
</event>
<event>
 7    1  0.6294601E-006  0.3431871E+02  0.7818608E-02  0.1597865E+00
          2   -1    0    0  502    0  0.00000000000E+00  0.00000000000E+00  0.22032944036E+04  0.22032944036E+04  0.00000000000E+00 0. -1.
          1   -1    0    0  501    0 -0.00000000000E+00 -0.00000000000E+00 -0.35300141407E+02  0.35300141407E+02  0.00000000000E+00 0. -1.
         25    2    1    2    0    0  0.55675008732E+01 -0.11018017216E+02  0.10372770475E+04  0.10448543832E+04  0.12499846047E+03 0.  0.
          2    1    1    2  501    0 -0.31683336065E+02  0.13767877690E+02 -0.21848876600E+02  0.40874951363E+02  0.00000000000E+00 0. -1.
          1    1    1    2  502    0  0.26115835192E+02 -0.27498604732E+01  0.11525660913E+04  0.11528652104E+04  0.00000000000E+00 0. -1.
         22    1    3    3    0    0 -0.10458803506E+02  0.39100402072E+02  0.83055892246E+03  0.83154455785E+03  0.00000000000E+00 0.  1.
         22    1    3    3    0    0  0.16026304379E+02 -0.50118419288E+02  0.20671812503E+03  0.21330982537E+03  0.00000000000E+00 0.  1.
</event>
<event>
 7    1  0.6294601E-006  0.8872246E+02  0.7818608E-02  0.1379430E+00
          2   -1    0    0  502    0  0.00000000000E+00  0.00000000000E+00  0.18428316136E+04  0.18428316136E+04  0.00000000000E+00 0. -1.
          1   -1    0    0  501    0 -0.00000000000E+00 -0.00000000000E+00 -0.41803631665E+03  0.41803631665E+03  0.00000000000E+00 0. -1.
         25    2    1    2    0    0  0.45459538963E+02 -0.39899345659E+02  0.10419698007E+02  0.13925662045E+03  0.12500123506E+03 0.  0.
          2    1    1    2  501    0 -0.33055780515E+02  0.85291566538E+02 -0.34738291162E+03  0.35922447471E+03  0.00000000000E+00 0. -1.
          1    1    1    2  502    0 -0.12403758449E+02 -0.45392220879E+02  0.17617585106E+04  0.17623868351E+04  0.00000000000E+00 0. -1.
         22    1    3    3    0    0  0.50720856408E+02  0.28474117326E+02 -0.23519656152E+02  0.62741970465E+02  0.00000000000E+00 0.  1.
         22    1    3    3    0    0 -0.52613174450E+01 -0.68373462985E+02  0.33939354159E+02  0.76514649986E+02  0.00000000000E+00 0.  1.
</event>
<event>
 7    1  0.6294601E-006  0.2637793E+03  0.7818608E-02  0.1201176E+00
          2   -1    0    0  502    0  0.00000000000E+00  0.00000000000E+00  0.30109209981E+04  0.30109209981E+04  0.00000000000E+00 0. -1.
          1   -1    0    0  501    0 -0.00000000000E+00 -0.00000000000E+00 -0.44194806115E+03  0.44194806115E+03  0.00000000000E+00 0. -1.
         25    2    1    2    0    0  0.12598743025E+03  0.13920299563E+03  0.15026113667E+04  0.15194449642E+04  0.12498709208E+03 0.  0.
          2    1    1    2  501    0 -0.14787443419E+03 -0.22097572129E+03 -0.39141943502E+03  0.47318737493E+03  0.00000000000E+00 0. -1.
          1    1    1    2  502    0  0.21887003941E+02  0.81772725653E+02  0.14577810052E+04  0.14602367201E+04  0.00000000000E+00 0. -1.
         22    1    3    3    0    0  0.46499770884E+02 -0.17363629935E+02  0.36611319296E+03  0.36946257510E+03  0.00000000000E+00 0. -1.
         22    1    3    3    0    0  0.79487659363E+02  0.15656662557E+03  0.11364981738E+04  0.11499823891E+04  0.00000000000E+00 0. -1.
</event>
<event>
 7    1  0.6294601E-006  0.1117382E+03  0.7818608E-02  0.1343157E+00
          2   -1    0    0  502    0  0.00000000000E+00  0.00000000000E+00  0.75167112757E+03  0.75167112757E+03  0.00000000000E+00 0. -1.
          1   -1    0    0  501    0 -0.00000000000E+00 -0.00000000000E+00 -0.78180259271E+03  0.78180259271E+03  0.00000000000E+00 0. -1.
         25    2    1    2    0    0 -0.16554500976E+02 -0.82999344295E+02  0.32976863379E+03  0.36267941504E+03  0.12500425437E+03 0.  0.
          2    1    1    2  501    0  0.66696123407E+02  0.90169266684E+02 -0.75963154590E+03  0.76786649560E+03  0.00000000000E+00 0. -1.
          1    1    1    2  502    0 -0.50141622431E+02 -0.71699223885E+01  0.39973144697E+03  0.40292780964E+03  0.00000000000E+00 0. -1.
         22    1    3    3    0    0 -0.25111856425E+01 -0.11458457819E+03  0.22772925517E+03  0.25494420031E+03  0.00000000000E+00 0.  1.
         22    1    3    3    0    0 -0.14043315333E+02  0.31585233890E+02  0.10203937862E+03  0.10773521474E+03  0.00000000000E+00 0.  1.
</event>
<event>
 7    1  0.6294601E-006  0.6270458E+02  0.7818608E-02  0.1496890E+00
          2   -1    0    0  502    0  0.00000000000E+00  0.00000000000E+00  0.54330680252E+03  0.54330680252E+03  0.00000000000E+00 0. -1.
          1   -1    0    0  501    0 -0.00000000000E+00 -0.00000000000E+00 -0.29583773604E+04  0.29583773604E+04  0.00000000000E+00 0. -1.
         25    2    1    2    0    0 -0.83546921946E+02  0.17808859725E+02 -0.69159495439E+03  0.70797326256E+03  0.12500126360E+03 0.  0.
          2    1    1    2  501    0  0.56702405874E+02 -0.24106082712E+02 -0.22578175098E+04  0.22586580470E+04  0.00000000000E+00 0. -1.
          1    1    1    2  502    0  0.26844516072E+02  0.62972229863E+01  0.53434190627E+03  0.53505285333E+03  0.00000000000E+00 0. -1.
         22    1    3    3    0    0 -0.16388309254E+02 -0.35773981311E+02 -0.44698917350E+03  0.44871781293E+03  0.00000000000E+00 0.  1.
         22    1    3    3    0    0 -0.67158612692E+02  0.53582841037E+02 -0.24460578089E+03  0.25925544962E+03  0.00000000000E+00 0.  1.
</event>
<event>
 7    1  0.6294601E-006  0.9986474E+02  0.7818608E-02  0.1404429E+00
          2   -1    0    0  502    0  0.00000000000E+00  0.00000000000E+00  0.66743573734E+03  0.66743573734E+03  0.00000000000E+00 0. -1.
          1   -1    0    0  501    0 -0.00000000000E+00 -0.00000000000E+00 -0.42572270677E+03  0.42572270677E+03  0.00000000000E+00 0. -1.
         25    2    1    2    0    0  0.12951036167E+03 -0.17895080236E+02  0.49927806461E+02  0.18763260479E+03  0.12498016181E+03 0.  0.
          2    1    1    2  501    0 -0.31709705878E+02  0.12857045607E+02 -0.35166337576E+03  0.35332412728E+03  0.00000000000E+00 0. -1.
          1    1    1    2  502    0 -0.97800655796E+02  0.50380346288E+01  0.54344859987E+03  0.55220171203E+03  0.00000000000E+00 0. -1.
         22    1    3    3    0    0  0.86852591782E+01 -0.20703874351E+02 -0.33820116554E+02  0.40594142729E+02  0.00000000000E+00 0. -1.
         22    1    3    3    0    0  0.12082510250E+03  0.28087941156E+01  0.83747923015E+02  0.14703846207E+03  0.00000000000E+00 0. -1.
</event>
<event>
 7    1  0.6294601E-006  0.1096187E+03  0.7818608E-02  0.1361244E+00
          2   -1    0    0  502    0  0.00000000000E+00  0.00000000000E+00  0.13998307576E+03  0.13998307576E+03  0.00000000000E+00 0. -1.
          1   -1    0    0  501    0 -0.00000000000E+00 -0.00000000000E+00 -0.97124774616E+03  0.97124774616E+03  0.00000000000E+00 0. -1.
         25    2    1    2    0    0  0.19668967684E+02 -0.12716789934E+03 -0.13565226552E+02  0.17990975107E+03  0.12499984098E+03 0.  0.
          2    1    1    2  501    0 -0.35738100919E+02  0.26127789765E+02 -0.82737143506E+03  0.82855498599E+03  0.00000000000E+00 0. -1.
          1    1    1    2  502    0  0.16069133235E+02  0.10104010958E+03  0.96719912110E+01  0.10276608487E+03  0.00000000000E+00 0. -1.
         22    1    3    3    0    0  0.19757246634E+01 -0.47157392002E+02  0.55419650237E+02  0.72794647749E+02  0.00000000000E+00 0. -1.
         22    1    3    3    0    0  0.17693243021E+02 -0.80010507338E+02 -0.68984876789E+02  0.10711510332E+03  0.00000000000E+00 0. -1.
</event>
<event>
 7    1  0.6294601E-006  0.1872674E+03  0.7818608E-02  0.1244664E+00
          2   -1    0    0  502    0  0.00000000000E+00  0.00000000000E+00  0.58772427482E+03  0.58772427482E+03  0.00000000000E+00 0. -1.
          1   -1    0    0  501    0 -0.00000000000E+00 -0.00000000000E+00 -0.78455597370E+03  0.78455597370E+03  0.00000000000E+00 0. -1.
         25    2    1    2    0    0 -0.65170270682E+02  0.16144381770E+03  0.13260572549E+03  0.25203298955E+03  0.12500031573E+03 0.  0.
          2    1    1    2  501    0 -0.53528051797E+01 -0.18892696279E+03 -0.70871858188E+03  0.73348761277E+03  0.00000000000E+00 0. -1.
          1    1    1    2  502    0  0.70523075862E+02  0.27483145091E+02  0.37928115750E+03  0.38675964620E+03  0.00000000000E+00 0. -1.
         22    1    3    3    0    0 -0.17053151633E+02 -0.63298815034E+01  0.60521577813E+02  0.63196034381E+02  0.00000000000E+00 0.  1.
         22    1    3    3    0    0 -0.48117119049E+02  0.16777369921E+03  0.72084147681E+02  0.18883695517E+03  0.00000000000E+00 0.  1.
</event>
<event>
 7    1  0.6670547E-006  0.5626267E+02  0.7818608E-02  0.1430878E+00
          2   -1    0    0  502    0  0.00000000000E+00  0.00000000000E+00  0.62234810479E+03  0.62234810479E+03  0.00000000000E+00 0. -1.
          1   -1    0    0  501    0 -0.00000000000E+00 -0.00000000000E+00 -0.11135734898E+04  0.11135734898E+04  0.00000000000E+00 0. -1.
         25    2    1    2    0    0 -0.14015912651E+02 -0.56482792811E+02 -0.40747916637E+03  0.43017644975E+03  0.12500302077E+03 0.  0.
          2    1    1    2  501    0  0.52393340314E+02  0.25186037485E+02 -0.69252245680E+03  0.69495809353E+03  0.00000000000E+00 0. -1.
          1    1    1    2  502    0 -0.38377427664E+02  0.31296755326E+02  0.60877623818E+03  0.61078705129E+03  0.00000000000E+00 0. -1.
         22    1    3    3    0    0  0.28552059046E+02 -0.29181047203E+02 -0.35484136374E+03  0.35718223221E+03  0.00000000000E+00 0.  1.
         22    1    3    3    0    0 -0.42567971696E+02 -0.27301745608E+02 -0.52637802639E+02  0.72994217540E+02  0.00000000000E+00 0.  1.
</event>
<event>
 7    1  0.6294601E-006  0.6401436E+02  0.7818608E-02  0.1410350E+00
          2   -1    0    0  502    0  0.00000000000E+00  0.00000000000E+00  0.96197216844E+03  0.96197216844E+03  0.00000000000E+00 0. -1.
          1   -1    0    0  501    0 -0.00000000000E+00 -0.00000000000E+00 -0.23590899868E+03  0.23590899868E+03  0.00000000000E+00 0. -1.
         25    2    1    2    0    0  0.37666397245E+02  0.34194665954E+02  0.19394863592E+03  0.23628204460E+03  0.12500039427E+03 0.  0.
          2    1    1    2  501    0  0.31913905815E+01 -0.64651716820E+02 -0.20896931639E+03  0.21876518154E+03  0.00000000000E+00 0. -1.
          1    1    1    2  502    0 -0.40857787827E+02  0.30457050866E+02  0.74108385024E+03  0.74283394098E+03  0.00000000000E+00 0. -1.
         22    1    3    3    0    0 -0.24133812695E+02  0.30760942589E+02  0.74776992056E+01  0.39806940219E+02  0.00000000000E+00 0.  1.
         22    1    3    3    0    0  0.61800209940E+02  0.34337233646E+01  0.18647093671E+03  0.19647510438E+03  0.00000000000E+00 0.  1.
</event>
<event>
 7    1  0.9767646E-006  0.5881646E+02  0.7818608E-02  0.1493209E+00
          2   -1    0    0  502    0  0.00000000000E+00  0.00000000000E+00  0.14978789395E+04  0.14978789395E+04  0.00000000000E+00 0. -1.
          1   -1    0    0  501    0 -0.00000000000E+00 -0.00000000000E+00 -0.93546700833E+03  0.93546700833E+03  0.00000000000E+00 0. -1.
         25    2    1    2    0    0  0.64923861306E+02 -0.34634097065E+02 -0.44634555609E+03  0.46932231406E+03  0.12499780233E+03 0.  0.
          2    1    1    2  501    0 -0.28017876576E+02 -0.11147922833E+02 -0.47657475953E+03  0.47752777826E+03  0.00000000000E+00 0. -1.
          1    1    1    2  502    0 -0.36905984731E+02  0.45782019898E+02  0.14853322468E+04  0.14864958555E+04  0.00000000000E+00 0. -1.
         22    1    3    3    0    0 -0.20776861989E+02 -0.45976437994E+02 -0.95787194420E+02  0.10826217003E+03  0.00000000000E+00 0.  1.
         22    1    3    3    0    0  0.85700723295E+02  0.11342340928E+02 -0.35055836167E+03  0.36106014404E+03  0.00000000000E+00 0.  1.
</event>
<event>
 7    1  0.6294601E-006  0.1153270E+03  0.7818608E-02  0.1323929E+00
          2   -1    0    0  502    0  0.00000000000E+00  0.00000000000E+00  0.37090025451E+03  0.37090025451E+03  0.00000000000E+00 0. -1.
          1   -1    0    0  501    0 -0.00000000000E+00 -0.00000000000E+00 -0.14695194564E+04  0.14695194564E+04  0.00000000000E+00 0. -1.
         25    2    1    2    0    0  0.31059325242E+02  0.13919244212E+03 -0.33277294774E+03  0.38301705422E+03  0.12500004579E+03 0.  0.
          2    1    1    2  501    0  0.19992399408E+02 -0.11152627236E+03 -0.11062725531E+04  0.11120596959E+04  0.00000000000E+00 0. -1.
          1    1    1    2  502    0 -0.51051724650E+02 -0.27666169752E+02  0.34042629896E+03  0.34534296079E+03  0.00000000000E+00 0. -1.
         22    1    3    3    0    0 -0.47361873353E+02  0.60970186907E+02 -0.16219329250E+03  0.17963066239E+03  0.00000000000E+00 0. -1.
         22    1    3    3    0    0  0.78421198594E+02  0.78222255209E+02 -0.17057965524E+03  0.20338639183E+03  0.00000000000E+00 0. -1.
</event>
<event>
 7    1  0.6294601E-006  0.3826488E+02  0.7818608E-02  0.1524919E+00
          2   -1    0    0  502    0  0.00000000000E+00  0.00000000000E+00  0.20123163107E+04  0.20123163107E+04  0.00000000000E+00 0. -1.
          1   -1    0    0  501    0 -0.00000000000E+00 -0.00000000000E+00 -0.60708159855E+02  0.60708159855E+02  0.00000000000E+00 0. -1.
         25    2    1    2    0    0  0.60160094821E+02 -0.20272706892E+02  0.17890076250E+03  0.22729329094E+03  0.12500615037E+03 0.  0.
          2    1    1    2  501    0 -0.36178571155E+02 -0.93790810865E+01 -0.26692249521E+02  0.45927468440E+02  0.00000000000E+00 0. -1.
          1    1    1    2  502    0 -0.23981523666E+02  0.29651787978E+02  0.17993996379E+04  0.17998037112E+04  0.00000000000E+00 0. -1.
         22    1    3    3    0    0  0.91808218963E+00  0.28667821844E+02 -0.39490185949E+01  0.28953093653E+02  0.00000000000E+00 0.  1.
         22    1    3    3    0    0  0.59242012632E+02 -0.48940528736E+02  0.18284978109E+03  0.19834019728E+03  0.00000000000E+00 0.  1.
</event>
<event>
 7    1  0.6294601E-006  0.5684127E+02  0.7818608E-02  0.1548990E+00
          2   -1    0    0  502    0  0.00000000000E+00  0.00000000000E+00  0.12763299193E+04  0.12763299193E+04  0.00000000000E+00 0. -1.
          1   -1    0    0  501    0 -0.00000000000E+00 -0.00000000000E+00 -0.71311712638E+03  0.71311712638E+03  0.00000000000E+00 0. -1.
         25    2    1    2    0    0  0.34338009546E+02 -0.29047220906E+02 -0.61918081739E+02  0.14656734767E+03  0.12500119445E+03 0.  0.
          2    1    1    2  501    0 -0.53761256166E+02  0.19834714422E+02 -0.60743221528E+03  0.61012915413E+03  0.00000000000E+00 0. -1.
          1    1    1    2  502    0  0.19423246620E+02  0.92125064845E+01  0.12325630899E+04  0.12327505439E+04  0.00000000000E+00 0. -1.
         22    1    3    3    0    0 -0.21559911483E+01  0.44743463125E+02 -0.43012991680E+02  0.62102683062E+02  0.00000000000E+00 0. -1.
         22    1    3    3    0    0  0.36494000694E+02 -0.73790684031E+02 -0.18905090058E+02  0.84464664604E+02  0.00000000000E+00 0. -1.
</event>
<event>
 7    1  0.6294601E-006  0.1631423E+03  0.7818608E-02  0.1304425E+00
          2   -1    0    0  502    0  0.00000000000E+00  0.00000000000E+00  0.24816873375E+03  0.24816873375E+03  0.00000000000E+00 0. -1.
          1   -1    0    0  501    0 -0.00000000000E+00 -0.00000000000E+00 -0.62486166060E+03  0.62486166060E+03  0.00000000000E+00 0. -1.
         25    2    1    2    0    0 -0.33425469229E+02  0.20178089799E+03 -0.21090868918E+03  0.31928113285E+03  0.12500069535E+03 0.  0.
          2    1    1    2  501    0 -0.58403450351E+01 -0.48589441490E+02 -0.32539847753E+03  0.32905806879E+03  0.00000000000E+00 0. -1.
          1    1    1    2  502    0  0.39265814264E+02 -0.15319145650E+03  0.15961423985E+03  0.22469119271E+03  0.00000000000E+00 0. -1.
         22    1    3    3    0    0 -0.59966693177E+02  0.36247859595E+02 -0.44152017483E+02  0.82820965121E+02  0.00000000000E+00 0. -1.
         22    1    3    3    0    0  0.26541223948E+02  0.16553303840E+03 -0.16675667169E+03  0.23646016773E+03  0.00000000000E+00 0. -1.
</event>
<event>
 7    1  0.6294601E-006  0.4618337E+02  0.7818608E-02  0.1526697E+00
          2   -1    0    0  502    0  0.00000000000E+00  0.00000000000E+00  0.60618431665E+03  0.60618431665E+03  0.00000000000E+00 0. -1.
          1   -1    0    0  501    0 -0.00000000000E+00 -0.00000000000E+00 -0.81637424712E+03  0.81637424712E+03  0.00000000000E+00 0. -1.
         25    2    1    2    0    0 -0.39701431613E+02 -0.63730138715E+02  0.19668615199E+03  0.24484308981E+03  0.12499984797E+03 0.  0.
          2    1    1    2  501    0  0.18141693154E+02  0.24646061109E+02 -0.79070643488E+03  0.79129843645E+03  0.00000000000E+00 0. -1.
          1    1    1    2  502    0  0.21559738459E+02  0.39084077606E+02  0.38383035242E+03  0.38641703752E+03  0.00000000000E+00 0. -1.
         22    1    3    3    0    0  0.82333559511E+01  0.71481912702E+01  0.14388464004E+03  0.14429717401E+03  0.00000000000E+00 0. -1.
         22    1    3    3    0    0 -0.47934787564E+02 -0.70878329985E+02  0.52801511950E+02  0.10054591580E+03  0.00000000000E+00 0. -1.
</event>
<event>
 7    1  0.6294601E-006  0.1036476E+03  0.7818608E-02  0.1407345E+00
          2   -1    0    0  502    0  0.00000000000E+00  0.00000000000E+00  0.53666149738E+03  0.53666149738E+03  0.00000000000E+00 0. -1.
          1   -1    0    0  501    0 -0.00000000000E+00 -0.00000000000E+00 -0.47949546362E+02  0.47949546362E+02  0.00000000000E+00 0. -1.
         25    2    1    2    0    0 -0.73327246485E+02 -0.36932278326E+02  0.29830717040E+03  0.33370759762E+03  0.12503085433E+03 0.  0.
          2    1    1    2  501    0  0.10553243818E+03  0.35885355408E+02  0.83570796053E+02  0.13931594379E+03  0.00000000000E+00 0. -1.
          1    1    1    2  502    0 -0.32205191697E+02  0.10469229171E+01  0.10683398456E+03  0.11158750234E+03  0.00000000000E+00 0. -1.
         22    1    3    3    0    0  0.32822963773E+01  0.22155313761E+02  0.17762726492E+03  0.17903373045E+03  0.00000000000E+00 0. -1.
         22    1    3    3    0    0 -0.76609542862E+02 -0.59087592087E+02  0.12067990549E+03  0.15467386717E+03  0.00000000000E+00 0. -1.
</event>
<event>
 7    1  0.6294601E-006  0.9558192E+02  0.7818608E-02  0.1424168E+00
          2   -1    0    0  502    0  0.00000000000E+00  0.00000000000E+00  0.57125208434E+02  0.57125208434E+02  0.00000000000E+00 0. -1.
          1   -1    0    0  501    0 -0.00000000000E+00 -0.00000000000E+00 -0.19590490097E+04  0.19590490097E+04  0.00000000000E+00 0. -1.
         25    2    1    2    0    0 -0.10885854600E+03 -0.29539005281E+02 -0.30722492448E+03  0.35033525408E+03  0.12499960064E+03 0.  0.
          2    1    1    2  501    0  0.27080751476E+02 -0.14410356614E+02 -0.15692839081E+04  0.15695837059E+04  0.00000000000E+00 0. -1.
          1    1    1    2  502    0  0.81777794520E+02  0.43949361895E+02 -0.25414968620E+02  0.96255258129E+02  0.00000000000E+00 0. -1.
         22    1    3    3    0    0 -0.92589487326E+00 -0.28623768708E+02 -0.45593747040E+01  0.28999401960E+02  0.00000000000E+00 0.  1.
         22    1    3    3    0    0 -0.10793265112E+03 -0.91523657319E+00 -0.30266554978E+03  0.32133585212E+03  0.00000000000E+00 0.  1.
</event>
<event>
 7    1  0.6294601E-006  0.1188714E+03  0.7818608E-02  0.1265808E+00
          2   -1    0    0  502    0  0.00000000000E+00  0.00000000000E+00  0.67947786808E+03  0.67947786808E+03  0.00000000000E+00 0. -1.
          1   -1    0    0  501    0 -0.00000000000E+00 -0.00000000000E+00 -0.13579723622E+04  0.13579723622E+04  0.00000000000E+00 0. -1.
         25    2    1    2    0    0  0.17611756827E+01  0.17781806900E+03 -0.33392051236E+03  0.39843445744E+03  0.12499896358E+03 0.  0.
          2    1    1    2  501    0 -0.58015323474E+02 -0.99153282317E+02 -0.98482470696E+03  0.99150232203E+03  0.00000000000E+00 0. -1.
          1    1    1    2  502    0  0.56254147791E+02 -0.78664786685E+02  0.64025072522E+03  0.64751345079E+03  0.00000000000E+00 0. -1.
         22    1    3    3    0    0  0.38555072797E+01  0.55733194760E+02 -0.16366421994E+02  0.58214377120E+02  0.00000000000E+00 0. -1.
         22    1    3    3    0    0 -0.20943315970E+01  0.12208487424E+03 -0.31755409036E+03  0.34022008032E+03  0.00000000000E+00 0. -1.
</event>
<event>
 7    1  0.6294601E-006  0.9200861E+02  0.7818608E-02  0.1399423E+00
          2   -1    0    0  502    0  0.00000000000E+00  0.00000000000E+00  0.36917151558E+03  0.36917151558E+03  0.00000000000E+00 0. -1.
          1   -1    0    0  501    0 -0.00000000000E+00 -0.00000000000E+00 -0.94639629440E+03  0.94639629440E+03  0.00000000000E+00 0. -1.
         25    2    1    2    0    0 -0.58180320092E+01 -0.94306608164E+02 -0.24812230339E+02  0.15864722330E+03  0.12500283536E+03 0.  0.
          2    1    1    2  501    0 -0.36643458977E+02  0.12246711638E+02 -0.84715503250E+03  0.84803559721E+03  0.00000000000E+00 0. -1.
          1    1    1    2  502    0  0.42461490987E+02  0.82059896526E+02  0.29474248402E+03  0.30888498947E+03  0.00000000000E+00 0. -1.
         22    1    3    3    0    0  0.76179699931E+01  0.29555110908E+02 -0.14035581064E+02  0.33593683683E+02  0.00000000000E+00 0. -1.
         22    1    3    3    0    0 -0.13436002002E+02 -0.12386171907E+03 -0.10776649275E+02  0.12505353962E+03  0.00000000000E+00 0. -1.
</event>
<event>
 7    1  0.6294601E-006  0.5492583E+02  0.7818608E-02  0.1438270E+00
          2   -1    0    0  502    0  0.00000000000E+00  0.00000000000E+00  0.57999088063E+03  0.57999088063E+03  0.00000000000E+00 0. -1.
          1   -1    0    0  501    0 -0.00000000000E+00 -0.00000000000E+00 -0.32995578401E+02  0.32995578401E+02  0.00000000000E+00 0. -1.
         25    2    1    2    0    0 -0.23198832863E+02 -0.75987981939E+02  0.31618898086E+03  0.34916083658E+03  0.12500183574E+03 0.  0.
          2    1    1    2  501    0  0.42317309050E+02  0.31982118759E+02  0.38287699568E+02  0.65418334614E+02  0.00000000000E+00 0. -1.
          1    1    1    2  502    0 -0.19118476187E+02  0.44005863180E+02  0.19251862180E+03  0.19840728784E+03  0.00000000000E+00 0. -1.
         22    1    3    3    0    0 -0.71426602737E+02 -0.67077546047E+02  0.19004595386E+03  0.21381913230E+03  0.00000000000E+00 0.  1.
         22    1    3    3    0    0  0.48227769875E+02 -0.89104358926E+01  0.12614302700E+03  0.13534170427E+03  0.00000000000E+00 0.  1.
</event>
<event>
 7    1  0.6294601E-006  0.8455971E+02  0.7818608E-02  0.1424693E+00
          2   -1    0    0  502    0  0.00000000000E+00  0.00000000000E+00  0.42598163034E+03  0.42598163034E+03  0.00000000000E+00 0. -1.
          1   -1    0    0  501    0 -0.00000000000E+00 -0.00000000000E+00 -0.78087084714E+03  0.78087084714E+03  0.00000000000E+00 0. -1.
         25    2    1    2    0    0  0.63709778054E+01  0.50633208788E+02  0.16130233153E+03  0.21035506472E+03  0.12500599949E+03 0.  0.
          2    1    1    2  501    0 -0.18583313356E+02 -0.82937761282E+02 -0.75269858871E+03  0.75748212997E+03  0.00000000000E+00 0. -1.
          1    1    1    2  502    0  0.12212335550E+02  0.32304552494E+02  0.23650704038E+03  0.23901528278E+03  0.00000000000E+00 0. -1.
         22    1    3    3    0    0 -0.26400518026E+02 -0.29178433696E+02  0.90713151540E+02  0.98879948460E+02  0.00000000000E+00 0. -1.
         22    1    3    3    0    0  0.32771495832E+02  0.79811642484E+02  0.70589179987E+02  0.11147511626E+03  0.00000000000E+00 0. -1.
</event>
<event>
 7    1  0.6294601E-006  0.9454539E+02  0.7818608E-02  0.1359032E+00
          2   -1    0    0  502    0  0.00000000000E+00  0.00000000000E+00  0.16361886799E+04  0.16361886799E+04  0.00000000000E+00 0. -1.
          1   -1    0    0  501    0 -0.00000000000E+00 -0.00000000000E+00 -0.56875270728E+03  0.56875270728E+03  0.00000000000E+00 0. -1.
         25    2    1    2    0    0 -0.62921650327E+02 -0.24866662286E+02  0.17220169588E+02  0.14317763483E+03  0.12500326356E+03 0.  0.
          2    1    1    2  501    0 -0.30899255131E+02  0.42185490550E+02 -0.50295473276E+03  0.50566574215E+03  0.00000000000E+00 0. -1.
          1    1    1    2  502    0  0.93820905458E+02 -0.17318828264E+02  0.15531705357E+04  0.15560980102E+04  0.00000000000E+00 0. -1.
         22    1    3    3    0    0 -0.82363022776E+02  0.20159594790E+02 -0.12680757514E+02  0.85737263743E+02  0.00000000000E+00 0.  1.
         22    1    3    3    0    0  0.19441372449E+02 -0.45026257076E+02  0.29900927102E+02  0.57440371087E+02  0.00000000000E+00 0.  1.
</event>
<event>
 7    1  0.6294601E-006  0.6090784E+02  0.7818608E-02  0.1503138E+00
          2   -1    0    0  502    0  0.00000000000E+00  0.00000000000E+00  0.64420159178E+03  0.64420159178E+03  0.00000000000E+00 0. -1.
          1   -1    0    0  501    0 -0.00000000000E+00 -0.00000000000E+00 -0.16186672141E+03  0.16186672141E+03  0.00000000000E+00 0. -1.
         25    2    1    2    0    0  0.60975377982E+02 -0.15959984379E+02  0.79145505390E+02  0.16081487170E+03  0.12499877645E+03 0.  0.
          2    1    1    2  501    0 -0.94704575342E+00  0.27177323743E+02 -0.11769795740E+03  0.12079864651E+03  0.00000000000E+00 0. -1.
          1    1    1    2  502    0 -0.60028332229E+02 -0.11217339364E+02  0.52088732238E+03  0.52445479499E+03  0.00000000000E+00 0. -1.
         22    1    3    3    0    0  0.59607294846E+02 -0.14666426602E+02  0.11209998416E+03  0.12780665130E+03  0.00000000000E+00 0.  1.
         22    1    3    3    0    0  0.13680831361E+01 -0.12935577770E+01 -0.32954478768E+02  0.33008220401E+02  0.00000000000E+00 0.  1.
</event>
<event>
 7    1  0.6294601E-006  0.5022718E+02  0.7818608E-02  0.1453368E+00
          2   -1    0    0  502    0  0.00000000000E+00  0.00000000000E+00  0.11137013035E+03  0.11137013035E+03  0.00000000000E+00 0. -1.
          1   -1    0    0  501    0 -0.00000000000E+00 -0.00000000000E+00 -0.14042340160E+04  0.14042340160E+04  0.00000000000E+00 0. -1.
         25    2    1    2    0    0  0.52520815330E+02 -0.13647809946E+00 -0.48917820988E+03  0.50762053314E+03  0.12499931989E+03 0.  0.
          2    1    1    2  501    0 -0.22857350031E+02  0.40968237861E+02 -0.89895152736E+03  0.90017481831E+03  0.00000000000E+00 0. -1.
          1    1    1    2  502    0 -0.29663465299E+02 -0.40831759762E+02  0.95265851597E+02  0.10780879491E+03  0.00000000000E+00 0. -1.
         22    1    3    3    0    0  0.21233459072E+01 -0.56712000234E+02 -0.26420026704E+03  0.27022683189E+03  0.00000000000E+00 0. -1.
         22    1    3    3    0    0  0.50397469423E+02  0.56575522134E+02 -0.22497794284E+03  0.23739370125E+03  0.00000000000E+00 0. -1.
</event>
<event>
 7    1  0.6294601E-006  0.2181776E+03  0.7818608E-02  0.1141065E+00
          2   -1    0    0  502    0  0.00000000000E+00  0.00000000000E+00  0.11731588005E+04  0.11731588005E+04  0.00000000000E+00 0. -1.
          1   -1    0    0  501    0 -0.00000000000E+00 -0.00000000000E+00 -0.17840424279E+04  0.17840424279E+04  0.00000000000E+00 0. -1.
         25    2    1    2    0    0  0.91779689861E+01  0.38007822728E+02  0.21254134427E+03  0.24965776836E+03  0.12500539419E+03 0.  0.
          2    1    1    2  501    0  0.14364710653E+03 -0.17215826051E+03 -0.17472626058E+04  0.17615900691E+04  0.00000000000E+00 0. -1.
          1    1    1    2  502    0 -0.15282507551E+03  0.13415043779E+03  0.92383763410E+03  0.94595339095E+03  0.00000000000E+00 0. -1.
         22    1    3    3    0    0  0.43908440995E+02 -0.26863434046E+02  0.52569748052E+02  0.73574273286E+02  0.00000000000E+00 0. -1.
         22    1    3    3    0    0 -0.34730472009E+02  0.64871256774E+02  0.15997159622E+03  0.17608349508E+03  0.00000000000E+00 0. -1.
</event>
<event>
 7    1  0.6294601E-006  0.7234285E+02  0.7818608E-02  0.1511951E+00
          2   -1    0    0  502    0  0.00000000000E+00  0.00000000000E+00  0.51084086952E+03  0.51084086952E+03  0.00000000000E+00 0. -1.
          1   -1    0    0  501    0 -0.00000000000E+00 -0.00000000000E+00 -0.33893936395E+03  0.33893936395E+03  0.00000000000E+00 0. -1.
         25    2    1    2    0    0  0.25046402732E+02  0.77094699481E+02 -0.23159926496E+03  0.27537966554E+03  0.12499930273E+03 0.  0.
          2    1    1    2  501    0  0.14086714856E+02 -0.16326162664E+02 -0.81366654565E+02  0.84175480977E+02  0.00000000000E+00 0. -1.
          1    1    1    2  502    0 -0.39133117588E+02 -0.60768536817E+02  0.48486742510E+03  0.49022508696E+03  0.00000000000E+00 0. -1.
         22    1    3    3    0    0 -0.50021093732E+02  0.43833401190E+02 -0.11330972559E+03  0.13138710283E+03  0.00000000000E+00 0. -1.
         22    1    3    3    0    0  0.75067496464E+02  0.33261298291E+02 -0.11828953937E+03  0.14399256271E+03  0.00000000000E+00 0. -1.
</event>
<event>
 7    1  0.6294601E-006  0.1608379E+03  0.7818608E-02  0.1374804E+00
          2   -1    0    0  502    0  0.00000000000E+00  0.00000000000E+00  0.11824990224E+04  0.11824990224E+04  0.00000000000E+00 0. -1.
          1   -1    0    0  501    0 -0.00000000000E+00 -0.00000000000E+00 -0.92631807223E+03  0.92631807223E+03  0.00000000000E+00 0. -1.
         25    2    1    2    0    0  0.17943120680E+03 -0.52771596349E+02  0.91349520501E+03  0.94078564484E+03  0.12499496232E+03 0.  0.
          2    1    1    2  501    0 -0.15547344355E+03  0.40408003925E+02 -0.90486685591E+03  0.91901513881E+03  0.00000000000E+00 0. -1.
          1    1    1    2  502    0 -0.23957763253E+02  0.12363592424E+02  0.24755260109E+03  0.24901631100E+03  0.00000000000E+00 0. -1.
         22    1    3    3    0    0  0.14162982732E+03 -0.19631691037E+02  0.39910580340E+03  0.42394557856E+03  0.00000000000E+00 0.  1.
         22    1    3    3    0    0  0.37801379481E+02 -0.33139905312E+02  0.51438940161E+03  0.51684006627E+03  0.00000000000E+00 0.  1.
</event>
<event>
 7    1  0.6294601E-006  0.8587388E+02  0.7818608E-02  0.1336735E+00
          2   -1    0    0  502    0  0.00000000000E+00  0.00000000000E+00  0.10577602335E+04  0.10577602335E+04  0.00000000000E+00 0. -1.
          1   -1    0    0  501    0 -0.00000000000E+00 -0.00000000000E+00 -0.13329328131E+04  0.13329328131E+04  0.00000000000E+00 0. -1.
         25    2    1    2    0    0  0.76199924094E+02  0.10785278303E+03  0.18922617089E+02  0.18281178783E+03  0.12499373221E+03 0.  0.
          2    1    1    2  501    0 -0.65647494037E+02 -0.23355020218E+02 -0.12481201145E+04  0.12500635467E+04  0.00000000000E+00 0. -1.
          1    1    1    2  502    0 -0.10552430058E+02 -0.84497762816E+02  0.95402491788E+03  0.95781771212E+03  0.00000000000E+00 0. -1.
         22    1    3    3    0    0  0.14844024106E+02 -0.25408103810E+02 -0.13796682970E+02  0.32500234643E+02  0.00000000000E+00 0. -1.
         22    1    3    3    0    0  0.61355899988E+02  0.13326088684E+03  0.32719300059E+02  0.15031155319E+03  0.00000000000E+00 0. -1.
</event>
<event>
 7    1  0.6294601E-006  0.5612805E+02  0.7818608E-02  0.1528594E+00
          2   -1    0    0  502    0  0.00000000000E+00  0.00000000000E+00  0.18628885456E+04  0.18628885456E+04  0.00000000000E+00 0. -1.
          1   -1    0    0  501    0 -0.00000000000E+00 -0.00000000000E+00 -0.46987142546E+02  0.46987142546E+02  0.00000000000E+00 0. -1.
         25    2    1    2    0    0  0.78065068139E+02  0.13709388348E+01  0.56184684670E+03  0.58085657458E+03  0.12500578687E+03 0.  0.
          2    1    1    2  501    0 -0.23620126837E+02 -0.77747342605E+01 -0.32709102191E+02  0.41088225208E+02  0.00000000000E+00 0. -1.
          1    1    1    2  502    0 -0.54444941302E+02  0.64037954256E+01  0.12867636585E+04  0.12879308883E+04  0.00000000000E+00 0. -1.
         22    1    3    3    0    0 -0.77472651347E+01  0.24056642465E+02  0.35334971776E+03  0.35425240324E+03  0.00000000000E+00 0. -1.
         22    1    3    3    0    0  0.85812333273E+02 -0.22685703630E+02  0.20849712894E+03  0.22660417134E+03  0.00000000000E+00 0. -1.
</event>
<event>
 7    1  0.6294601E-006  0.1489698E+03  0.7818608E-02  0.1281073E+00
          2   -1    0    0  502    0  0.00000000000E+00  0.00000000000E+00  0.60223138708E+03  0.60223138708E+03  0.00000000000E+00 0. -1.
          1   -1    0    0  501    0 -0.00000000000E+00 -0.00000000000E+00 -0.10004779345E+04  0.10004779345E+04  0.00000000000E+00 0. -1.
         25    2    1    2    0    0 -0.17635870799E+02 -0.88939580463E+02  0.13090433980E+02  0.15497713401E+03  0.12500111877E+03 0.  0.
          2    1    1    2  501    0  0.57552234123E+02  0.14229427330E+03 -0.92101464480E+03  0.93371724617E+03  0.00000000000E+00 0. -1.
          1    1    1    2  502    0 -0.39916363324E+02 -0.53354692839E+02  0.50967766344E+03  0.51401494134E+03  0.00000000000E+00 0. -1.
         22    1    3    3    0    0  0.49315582911E+02 -0.24924455339E+02  0.26670931057E+02  0.61356285376E+02  0.00000000000E+00 0. -1.
         22    1    3    3    0    0 -0.66951453710E+02 -0.64015125124E+02 -0.13580497077E+02  0.93620848636E+02  0.00000000000E+00 0. -1.
</event>
<event>
 7    1  0.6294601E-006  0.1125476E+03  0.7818608E-02  0.1393751E+00
          2   -1    0    0  502    0  0.00000000000E+00  0.00000000000E+00  0.10834746517E+03  0.10834746517E+03  0.00000000000E+00 0. -1.
          1   -1    0    0  501    0 -0.00000000000E+00 -0.00000000000E+00 -0.25310531329E+04  0.25310531329E+04  0.00000000000E+00 0. -1.
         25    2    1    2    0    0  0.41799475911E+01 -0.97255905481E+02 -0.36086820329E+03  0.39411543049E+03  0.12499971716E+03 0.  0.
          2    1    1    2  501    0  0.25731257545E+02  0.11129845763E+03 -0.21490182895E+04  0.21520522886E+04  0.00000000000E+00 0. -1.
          1    1    1    2  502    0 -0.29911205137E+02 -0.14042552146E+02  0.87180825065E+02  0.93232878978E+02  0.00000000000E+00 0. -1.
         22    1    3    3    0    0  0.43267747473E+02 -0.52265192995E+02 -0.71093597222E+02  0.98275367901E+02  0.00000000000E+00 0.  1.
         22    1    3    3    0    0 -0.39087799881E+02 -0.44990712486E+02 -0.28977460607E+03  0.29584006259E+03  0.00000000000E+00 0.  1.
</event>
<event>
 7    1  0.6294601E-006  0.6848085E+02  0.7818608E-02  0.1456746E+00
          2   -1    0    0  502    0  0.00000000000E+00  0.00000000000E+00  0.15633376453E+03  0.15633376453E+03  0.00000000000E+00 0. -1.
          1   -1    0    0  501    0 -0.00000000000E+00 -0.00000000000E+00 -0.15110915288E+04  0.15110915288E+04  0.00000000000E+00 0. -1.
         25    2    1    2    0    0 -0.84013789586E+02  0.24846031180E+02  0.72394624837E+02  0.16894103242E+03  0.12499779448E+03 0.  0.
          2    1    1    2  501    0  0.54650950459E+02 -0.41115283763E+02 -0.14539336764E+04  0.14555412492E+04  0.00000000000E+00 0. -1.
          1    1    1    2  502    0  0.29362839126E+02  0.16269252582E+02  0.26781287279E+02  0.42943011649E+02  0.00000000000E+00 0. -1.
         22    1    3    3    0    0 -0.88969611583E+02  0.31189309583E+02  0.10162542006E+03  0.13862211519E+03  0.00000000000E+00 0. -1.
         22    1    3    3    0    0  0.49558219974E+01 -0.63432784024E+01 -0.29230795225E+02  0.30318917230E+02  0.00000000000E+00 0. -1.
</event>
<event>
 7    1  0.6294601E-006  0.1082882E+03  0.7818608E-02  0.1352207E+00
          2   -1    0    0  502    0  0.00000000000E+00  0.00000000000E+00  0.20663320905E+04  0.20663320905E+04  0.00000000000E+00 0. -1.
          1   -1    0    0  501    0 -0.00000000000E+00 -0.00000000000E+00 -0.24019311020E+03  0.24019311020E+03  0.00000000000E+00 0. -1.
         25    2    1    2    0    0  0.82721370849E+02  0.50192146618E+02  0.34473341749E+02  0.16178736036E+03  0.12499864760E+03 0.  0.
          2    1    1    2  501    0  0.25683422817E+02 -0.40986228035E+02 -0.17168851585E+03  0.17837167816E+03  0.00000000000E+00 0. -1.
          1    1    1    2  502    0 -0.10840479367E+03 -0.92059185828E+01  0.19633541544E+04  0.19663661622E+04  0.00000000000E+00 0. -1.
         22    1    3    3    0    0  0.92047164784E+01  0.16662163041E+02 -0.44747815081E+02  0.48628401549E+02  0.00000000000E+00 0.  1.
         22    1    3    3    0    0  0.73516654371E+02  0.33529983577E+02  0.79221156831E+02  0.11315895881E+03  0.00000000000E+00 0.  1.
</event>
<event>
 7    1  0.6294601E-006  0.5567893E+02  0.7818608E-02  0.1466740E+00
          2   -1    0    0  502    0  0.00000000000E+00  0.00000000000E+00  0.86577714924E+03  0.86577714924E+03  0.00000000000E+00 0. -1.
          1   -1    0    0  501    0 -0.00000000000E+00 -0.00000000000E+00 -0.39641664572E+02  0.39641664572E+02  0.00000000000E+00 0. -1.
         25    2    1    2    0    0  0.14583555702E+01 -0.34306509071E+02  0.13965795809E+03  0.19054581356E+03  0.12499719375E+03 0.  0.
          2    1    1    2  501    0  0.37719646226E+02 -0.72117541636E+01  0.15405940332E+02  0.41377821439E+02  0.00000000000E+00 0. -1.
          1    1    1    2  502    0 -0.39178001796E+02  0.41518263234E+02  0.67107158625E+03  0.67349517881E+03  0.00000000000E+00 0. -1.
         22    1    3    3    0    0  0.31665296216E+02 -0.64537906372E+02  0.40361613584E+02  0.82443266520E+02  0.00000000000E+00 0. -1.
         22    1    3    3    0    0 -0.30206940646E+02  0.30231397301E+02  0.99296344503E+02  0.10810254705E+03  0.00000000000E+00 0. -1.
</event>
<event>
 7    1  0.6294601E-006  0.1812928E+03  0.7818608E-02  0.1286870E+00
          2   -1    0    0  502    0  0.00000000000E+00  0.00000000000E+00  0.33946653590E+04  0.33946653590E+04  0.00000000000E+00 0. -1.
          1   -1    0    0  501    0 -0.00000000000E+00 -0.00000000000E+00 -0.78461614586E+03  0.78461614586E+03  0.00000000000E+00 0. -1.
         25    2    1    2    0    0 -0.63787869483E+02 -0.14499546787E+03 -0.16866077943E+03  0.26299089371E+03  0.12500069465E+03 0.  0.
          2    1    1    2  501    0 -0.51614778894E+02  0.47513035243E+01 -0.56513993706E+03  0.56751194591E+03  0.00000000000E+00 0. -1.
          1    1    1    2  502    0  0.11540264838E+03  0.14024416434E+03  0.33438499297E+04  0.33487786653E+04  0.00000000000E+00 0. -1.
         22    1    3    3    0    0 -0.10143425321E+03 -0.93732613432E+02 -0.11215255288E+03  0.17791263491E+03  0.00000000000E+00 0. -1.
         22    1    3    3    0    0  0.37646383724E+02 -0.51262854434E+02 -0.56508226551E+02  0.85078258798E+02  0.00000000000E+00 0. -1.
</event>
<event>
 7    1  0.6294601E-006  0.9234130E+02  0.7818608E-02  0.1379592E+00
          2   -1    0    0  502    0  0.00000000000E+00  0.00000000000E+00  0.12469139097E+04  0.12469139097E+04  0.00000000000E+00 0. -1.
          1   -1    0    0  501    0 -0.00000000000E+00 -0.00000000000E+00 -0.32137387204E+04  0.32137387204E+04  0.00000000000E+00 0. -1.
         25    2    1    2    0    0  0.10932515113E+03 -0.77490747372E+02 -0.76635479316E+02  0.19863111774E+03  0.12499807858E+03 0.  0.
          2    1    1    2  501    0 -0.66383509262E+02  0.63535264023E+02 -0.30749890786E+04  0.30763617040E+04  0.00000000000E+00 0. -1.
          1    1    1    2  502    0 -0.42941641868E+02  0.13955483349E+02  0.11847997473E+04  0.11856598084E+04  0.00000000000E+00 0. -1.
         22    1    3    3    0    0  0.62495848044E+02 -0.10836590551E+03 -0.38810552347E+02  0.13097770602E+03  0.00000000000E+00 0.  1.
         22    1    3    3    0    0  0.46829303086E+02  0.30875158141E+02 -0.37824926969E+02  0.67653411725E+02  0.00000000000E+00 0.  1.
</event>
<event>
 7    1  0.6294601E-006  0.4715714E+02  0.7818608E-02  0.1522440E+00
          2   -1    0    0  502    0  0.00000000000E+00  0.00000000000E+00  0.38318110417E+02  0.38318110417E+02  0.00000000000E+00 0. -1.
          1   -1    0    0  501    0 -0.00000000000E+00 -0.00000000000E+00 -0.71952010964E+03  0.71952010964E+03  0.00000000000E+00 0. -1.
         25    2    1    2    0    0  0.28600226255E+00 -0.29864704625E+02 -0.12981369610E+03  0.18266927956E+03  0.12499795046E+03 0.  0.
          2    1    1    2  501    0  0.22915900114E+02 -0.20625926051E+02 -0.49515228008E+03  0.49611122520E+03  0.00000000000E+00 0. -1.
          1    1    1    2  502    0 -0.23201902377E+02  0.50490630676E+02 -0.56236023045E+02  0.79057715297E+02  0.00000000000E+00 0. -1.
         22    1    3    3    0    0 -0.38972994775E+02 -0.18066275218E+02 -0.13470163185E+03  0.14138533957E+03  0.00000000000E+00 0.  1.
         22    1    3    3    0    0  0.39258997038E+02 -0.11798429408E+02  0.48879357545E+01  0.41283939987E+02  0.00000000000E+00 0.  1.
</event>
<event>
 7    1  0.6294601E-006  0.3680676E+03  0.7818608E-02  0.1202169E+00
          2   -1    0    0  502    0  0.00000000000E+00  0.00000000000E+00  0.21771919347E+04  0.21771919347E+04  0.00000000000E+00 0. -1.
          1   -1    0    0  501    0 -0.00000000000E+00 -0.00000000000E+00 -0.55218053911E+03  0.55218053911E+03  0.00000000000E+00 0. -1.
         25    2    1    2    0    0 -0.39820700515E+03  0.12191932249E+03  0.43939294971E+03  0.61816160362E+03  0.12499785514E+03 0.  0.
          2    1    1    2  501    0  0.53264424445E+02 -0.27657233430E+02 -0.44134829877E+03  0.44541030781E+03  0.00000000000E+00 0. -1.
          1    1    1    2  502    0  0.34494258070E+03 -0.94262089059E+02  0.16269667447E+04  0.16658005624E+04  0.00000000000E+00 0. -1.
         22    1    3    3    0    0 -0.87349578914E+02  0.39579642590E+02  0.18405817558E+03  0.20754254755E+03  0.00000000000E+00 0.  1.
         22    1    3    3    0    0 -0.31085742623E+03  0.82339679899E+02  0.25533477413E+03  0.41061905607E+03  0.00000000000E+00 0.  1.
</event>
<event>
 7    1  0.6294601E-006  0.5700594E+02  0.7818608E-02  0.1436840E+00
          2   -1    0    0  502    0  0.00000000000E+00  0.00000000000E+00  0.10756380162E+02  0.10756380162E+02  0.00000000000E+00 0. -1.
          1   -1    0    0  501    0 -0.00000000000E+00 -0.00000000000E+00 -0.18477445723E+04  0.18477445723E+04  0.00000000000E+00 0. -1.
         25    2    1    2    0    0  0.11841442556E+02  0.63224785576E+02 -0.56935236613E+03  0.58645078667E+03  0.12499926034E+03 0.  0.
          2    1    1    2  501    0 -0.44373188519E+02 -0.14643627463E+02 -0.63592090460E+03  0.63763532885E+03  0.00000000000E+00 0. -1.
          1    1    1    2  502    0  0.32531745963E+02 -0.48581158113E+02 -0.63171492144E+03  0.63441483698E+03  0.00000000000E+00 0. -1.
         22    1    3    3    0    0 -0.21258779932E+02 -0.46996893513E+01 -0.13786091988E+02  0.25769732954E+02  0.00000000000E+00 0. -1.
         22    1    3    3    0    0  0.33100222488E+02  0.67924474927E+02 -0.55556627415E+03  0.56068105371E+03  0.00000000000E+00 0. -1.
</event>
<event>
 7    1  0.6294601E-006  0.3900736E+02  0.7818608E-02  0.1526088E+00
          2   -1    0    0  502    0  0.00000000000E+00  0.00000000000E+00  0.21281666837E+04  0.21281666837E+04  0.00000000000E+00 0. -1.
          1   -1    0    0  501    0 -0.00000000000E+00 -0.00000000000E+00 -0.15774259897E+03  0.15774259897E+03  0.00000000000E+00 0. -1.
         25    2    1    2    0    0  0.52905303190E+02 -0.43942793116E+02 -0.21508563612E+02  0.14428315636E+03  0.12500028291E+03 0.  0.
          2    1    1    2  501    0 -0.15553424021E+02  0.32887381861E+02 -0.70231246078E+02  0.79094353844E+02  0.00000000000E+00 0. -1.
          1    1    1    2  502    0 -0.37351879169E+02  0.11055411256E+02  0.20621638944E+04  0.20625317725E+04  0.00000000000E+00 0. -1.
         22    1    3    3    0    0 -0.92044118461E+01  0.25416776624E+01  0.42591604927E+02  0.43648896126E+02  0.00000000000E+00 0. -1.
         22    1    3    3    0    0  0.62109715036E+02 -0.46484470779E+02 -0.64100168538E+02  0.10063426023E+03  0.00000000000E+00 0. -1.
</event>
<event>
 7    1  0.6294601E-006  0.4389895E+02  0.7818608E-02  0.1499267E+00
          2   -1    0    0  502    0  0.00000000000E+00  0.00000000000E+00  0.18873079796E+04  0.18873079796E+04  0.00000000000E+00 0. -1.
          1   -1    0    0  501    0 -0.00000000000E+00 -0.00000000000E+00 -0.11622332660E+02  0.11622332660E+02  0.00000000000E+00 0. -1.
         25    2    1    2    0    0 -0.48529615666E+02  0.32104680313E+02  0.97324397615E+03  0.98296260379E+03  0.12500323694E+03 0.  0.
          2    1    1    2  501    0  0.43385796197E+02  0.62977922596E+01  0.69805598196E+02  0.82430643807E+02  0.00000000000E+00 0. -1.
          1    1    1    2  502    0  0.51438194691E+01 -0.38402472573E+02  0.83263607262E+03  0.83353706468E+03  0.00000000000E+00 0. -1.
         22    1    3    3    0    0  0.42190872671E+01 -0.14752736077E+02  0.12945253537E+02  0.20075445406E+02  0.00000000000E+00 0.  1.
         22    1    3    3    0    0 -0.52748702933E+02  0.46857416390E+02  0.96029872261E+03  0.96288715838E+03  0.00000000000E+00 0.  1.
</event>
<event>
 7    1  0.6294601E-006  0.9784921E+02  0.7818608E-02  0.1327779E+00
          2   -1    0    0  502    0  0.00000000000E+00  0.00000000000E+00  0.38110267147E+03  0.38110267147E+03  0.00000000000E+00 0. -1.
          1   -1    0    0  501    0 -0.00000000000E+00 -0.00000000000E+00 -0.11644458884E+04  0.11644458884E+04  0.00000000000E+00 0. -1.
         25    2    1    2    0    0  0.48681943548E+02  0.82421584074E+02 -0.47080540941E+02  0.16433268289E+03  0.12500161672E+03 0.  0.
          2    1    1    2  501    0 -0.64213679354E+02  0.15865168829E+02 -0.10499976088E+04  0.10520789317E+04  0.00000000000E+00 0. -1.
          1    1    1    2  502    0  0.15531735806E+02 -0.98286752903E+02  0.31373493282E+03  0.32913694519E+03  0.00000000000E+00 0. -1.
         22    1    3    3    0    0  0.26954389051E+02 -0.21422625981E+02 -0.46972291335E+02  0.58239712794E+02  0.00000000000E+00 0.  1.
         22    1    3    3    0    0  0.21727554497E+02  0.10384421006E+03 -0.10824960665E+00  0.10609297010E+03  0.00000000000E+00 0.  1.
</event>
<event>
 7    1  0.6294601E-006  0.1397327E+03  0.7818608E-02  0.1304037E+00
          2   -1    0    0  502    0  0.00000000000E+00  0.00000000000E+00  0.72252847227E+02  0.72252847227E+02  0.00000000000E+00 0. -1.
          1   -1    0    0  501    0 -0.00000000000E+00 -0.00000000000E+00 -0.19374105243E+04  0.19374105243E+04  0.00000000000E+00 0. -1.
         25    2    1    2    0    0 -0.36285942033E+02  0.13970825892E+03 -0.11723654993E+03  0.22406399554E+03  0.12500079303E+03 0.  0.
          2    1    1    2  501    0  0.85775726816E+02 -0.11074618654E+03 -0.17124581437E+04  0.17181778392E+04  0.00000000000E+00 0. -1.
          1    1    1    2  502    0 -0.49489784783E+02 -0.28962072373E+02 -0.35462983499E+02  0.67421536861E+02  0.00000000000E+00 0. -1.
         22    1    3    3    0    0 -0.51578556059E+02  0.11895844517E+03 -0.29980138559E+02  0.13307993023E+03  0.00000000000E+00 0.  1.
         22    1    3    3    0    0  0.15292614026E+02  0.20749813747E+02 -0.87256411371E+02  0.90984065306E+02  0.00000000000E+00 0.  1.
</event>
<event>
 7    1  0.6294601E-006  0.9882680E+02  0.7818608E-02  0.1287506E+00
          2   -1    0    0  502    0  0.00000000000E+00  0.00000000000E+00  0.32476566350E+04  0.32476566350E+04  0.00000000000E+00 0. -1.
          1   -1    0    0  501    0 -0.00000000000E+00 -0.00000000000E+00 -0.85272817980E+03  0.85272817980E+03  0.00000000000E+00 0. -1.
         25    2    1    2    0    0 -0.13703894223E+03  0.10275078904E+03  0.66338762072E+03  0.69645186390E+03  0.12499866824E+03 0.  0.
          2    1    1    2  501    0  0.43126930125E+02 -0.84105401631E+02 -0.83262882230E+03  0.83797637581E+03  0.00000000000E+00 0. -1.
          1    1    1    2  502    0  0.93912012103E+02 -0.18645387410E+02  0.25641696567E+04  0.25659565751E+04  0.00000000000E+00 0. -1.
         22    1    3    3    0    0 -0.38873044983E+02  0.53350454039E+02  0.46498207513E+03  0.46964424277E+03  0.00000000000E+00 0.  1.
         22    1    3    3    0    0 -0.98165897246E+02  0.49400335001E+02  0.19840554559E+03  0.22680762113E+03  0.00000000000E+00 0.  1.
</event>
<event>
 7    1  0.6294601E-006  0.1690950E+03  0.7818608E-02  0.1398886E+00
          2   -1    0    0  502    0  0.00000000000E+00  0.00000000000E+00  0.25036983943E+04  0.25036983943E+04  0.00000000000E+00 0. -1.
          1   -1    0    0  501    0 -0.00000000000E+00 -0.00000000000E+00 -0.29792072090E+02  0.29792072090E+02  0.00000000000E+00 0. -1.
         25    2    1    2    0    0  0.80277005107E+02  0.14690493981E+03  0.96345877931E+03  0.98585106626E+03  0.12499618603E+03 0.  0.
          2    1    1    2  501    0 -0.62476469071E+02 -0.15825723836E+03  0.37274263494E+03  0.40973861739E+03  0.00000000000E+00 0. -1.
          1    1    1    2  502    0 -0.17800536036E+02  0.11352298542E+02  0.11377049079E+04  0.11379007827E+04  0.00000000000E+00 0. -1.
         22    1    3    3    0    0  0.56889531291E+02  0.87408016008E+02  0.84348382802E+03  0.84990678793E+03  0.00000000000E+00 0. -1.
         22    1    3    3    0    0  0.23387473815E+02  0.59496923806E+02  0.11997495129E+03  0.13594427833E+03  0.00000000000E+00 0. -1.
</event>
<event>
 7    1  0.6294601E-006  0.5191536E+02  0.7818608E-02  0.1497483E+00
          2   -1    0    0  502    0  0.00000000000E+00  0.00000000000E+00  0.91041037403E+03  0.91041037403E+03  0.00000000000E+00 0. -1.
          1   -1    0    0  501    0 -0.00000000000E+00 -0.00000000000E+00 -0.48466637405E+03  0.48466637405E+03  0.00000000000E+00 0. -1.
         25    2    1    2    0    0  0.26686215010E+02  0.31641678084E+00  0.35395429322E+02  0.13262659983E+03  0.12499889749E+03 0.  0.
          2    1    1    2  501    0 -0.43970849583E+02 -0.28624300119E+02 -0.43413789758E+03  0.43729681029E+03  0.00000000000E+00 0. -1.
          1    1    1    2  502    0  0.17284634573E+02  0.28307883338E+02  0.82448646824E+03  0.82515333797E+03  0.00000000000E+00 0. -1.
         22    1    3    3    0    0 -0.38302216067E+01  0.52987016725E+02 -0.13194555748E+02  0.54739298866E+02  0.00000000000E+00 0. -1.
         22    1    3    3    0    0  0.30516436617E+02 -0.52670599944E+02  0.48589985070E+02  0.77887300963E+02  0.00000000000E+00 0. -1.
</event>
<event>
 7    1  0.6294601E-006  0.8544420E+02  0.7818608E-02  0.1425126E+00
          2   -1    0    0  502    0  0.00000000000E+00  0.00000000000E+00  0.24330614421E+04  0.24330614421E+04  0.00000000000E+00 0. -1.
          1   -1    0    0  501    0 -0.00000000000E+00 -0.00000000000E+00 -0.66823015406E+03  0.66823015406E+03  0.00000000000E+00 0. -1.
         25    2    1    2    0    0 -0.81378061167E+02  0.68278703585E+01 -0.49622505636E+03  0.51820198330E+03  0.12499992113E+03 0.  0.
          2    1    1    2  501    0  0.60452490394E+01  0.33524839011E+02 -0.15845198378E+03  0.16207248697E+03  0.00000000000E+00 0. -1.
          1    1    1    2  502    0  0.75332812128E+02 -0.40352709370E+02  0.24195083281E+04  0.24210171259E+04  0.00000000000E+00 0. -1.
         22    1    3    3    0    0 -0.17018977426E+02  0.24363665293E+01  0.60342003019E+00  0.17203069209E+02  0.00000000000E+00 0.  1.
         22    1    3    3    0    0 -0.64359083742E+02  0.43915038292E+01 -0.49682847639E+03  0.50099891409E+03  0.00000000000E+00 0.  1.
</event>
<event>
 7    1  0.6294601E-006  0.5164299E+02  0.7818608E-02  0.1507652E+00
          2   -1    0    0  502    0  0.00000000000E+00  0.00000000000E+00  0.15553192368E+04  0.15553192368E+04  0.00000000000E+00 0. -1.
          1   -1    0    0  501    0 -0.00000000000E+00 -0.00000000000E+00 -0.16949297163E+03  0.16949297163E+03  0.00000000000E+00 0. -1.
         25    2    1    2    0    0 -0.35845912241E+02  0.19399586842E+02  0.54308668099E+03  0.55877493849E+03  0.12500006170E+03 0.  0.
          2    1    1    2  501    0  0.51220489044E+02  0.76341822743E+01 -0.15725328663E+03  0.16556091143E+03  0.00000000000E+00 0. -1.
          1    1    1    2  502    0 -0.15374576803E+02 -0.27033769117E+02  0.99999287077E+03  0.10004763585E+04  0.00000000000E+00 0. -1.
         22    1    3    3    0    0 -0.67798274268E+02  0.16049728237E+02  0.50103005253E+03  0.50585107819E+03  0.00000000000E+00 0.  1.
         22    1    3    3    0    0  0.31952362027E+02  0.33498586054E+01  0.42056628461E+02  0.52923860302E+02  0.00000000000E+00 0.  1.
</event>
<event>
 7    1  0.6294601E-006  0.1586638E+03  0.7818608E-02  0.1302455E+00
          2   -1    0    0  502    0  0.00000000000E+00  0.00000000000E+00  0.45259502599E+03  0.45259502599E+03  0.00000000000E+00 0. -1.
          1   -1    0    0  501    0 -0.00000000000E+00 -0.00000000000E+00 -0.56636842567E+03  0.56636842567E+03  0.00000000000E+00 0. -1.
         25    2    1    2    0    0 -0.78513917290E+02 -0.17665439021E+03 -0.70879327066E+02  0.24086952532E+03  0.12499216149E+03 0.  0.
          2    1    1    2  501    0  0.87069685801E+02  0.12613630367E+03 -0.39426403876E+03  0.42300783628E+03  0.00000000000E+00 0. -1.
          1    1    1    2  502    0 -0.85557685113E+01  0.50518086544E+02  0.35136996615E+03  0.35508609006E+03  0.00000000000E+00 0. -1.
         22    1    3    3    0    0  0.14186520140E+02 -0.12017948430E+03 -0.28375857349E+02  0.12429623921E+03  0.00000000000E+00 0. -1.
         22    1    3    3    0    0 -0.92700437430E+02 -0.56474905908E+02 -0.42503469717E+02  0.11657328611E+03  0.00000000000E+00 0. -1.
</event>
<event>
 7    1  0.6294601E-006  0.7909327E+02  0.7818608E-02  0.1396721E+00
          2   -1    0    0  502    0  0.00000000000E+00  0.00000000000E+00  0.58586216215E+03  0.58586216215E+03  0.00000000000E+00 0. -1.
          1   -1    0    0  501    0 -0.00000000000E+00 -0.00000000000E+00 -0.31732416983E+03  0.31732416983E+03  0.00000000000E+00 0. -1.
         25    2    1    2    0    0 -0.55158344112E+02  0.11496473133E+01  0.17773405178E+03  0.22418342606E+03  0.12500020297E+03 0.  0.
          2    1    1    2  501    0  0.67380822518E+02  0.43113217992E+02 -0.28724495924E+03  0.29817543731E+03  0.00000000000E+00 0. -1.
          1    1    1    2  502    0 -0.12222478405E+02 -0.44262865305E+02  0.37804889977E+03  0.38082746860E+03  0.00000000000E+00 0. -1.
         22    1    3    3    0    0 -0.76990868147E+02 -0.11242256821E+02  0.46657107977E+02  0.90724130424E+02  0.00000000000E+00 0. -1.
         22    1    3    3    0    0  0.21832524034E+02  0.12391904134E+02  0.13107694381E+03  0.13345929563E+03  0.00000000000E+00 0. -1.
</event>
<event>
 7    1  0.6294601E-006  0.6232219E+02  0.7818608E-02  0.1416446E+00
          2   -1    0    0  502    0  0.00000000000E+00  0.00000000000E+00  0.15533306564E+04  0.15533306564E+04  0.00000000000E+00 0. -1.
          1   -1    0    0  501    0 -0.00000000000E+00 -0.00000000000E+00 -0.72408411414E+03  0.72408411414E+03  0.00000000000E+00 0. -1.
         25    2    1    2    0    0  0.75491901122E+02 -0.76871760805E+02  0.21190342397E+03  0.26858201106E+03  0.12499976333E+03 0.  0.
          2    1    1    2  501    0 -0.31325072601E+02  0.53596040756E+02 -0.69388405648E+03  0.69665549563E+03  0.00000000000E+00 0. -1.
          1    1    1    2  502    0 -0.44166828521E+02  0.23275720049E+02  0.13112271748E+04  0.13121772638E+04  0.00000000000E+00 0. -1.
         22    1    3    3    0    0  0.98943997287E+02 -0.24622912853E+02  0.99688356272E+02  0.14259723284E+03  0.00000000000E+00 0. -1.
         22    1    3    3    0    0 -0.23452096165E+02 -0.52248847953E+02  0.11221506769E+03  0.12598477823E+03  0.00000000000E+00 0. -1.
</event>
<event>
 7    1  0.6294601E-006  0.1613981E+03  0.7818608E-02  0.1327921E+00
          2   -1    0    0  502    0  0.00000000000E+00  0.00000000000E+00  0.54824255164E+03  0.54824255164E+03  0.00000000000E+00 0. -1.
          1   -1    0    0  501    0 -0.00000000000E+00 -0.00000000000E+00 -0.93362051593E+03  0.93362051593E+03  0.00000000000E+00 0. -1.
         25    2    1    2    0    0 -0.16037248170E+03  0.28724820948E+02 -0.13895611742E+03  0.24794828108E+03  0.12500039719E+03 0.  0.
          2    1    1    2  501    0  0.14748407230E+03 -0.66645172402E+02 -0.73048437660E+03  0.74819820572E+03  0.00000000000E+00 0. -1.
          1    1    1    2  502    0  0.12888409393E+02  0.37920351453E+02  0.48406252973E+03  0.48571658077E+03  0.00000000000E+00 0. -1.
         22    1    3    3    0    0 -0.13865500338E+02  0.53871973114E+02 -0.26875618522E+02  0.61779773857E+02  0.00000000000E+00 0. -1.
         22    1    3    3    0    0 -0.14650698136E+03 -0.25147152166E+02 -0.11208049890E+03  0.18616850722E+03  0.00000000000E+00 0. -1.
</event>
<event>
 7    1  0.6663096E-006  0.6011427E+02  0.7818608E-02  0.1468116E+00
          2   -1    0    0  502    0  0.00000000000E+00  0.00000000000E+00  0.12695906507E+04  0.12695906507E+04  0.00000000000E+00 0. -1.
          1   -1    0    0  501    0 -0.00000000000E+00 -0.00000000000E+00 -0.11990990841E+04  0.11990990841E+04  0.00000000000E+00 0. -1.
         25    2    1    2    0    0  0.49218221341E+02 -0.72725909615E+02 -0.14164177941E+03  0.20832411632E+03  0.12500021009E+03 0.  0.
          2    1    1    2  501    0 -0.17828925453E+02  0.56753764093E+02 -0.10230010286E+04  0.10247292154E+04  0.00000000000E+00 0. -1.
          1    1    1    2  502    0 -0.31389295887E+02  0.15972145522E+02  0.12351343746E+04  0.12356364031E+04  0.00000000000E+00 0. -1.
         22    1    3    3    0    0  0.12782991153E+02  0.31628385101E+02 -0.82672191632E+01  0.35101374896E+02  0.00000000000E+00 0.  1.
         22    1    3    3    0    0  0.36435230188E+02 -0.10435429472E+03 -0.13337456025E+03  0.17322274142E+03  0.00000000000E+00 0.  1.
</event>
<event>
 7    1  0.6294601E-006  0.1434505E+03  0.7818608E-02  0.1357047E+00
          2   -1    0    0  502    0  0.00000000000E+00  0.00000000000E+00  0.13522026253E+04  0.13522026253E+04  0.00000000000E+00 0. -1.
          1   -1    0    0  501    0 -0.00000000000E+00 -0.00000000000E+00 -0.60776025767E+03  0.60776025767E+03  0.00000000000E+00 0. -1.
         25    2    1    2    0    0  0.90052941501E+02 -0.72955927250E+02  0.53209487630E+03  0.55873256787E+03  0.12500010167E+03 0.  0.
          2    1    1    2  501    0 -0.95619709454E+02  0.10755667377E+03 -0.58534051450E+03  0.60277283019E+03  0.00000000000E+00 0. -1.
          1    1    1    2  502    0  0.55667679528E+01 -0.34600746516E+02  0.79768800585E+03  0.79845748493E+03  0.00000000000E+00 0. -1.
         22    1    3    3    0    0 -0.17236535306E+02 -0.38572737395E+02  0.60012454547E+02  0.73392430947E+02  0.00000000000E+00 0.  1.
         22    1    3    3    0    0  0.10728947681E+03 -0.34383189854E+02  0.47208242175E+03  0.48534013692E+03  0.00000000000E+00 0.  1.
</event>
<event>
 7    1  0.6294601E-006  0.5624763E+02  0.7818608E-02  0.1427025E+00
          2   -1    0    0  502    0  0.00000000000E+00  0.00000000000E+00  0.12066683055E+03  0.12066683055E+03  0.00000000000E+00 0. -1.
          1   -1    0    0  501    0 -0.00000000000E+00 -0.00000000000E+00 -0.38945862220E+03  0.38945862220E+03  0.00000000000E+00 0. -1.
         25    2    1    2    0    0  0.59296137138E+01 -0.89999572320E+01 -0.19235773546E+03  0.22966164477E+03  0.12500725235E+03 0.  0.
          2    1    1    2  501    0  0.11655907731E+00  0.64921681267E+02 -0.16400352082E+03  0.17638592100E+03  0.00000000000E+00 0. -1.
          1    1    1    2  502    0 -0.60461727911E+01 -0.55921724035E+02  0.87569464627E+02  0.10407788699E+03  0.00000000000E+00 0. -1.
         22    1    3    3    0    0  0.40585550366E+02  0.10683808013E+02 -0.10193583555E+02  0.43188422035E+02  0.00000000000E+00 0.  1.
         22    1    3    3    0    0 -0.34655936652E+02 -0.19683765245E+02 -0.18216415190E+03  0.18647322273E+03  0.00000000000E+00 0.  1.
</event>
<event>
 7    1  0.6294601E-006  0.9726943E+02  0.7818608E-02  0.1389249E+00
          2   -1    0    0  502    0  0.00000000000E+00  0.00000000000E+00  0.78958835214E+03  0.78958835214E+03  0.00000000000E+00 0. -1.
          1   -1    0    0  501    0 -0.00000000000E+00 -0.00000000000E+00 -0.10681991496E+03  0.10681991496E+03  0.00000000000E+00 0. -1.
         25    2    1    2    0    0 -0.76968469231E+02  0.32558023444E+02  0.54845191591E+02  0.16005692563E+03  0.12500421695E+03 0.  0.
          2    1    1    2  501    0  0.10559491766E+03 -0.51394586918E+01 -0.14511912695E+01  0.10572987575E+03  0.00000000000E+00 0. -1.
          1    1    1    2  502    0 -0.28626448428E+02 -0.27418564752E+02  0.62937443686E+03  0.63062146572E+03  0.00000000000E+00 0. -1.
         22    1    3    3    0    0 -0.29225085931E+02  0.38663830452E+02  0.88791661487E+02  0.10115807720E+03  0.00000000000E+00 0. -1.
         22    1    3    3    0    0 -0.47743383300E+02 -0.61058070078E+01 -0.33946469895E+02  0.58898848431E+02  0.00000000000E+00 0. -1.
</event>
<event>
 7    1  0.6294601E-006  0.6248335E+02  0.7818608E-02  0.1507539E+00
          2   -1    0    0  502    0  0.00000000000E+00  0.00000000000E+00  0.15591786849E+03  0.15591786849E+03  0.00000000000E+00 0. -1.
          1   -1    0    0  501    0 -0.00000000000E+00 -0.00000000000E+00 -0.10656978163E+04  0.10656978163E+04  0.00000000000E+00 0. -1.
         25    2    1    2    0    0 -0.85054828978E+02 -0.20035462231E+02 -0.37491955563E+03  0.40475289746E+03  0.12499796449E+03 0.  0.
          2    1    1    2  501    0  0.23906991224E+02  0.94969314599E+01 -0.66877592665E+03  0.66927048046E+03  0.00000000000E+00 0. -1.
          1    1    1    2  502    0  0.61147837753E+02  0.10538530772E+02  0.13391553444E+03  0.14759230690E+03  0.00000000000E+00 0. -1.
         22    1    3    3    0    0  0.46397785145E+01  0.37006881169E+02 -0.16842686900E+03  0.17250694768E+03  0.00000000000E+00 0.  1.
         22    1    3    3    0    0 -0.89694607492E+02 -0.57042343400E+02 -0.20649268664E+03  0.23224594978E+03  0.00000000000E+00 0.  1.
</event>
<event>
 7    1  0.6294601E-006  0.5772961E+02  0.7818608E-02  0.1417124E+00
          2   -1    0    0  502    0  0.00000000000E+00  0.00000000000E+00  0.65199610652E+03  0.65199610652E+03  0.00000000000E+00 0. -1.
          1   -1    0    0  501    0 -0.00000000000E+00 -0.00000000000E+00 -0.15121725160E+04  0.15121725160E+04  0.00000000000E+00 0. -1.
         25    2    1    2    0    0 -0.94144710442E+02 -0.58151821236E+02  0.26047353474E+03  0.30938030106E+03  0.12499939026E+03 0.  0.
          2    1    1    2  501    0  0.45796089060E+02  0.34979635127E+02 -0.14851996026E+04  0.14863171654E+04  0.00000000000E+00 0. -1.
          1    1    1    2  502    0  0.48348621382E+02  0.23172186108E+02  0.36454965839E+03  0.36847115603E+03  0.00000000000E+00 0. -1.
         22    1    3    3    0    0 -0.92312300297E+02 -0.72882275760E+02  0.11965557604E+03  0.16778213190E+03  0.00000000000E+00 0.  1.
         22    1    3    3    0    0 -0.18324101442E+01  0.14730454524E+02  0.14081795870E+03  0.14159816917E+03  0.00000000000E+00 0.  1.
</event>
<event>
 7    1  0.6294601E-006  0.1331429E+03  0.7818608E-02  0.1279348E+00
          2   -1    0    0  502    0  0.00000000000E+00  0.00000000000E+00  0.66209840209E+03  0.66209840209E+03  0.00000000000E+00 0. -1.
          1   -1    0    0  501    0 -0.00000000000E+00 -0.00000000000E+00 -0.49026511518E+03  0.49026511518E+03  0.00000000000E+00 0. -1.
         25    2    1    2    0    0 -0.17862699327E+02  0.97475322820E+02  0.21725068130E+02  0.16098888909E+03  0.12499971696E+03 0.  0.
          2    1    1    2  501    0 -0.50776645140E+02 -0.12960733530E+03 -0.40647821101E+03  0.42965202790E+03  0.00000000000E+00 0. -1.
          1    1    1    2  502    0  0.68639344467E+02  0.32132012482E+02  0.55658642979E+03  0.56172260028E+03  0.00000000000E+00 0. -1.
         22    1    3    3    0    0 -0.52887446086E+02  0.11021281215E+03  0.16979143176E+02  0.12341894999E+03  0.00000000000E+00 0. -1.
         22    1    3    3    0    0  0.35024746759E+02 -0.12737489327E+02  0.47459249545E+01  0.37569939095E+02  0.00000000000E+00 0. -1.
</event>
<event>
 7    1  0.6294601E-006  0.8923955E+02  0.7818608E-02  0.1439413E+00
          2   -1    0    0  502    0  0.00000000000E+00  0.00000000000E+00  0.73313719456E+03  0.73313719456E+03  0.00000000000E+00 0. -1.
          1   -1    0    0  501    0 -0.00000000000E+00 -0.00000000000E+00 -0.92057286012E+03  0.92057286012E+03  0.00000000000E+00 0. -1.
         25    2    1    2    0    0 -0.28192385803E+02  0.11490610221E+03  0.31101655195E+03  0.35546433721E+03  0.12500150600E+03 0.  0.
          2    1    1    2  501    0  0.21923321778E+02 -0.86305992415E+02 -0.89560208994E+03  0.90001803308E+03  0.00000000000E+00 0. -1.
          1    1    1    2  502    0  0.62690640254E+01 -0.28600109797E+02  0.39714987243E+03  0.39822768439E+03  0.00000000000E+00 0. -1.
         22    1    3    3    0    0  0.31569013721E+02  0.34045416656E+02  0.20154664370E+03  0.20682539160E+03  0.00000000000E+00 0.  1.
         22    1    3    3    0    0 -0.59761399524E+02  0.80860685555E+02  0.10946990824E+03  0.14863894561E+03  0.00000000000E+00 0.  1.
</event>
<event>
 7    1  0.6294601E-006  0.5879295E+02  0.7818608E-02  0.1543360E+00
          2   -1    0    0  502    0  0.00000000000E+00  0.00000000000E+00  0.16921685797E+03  0.16921685797E+03  0.00000000000E+00 0. -1.
          1   -1    0    0  501    0 -0.00000000000E+00 -0.00000000000E+00 -0.63060239920E+03  0.63060239920E+03  0.00000000000E+00 0. -1.
         25    2    1    2    0    0  0.11955001463E+02  0.47173128407E+02 -0.28591949821E+03  0.31582893996E+03  0.12501893358E+03 0.  0.
          2    1    1    2  501    0 -0.33088117386E+02 -0.51406725823E+02 -0.32612086847E+03  0.33180159105E+03  0.00000000000E+00 0. -1.
          1    1    1    2  502    0  0.21133115923E+02  0.42335974165E+01  0.15065482545E+03  0.15218872615E+03  0.00000000000E+00 0. -1.
         22    1    3    3    0    0 -0.31813839135E+02  0.37107404875E+02 -0.33052629563E+02  0.59004713185E+02  0.00000000000E+00 0. -1.
         22    1    3    3    0    0  0.43768840597E+02  0.10065723532E+02 -0.25286686865E+03  0.25682422677E+03  0.00000000000E+00 0. -1.
</event>
<event>
 7    1  0.6294601E-006  0.1824559E+03  0.7818608E-02  0.1242022E+00
          2   -1    0    0  502    0  0.00000000000E+00  0.00000000000E+00  0.26264418557E+03  0.26264418557E+03  0.00000000000E+00 0. -1.
          1   -1    0    0  501    0 -0.00000000000E+00 -0.00000000000E+00 -0.13958241117E+04  0.13958241117E+04  0.00000000000E+00 0. -1.
         25    2    1    2    0    0 -0.42371857377E+02  0.14677288776E+03 -0.31264067266E+03  0.36974007360E+03  0.12500350773E+03 0.  0.
          2    1    1    2  501    0 -0.79637051246E+02 -0.48750368049E+01 -0.10154164737E+04  0.10185462390E+04  0.00000000000E+00 0. -1.
          1    1    1    2  502    0  0.12200890862E+03 -0.14189785095E+03  0.19487722021E+03  0.27018198468E+03  0.00000000000E+00 0. -1.
         22    1    3    3    0    0 -0.25995183613E+02  0.12833386198E+03 -0.12681057092E+03  0.18228069178E+03  0.00000000000E+00 0.  1.
         22    1    3    3    0    0 -0.16376673764E+02  0.18439025782E+02 -0.18583010175E+03  0.18745938182E+03  0.00000000000E+00 0.  1.
</event>
<event>
 7    1  0.6294601E-006  0.5610496E+02  0.7818608E-02  0.1417214E+00
          2   -1    0    0  502    0  0.00000000000E+00  0.00000000000E+00  0.12059201892E+03  0.12059201892E+03  0.00000000000E+00 0. -1.
          1   -1    0    0  501    0 -0.00000000000E+00 -0.00000000000E+00 -0.91812323630E+03  0.91812323630E+03  0.00000000000E+00 0. -1.
         25    2    1    2    0    0 -0.34316937929E+02  0.55491125709E+02 -0.17868670725E+03  0.22762064370E+03  0.12500120331E+03 0.  0.
          2    1    1    2  501    0  0.55065456911E+02 -0.26448696106E+01 -0.70541635351E+03  0.70756726301E+03  0.00000000000E+00 0. -1.
          1    1    1    2  502    0 -0.20748518982E+02 -0.52846256099E+02  0.86571843377E+02  0.10352734851E+03  0.00000000000E+00 0. -1.
         22    1    3    3    0    0 -0.73061481816E+02  0.34579517797E+02 -0.58944888021E+02  0.10004110655E+03  0.00000000000E+00 0. -1.
         22    1    3    3    0    0  0.38744543887E+02  0.20911607912E+02 -0.11974181923E+03  0.12757953715E+03  0.00000000000E+00 0. -1.
</event>
<event>
 7    1  0.1515745E-005  0.6037686E+02  0.7818608E-02  0.1506189E+00
          2   -1    0    0  502    0  0.00000000000E+00  0.00000000000E+00  0.12270074788E+04  0.12270074788E+04  0.00000000000E+00 0. -1.
          1   -1    0    0  501    0 -0.00000000000E+00 -0.00000000000E+00 -0.15280263390E+04  0.15280263390E+04  0.00000000000E+00 0. -1.
         25    2    1    2    0    0  0.15056723912E+02  0.79469555118E+02 -0.51388402842E+03  0.53501784824E+03  0.12500075258E+03 0.  0.
          2    1    1    2  501    0 -0.18761082767E+02 -0.19232213192E+02 -0.10026467859E+04  0.10030066966E+04  0.00000000000E+00 0. -1.
          1    1    1    2  502    0  0.37043588552E+01 -0.60237341926E+02  0.12155119542E+04  0.12170092729E+04  0.00000000000E+00 0. -1.
         22    1    3    3    0    0  0.28765770197E+02  0.10513891053E+03 -0.30050853323E+03  0.31966707461E+03  0.00000000000E+00 0. -1.
         22    1    3    3    0    0 -0.13709046285E+02 -0.25669355414E+02 -0.21337549519E+03  0.21535077364E+03  0.00000000000E+00 0. -1.
</event>
<event>
 7    1  0.6294601E-006  0.4664827E+02  0.7818608E-02  0.1570218E+00
          2   -1    0    0  502    0  0.00000000000E+00  0.00000000000E+00  0.12176164666E+03  0.12176164666E+03  0.00000000000E+00 0. -1.
          1   -1    0    0  501    0 -0.00000000000E+00 -0.00000000000E+00 -0.43796000866E+03  0.43796000866E+03  0.00000000000E+00 0. -1.
         25    2    1    2    0    0  0.45117151235E+02 -0.74356113565E+01 -0.25429443826E+03  0.28701223234E+03  0.12497805620E+03 0.  0.
          2    1    1    2  501    0 -0.96655116128E+00  0.22874755480E+02 -0.16126924737E+03  0.16288633708E+03  0.00000000000E+00 0. -1.
          1    1    1    2  502    0 -0.44150600073E+02 -0.15439144124E+02  0.99365323627E+02  0.10982308590E+03  0.00000000000E+00 0. -1.
         22    1    3    3    0    0  0.36123953503E+02 -0.65243109639E+02 -0.14312378873E+03  0.16138780088E+03  0.00000000000E+00 0.  1.
         22    1    3    3    0    0  0.89931977314E+01  0.57807498282E+02 -0.11117064953E+03  0.12562443146E+03  0.00000000000E+00 0.  1.
</event>
<event>
 7    1  0.6294601E-006  0.5704721E+02  0.7818608E-02  0.1523580E+00
          2   -1    0    0  502    0  0.00000000000E+00  0.00000000000E+00  0.17603442862E+04  0.17603442862E+04  0.00000000000E+00 0. -1.
          1   -1    0    0  501    0 -0.00000000000E+00 -0.00000000000E+00 -0.11115072862E+03  0.11115072862E+03  0.00000000000E+00 0. -1.
         25    2    1    2    0    0 -0.67940218446E+02  0.26728138883E+02  0.33815125195E+03  0.36783389623E+03  0.12500095731E+03 0.  0.
          2    1    1    2  501    0  0.23783555564E+02  0.86077326450E+01 -0.94070034137E+02  0.97411097412E+02  0.00000000000E+00 0. -1.
          1    1    1    2  502    0  0.44156662882E+02 -0.35335871528E+02  0.14051123397E+04  0.14062500211E+04  0.00000000000E+00 0. -1.
         22    1    3    3    0    0  0.33608762010E+02 -0.42627233724E+01  0.12769724015E+03  0.13211474117E+03  0.00000000000E+00 0. -1.
         22    1    3    3    0    0 -0.10154898046E+03  0.30990862256E+02  0.21045401180E+03  0.23571915505E+03  0.00000000000E+00 0. -1.
</event>
<event>
 7    1  0.6294601E-006  0.1810792E+03  0.7818608E-02  0.1203156E+00
          2   -1    0    0  502    0  0.00000000000E+00  0.00000000000E+00  0.35306390335E+03  0.35306390335E+03  0.00000000000E+00 0. -1.
          1   -1    0    0  501    0 -0.00000000000E+00 -0.00000000000E+00 -0.20320603527E+04  0.20320603527E+04  0.00000000000E+00 0. -1.
         25    2    1    2    0    0 -0.27965453017E+03  0.89242084302E+02 -0.13136834561E+04  0.13518732508E+04  0.12500502931E+03 0.  0.
          2    1    1    2  501    0  0.12048626464E+03 -0.71467860137E+01 -0.66948127444E+03  0.68027435153E+03  0.00000000000E+00 0. -1.
          1    1    1    2  502    0  0.15916826553E+03 -0.82095298289E+02  0.30416828125E+03  0.35297665372E+03  0.00000000000E+00 0. -1.
         22    1    3    3    0    0 -0.11117370554E+03  0.96349067848E+01 -0.74827418237E+03  0.75654918957E+03  0.00000000000E+00 0. -1.
         22    1    3    3    0    0 -0.16848082463E+03  0.79607177518E+02 -0.56540927375E+03  0.59532406119E+03  0.00000000000E+00 0. -1.
</event>
<event>
 7    1  0.6294601E-006  0.6415690E+02  0.7818608E-02  0.1386210E+00
          2   -1    0    0  502    0  0.00000000000E+00  0.00000000000E+00  0.12089191090E+03  0.12089191090E+03  0.00000000000E+00 0. -1.
          1   -1    0    0  501    0 -0.00000000000E+00 -0.00000000000E+00 -0.11851187173E+04  0.11851187173E+04  0.00000000000E+00 0. -1.
         25    2    1    2    0    0  0.45631783420E+02  0.90877787116E+02 -0.19377193059E+03  0.25202020372E+03  0.12500236056E+03 0.  0.
          2    1    1    2  501    0 -0.54659487277E+02 -0.28379686285E+02 -0.95024342404E+03  0.95223717166E+03  0.00000000000E+00 0. -1.
          1    1    1    2  502    0  0.90277038575E+01 -0.62498100831E+02  0.79788548196E+02  0.10175325286E+03  0.00000000000E+00 0. -1.
         22    1    3    3    0    0  0.36199762804E+02  0.45412287469E+02 -0.57607164528E+01  0.58359956599E+02  0.00000000000E+00 0.  1.
         22    1    3    3    0    0  0.94320206164E+01  0.45465499647E+02 -0.18801121414E+03  0.19366024712E+03  0.00000000000E+00 0.  1.
</event>
<event>
 7    1  0.6294601E-006  0.1826643E+03  0.7818608E-02  0.1204890E+00
          2   -1    0    0  502    0  0.00000000000E+00  0.00000000000E+00  0.88788877915E+03  0.88788877915E+03  0.00000000000E+00 0. -1.
          1   -1    0    0  501    0 -0.00000000000E+00 -0.00000000000E+00 -0.68638303549E+03  0.68638303549E+03  0.00000000000E+00 0. -1.
         25    2    1    2    0    0  0.29397268111E+03  0.73000306872E+01 -0.43262443571E+03  0.53783103636E+03  0.12500037444E+03 0.  0.
          2    1    1    2  501    0 -0.11451850870E+03 -0.26005251332E+02 -0.17316490622E+03  0.20922917263E+03  0.00000000000E+00 0. -1.
          1    1    1    2  502    0 -0.17945417241E+03  0.18705220645E+02  0.80729508560E+03  0.82721160564E+03  0.00000000000E+00 0. -1.
         22    1    3    3    0    0  0.12377351807E+03 -0.50163654057E+02 -0.13299561602E+03  0.18847840684E+03  0.00000000000E+00 0.  1.
         22    1    3    3    0    0  0.17019916304E+03  0.57463684744E+02 -0.29962881970E+03  0.34935262953E+03  0.00000000000E+00 0.  1.
</event>
<event>
 7    1  0.6294601E-006  0.1019233E+03  0.7818608E-02  0.1375867E+00
          2   -1    0    0  502    0  0.00000000000E+00  0.00000000000E+00  0.21837209860E+03  0.21837209860E+03  0.00000000000E+00 0. -1.
          1   -1    0    0  501    0 -0.00000000000E+00 -0.00000000000E+00 -0.28454431454E+03  0.28454431454E+03  0.00000000000E+00 0. -1.
         25    2    1    2    0    0 -0.85178211452E+02 -0.56387420045E+02 -0.21363511988E+03  0.26776905357E+03  0.12500173102E+03 0.  0.
          2    1    1    2  501    0  0.10601478356E+03  0.19720700817E+02  0.15836071736E+03  0.19158851003E+03  0.00000000000E+00 0. -1.
          1    1    1    2  502    0 -0.20836572108E+02  0.36666719227E+02 -0.10897813407E+02  0.43558849539E+02  0.00000000000E+00 0. -1.
         22    1    3    3    0    0 -0.31919297172E+01  0.23619704852E+02  0.16623007056E+01  0.23892302448E+02  0.00000000000E+00 0. -1.
         22    1    3    3    0    0 -0.81986281735E+02 -0.80007124897E+02 -0.21529742059E+03  0.24387675112E+03  0.00000000000E+00 0. -1.
</event>
<event>
 7    1  0.6294601E-006  0.3395955E+02  0.7818608E-02  0.1638325E+00
          2   -1    0    0  502    0  0.00000000000E+00  0.00000000000E+00  0.14427642145E+04  0.14427642145E+04  0.00000000000E+00 0. -1.
          1   -1    0    0  501    0 -0.00000000000E+00 -0.00000000000E+00 -0.14069443890E+04  0.14069443890E+04  0.00000000000E+00 0. -1.
         25    2    1    2    0    0  0.44501849614E+02 -0.13851163992E+02  0.78739676187E+03  0.79861780431E+03  0.12499786955E+03 0.  0.
          2    1    1    2  501    0 -0.25446842756E+02  0.22484624060E+02 -0.14009596928E+04  0.14013711718E+04  0.00000000000E+00 0. -1.
          1    1    1    2  502    0 -0.19055006858E+02 -0.86334600682E+01  0.64938275648E+03  0.64971962748E+03  0.00000000000E+00 0. -1.
         22    1    3    3    0    0 -0.14607389181E+02 -0.65223713865E+01  0.98364595638E+01  0.18779592220E+02  0.00000000000E+00 0.  1.
         22    1    3    3    0    0  0.59109238795E+02 -0.73287926051E+01  0.77756030230E+03  0.77983821209E+03  0.00000000000E+00 0.  1.
</event>
<event>
 7    1  0.6294601E-006  0.1088482E+03  0.7818608E-02  0.1326914E+00
          2   -1    0    0  502    0  0.00000000000E+00  0.00000000000E+00  0.94606945778E+03  0.94606945778E+03  0.00000000000E+00 0. -1.
          1   -1    0    0  501    0 -0.00000000000E+00 -0.00000000000E+00 -0.11371402609E+04  0.11371402609E+04  0.00000000000E+00 0. -1.
         25    2    1    2    0    0 -0.49342038270E+02  0.96879320487E+01 -0.15164924042E+03  0.20285802968E+03  0.12500158126E+03 0.  0.
          2    1    1    2  501    0 -0.59827275038E+02  0.32770666527E+01 -0.95566245959E+03  0.95753891757E+03  0.00000000000E+00 0. -1.
          1    1    1    2  502    0  0.10916931331E+03 -0.12964998701E+02  0.91624089684E+03  0.92281277148E+03  0.00000000000E+00 0. -1.
         22    1    3    3    0    0  0.35961637111E+02 -0.84629669878E+01 -0.13204100024E+02  0.39232759416E+02  0.00000000000E+00 0. -1.
         22    1    3    3    0    0 -0.85303675382E+02  0.18150899036E+02 -0.13844514039E+03  0.16362527026E+03  0.00000000000E+00 0. -1.
</event>
<event>
 7    1  0.6294601E-006  0.8158800E+02  0.7818608E-02  0.1348857E+00
          2   -1    0    0  502    0  0.00000000000E+00  0.00000000000E+00  0.52320217140E+03  0.52320217140E+03  0.00000000000E+00 0. -1.
          1   -1    0    0  501    0 -0.00000000000E+00 -0.00000000000E+00 -0.97133343670E+03  0.97133343670E+03  0.00000000000E+00 0. -1.
         25    2    1    2    0    0  0.11282143434E+02 -0.14329805663E+03 -0.21923596863E+03  0.29043139038E+03  0.12499745110E+03 0.  0.
          2    1    1    2  501    0 -0.99268695934E+01  0.77254589223E+02 -0.71212923634E+03  0.71637620253E+03  0.00000000000E+00 0. -1.
          1    1    1    2  502    0 -0.13552738403E+01  0.66043467410E+02  0.48323393967E+03  0.48772801519E+03  0.00000000000E+00 0. -1.
         22    1    3    3    0    0  0.48088069979E+02 -0.68777060378E+01 -0.46263133038E+02  0.67082358286E+02  0.00000000000E+00 0. -1.
         22    1    3    3    0    0 -0.36805926546E+02 -0.13642035060E+03 -0.17297283559E+03  0.22334903210E+03  0.00000000000E+00 0. -1.
</event>
<event>
 7    1  0.6294601E-006  0.5207295E+02  0.7818608E-02  0.1461738E+00
          2   -1    0    0  502    0  0.00000000000E+00  0.00000000000E+00  0.89882349316E+03  0.89882349316E+03  0.00000000000E+00 0. -1.
          1   -1    0    0  501    0 -0.00000000000E+00 -0.00000000000E+00 -0.76126412397E+02  0.76126412397E+02  0.00000000000E+00 0. -1.
         25    2    1    2    0    0 -0.19633929459E+02 -0.48412629970E+02  0.86158751515E+02  0.16055506830E+03  0.12500130226E+03 0.  0.
          2    1    1    2  501    0  0.42555233456E+02  0.12038132786E+01 -0.26111180206E+02  0.49941874140E+02  0.00000000000E+00 0. -1.
          1    1    1    2  502    0 -0.22921303997E+02  0.47208816691E+02  0.76264950945E+03  0.76445296311E+03  0.00000000000E+00 0. -1.
         22    1    3    3    0    0 -0.62797046043E+02 -0.62825767414E+02  0.46873052295E+02  0.10043718970E+03  0.00000000000E+00 0. -1.
         22    1    3    3    0    0  0.43163116584E+02  0.14413137444E+02  0.39285699220E+02  0.60117878601E+02  0.00000000000E+00 0. -1.
</event>
<event>
 7    1  0.7633578E-006  0.7386488E+02  0.7818608E-02  0.1405981E+00
          2   -1    0    0  502    0  0.00000000000E+00  0.00000000000E+00  0.18472461542E+04  0.18472461542E+04  0.00000000000E+00 0. -1.
          1   -1    0    0  501    0 -0.00000000000E+00 -0.00000000000E+00 -0.74484164925E+03  0.74484164925E+03  0.00000000000E+00 0. -1.
         25    2    1    2    0    0  0.28927456685E+02  0.58591077103E+00 -0.38209735343E+02  0.13385944429E+03  0.12498490272E+03 0.  0.
          2    1    1    2  501    0  0.44561384116E+02  0.10138632329E+02 -0.65724695825E+03  0.65883387356E+03  0.00000000000E+00 0. -1.
          1    1    1    2  502    0 -0.73488840801E+02 -0.10724543100E+02  0.17978611986E+04  0.17993944856E+04  0.00000000000E+00 0. -1.
         22    1    3    3    0    0 -0.98306037135E+01 -0.48480751853E+02  0.15068387115E+02  0.51711510902E+02  0.00000000000E+00 0. -1.
         22    1    3    3    0    0  0.38758060399E+02  0.49066662624E+02 -0.53278122459E+02  0.82147933386E+02  0.00000000000E+00 0. -1.
</event>
<event>
 7    1  0.6294601E-006  0.1284337E+03  0.7818608E-02  0.1271325E+00
          2   -1    0    0  502    0  0.00000000000E+00  0.00000000000E+00  0.20125511766E+03  0.20125511766E+03  0.00000000000E+00 0. -1.
          1   -1    0    0  501    0 -0.00000000000E+00 -0.00000000000E+00 -0.15082174091E+04  0.15082174091E+04  0.00000000000E+00 0. -1.
         25    2    1    2    0    0  0.54655811006E+02  0.17045599745E+03 -0.43832721734E+02  0.22269696668E+03  0.12502050524E+03 0.  0.
          2    1    1    2  501    0  0.17664694047E+02 -0.12608314418E+03 -0.13554332715E+04  0.13613994103E+04  0.00000000000E+00 0. -1.
          1    1    1    2  502    0 -0.72320505053E+02 -0.44372853270E+02  0.92303701863E+02  0.12537614979E+03  0.00000000000E+00 0. -1.
         22    1    3    3    0    0  0.69746182092E+02  0.16124646210E+03 -0.27078648447E+00  0.17568444661E+03  0.00000000000E+00 0.  1.
         22    1    3    3    0    0 -0.15090371085E+02  0.92095353543E+01 -0.43561935250E+02  0.47012520073E+02  0.00000000000E+00 0.  1.
</event>
<event>
 7    1  0.6294601E-006  0.1117346E+03  0.7818608E-02  0.1322493E+00
          2   -1    0    0  502    0  0.00000000000E+00  0.00000000000E+00  0.17811112007E+03  0.17811112007E+03  0.00000000000E+00 0. -1.
          1   -1    0    0  501    0 -0.00000000000E+00 -0.00000000000E+00 -0.59471698526E+03  0.59471698526E+03  0.00000000000E+00 0. -1.
         25    2    1    2    0    0  0.94698491639E+02  0.84136384636E+02 -0.26129448416E+02  0.17987500293E+03  0.12500213225E+03 0.  0.
          2    1    1    2  501    0  0.13221884976E+02 -0.59245727962E+02 -0.45881468065E+03  0.46281290572E+03  0.00000000000E+00 0. -1.
          1    1    1    2  502    0 -0.10792037661E+03 -0.24890656675E+02  0.68338263881E+02  0.13014019667E+03  0.00000000000E+00 0. -1.
         22    1    3    3    0    0  0.56980770647E+02  0.11433968023E+03 -0.71188518080E+01  0.12794939918E+03  0.00000000000E+00 0.  1.
         22    1    3    3    0    0  0.37717720993E+02 -0.30203295597E+02 -0.19010596608E+02  0.51925603753E+02  0.00000000000E+00 0.  1.
</event>
<event>
 7    1  0.6294601E-006  0.3451562E+02  0.7818608E-02  0.1591128E+00
          2   -1    0    0  502    0  0.00000000000E+00  0.00000000000E+00  0.15572346288E+03  0.15572346288E+03  0.00000000000E+00 0. -1.
          1   -1    0    0  501    0 -0.00000000000E+00 -0.00000000000E+00 -0.35997977242E+03  0.35997977242E+03  0.00000000000E+00 0. -1.
         25    2    1    2    0    0 -0.48032256969E+02 -0.10190593026E+02 -0.14800445891E+03  0.19985360702E+03  0.12500079394E+03 0.  0.
          2    1    1    2  501    0  0.23403627378E+02 -0.13856972338E+02 -0.18274435663E+03  0.18475726058E+03  0.00000000000E+00 0. -1.
          1    1    1    2  502    0  0.24628629592E+02  0.24047565364E+02  0.12649250600E+03  0.13109236770E+03  0.00000000000E+00 0. -1.
         22    1    3    3    0    0 -0.88932422734E+02 -0.20639815837E+02 -0.11095511872E+03  0.14368721649E+03  0.00000000000E+00 0.  1.
         22    1    3    3    0    0  0.40900165765E+02  0.10449222810E+02 -0.37049340182E+02  0.56166390528E+02  0.00000000000E+00 0.  1.
</event>
<event>
 7    1  0.6294601E-006  0.4177706E+03  0.7818608E-02  0.1129747E+00
          2   -1    0    0  502    0  0.00000000000E+00  0.00000000000E+00  0.43304164904E+03  0.43304164904E+03  0.00000000000E+00 0. -1.
          1   -1    0    0  501    0 -0.00000000000E+00 -0.00000000000E+00 -0.14176839278E+04  0.14176839278E+04  0.00000000000E+00 0. -1.
         25    2    1    2    0    0  0.22662888716E+03  0.37728098751E+03 -0.22553417023E+03  0.51009046352E+03  0.12500009198E+03 0.  0.
          2    1    1    2  501    0  0.75931902420E+02 -0.95323362876E+02 -0.89657032759E+03  0.90481520192E+03  0.00000000000E+00 0. -1.
          1    1    1    2  502    0 -0.30256078958E+03 -0.28195762464E+03  0.13746221908E+03  0.43581991138E+03  0.00000000000E+00 0. -1.
         22    1    3    3    0    0  0.13450090398E+03  0.11627090442E+03 -0.60340250702E+02  0.18775079824E+03  0.00000000000E+00 0.  1.
         22    1    3    3    0    0  0.92127983185E+02  0.26101008309E+03 -0.16519391953E+03  0.32233966528E+03  0.00000000000E+00 0.  1.
</event>
<event>
 7    1  0.6294601E-006  0.4613244E+02  0.7818608E-02  0.1542513E+00
          2   -1    0    0  502    0  0.00000000000E+00  0.00000000000E+00  0.30138073486E+03  0.30138073486E+03  0.00000000000E+00 0. -1.
          1   -1    0    0  501    0 -0.00000000000E+00 -0.00000000000E+00 -0.33486129048E+03  0.33486129048E+03  0.00000000000E+00 0. -1.
         25    2    1    2    0    0  0.67393233890E+01  0.63302540456E+02  0.16885251845E+03  0.21952074748E+03  0.12500222190E+03 0.  0.
          2    1    1    2  501    0  0.13121589892E+02 -0.44109798430E+02 -0.30599849436E+03  0.30943970170E+03  0.00000000000E+00 0. -1.
          1    1    1    2  502    0 -0.19860913281E+02 -0.19192742025E+02  0.10366542029E+03  0.10728157617E+03  0.00000000000E+00 0. -1.
         22    1    3    3    0    0  0.37638133335E+02 -0.13354790392E+02  0.11136928453E+02  0.41460953712E+02  0.00000000000E+00 0. -1.
         22    1    3    3    0    0 -0.30898809946E+02  0.76657330847E+02  0.15771558999E+03  0.17805979377E+03  0.00000000000E+00 0. -1.
</event>
<event>
 7    1  0.6294601E-006  0.7755669E+02  0.7818608E-02  0.1394361E+00
          2   -1    0    0  502    0  0.00000000000E+00  0.00000000000E+00  0.42636254048E+03  0.42636254048E+03  0.00000000000E+00 0. -1.
          1   -1    0    0  501    0 -0.00000000000E+00 -0.00000000000E+00 -0.23343327281E+03  0.23343327281E+03  0.00000000000E+00 0. -1.
         25    2    1    2    0    0  0.74148436710E+02  0.20267248719E+02 -0.14399803754E+03  0.20559392159E+03  0.12499869497E+03 0.  0.
          2    1    1    2  501    0 -0.12448457477E+01 -0.47702187060E+02 -0.44291702633E+02  0.65106091983E+02  0.00000000000E+00 0. -1.
          1    1    1    2  502    0 -0.72903590962E+02  0.27434938341E+02  0.38121900785E+03  0.38909579972E+03  0.00000000000E+00 0. -1.
         22    1    3    3    0    0  0.66699345554E+02  0.62463489895E+01 -0.16568536741E+03  0.17871614518E+03  0.00000000000E+00 0. -1.
         22    1    3    3    0    0  0.74490911553E+01  0.14020899729E+02  0.21687329869E+02  0.26877776416E+02  0.00000000000E+00 0. -1.
</event>
<event>
 7    1  0.6294601E-006  0.1293517E+03  0.7818608E-02  0.1342674E+00
          2   -1    0    0  502    0  0.00000000000E+00  0.00000000000E+00  0.28652167615E+03  0.28652167615E+03  0.00000000000E+00 0. -1.
          1   -1    0    0  501    0 -0.00000000000E+00 -0.00000000000E+00 -0.17295966467E+04  0.17295966467E+04  0.00000000000E+00 0. -1.
         25    2    1    2    0    0 -0.92225163838E+01  0.88067150831E+02 -0.43832066528E+02  0.15933664390E+03  0.12500415261E+03 0.  0.
          2    1    1    2  501    0  0.26164461433E+02 -0.12860666334E+03 -0.16232294910E+04  0.16285263993E+04  0.00000000000E+00 0. -1.
          1    1    1    2  502    0 -0.16941945049E+02  0.40539512508E+02  0.22398658692E+03  0.22825527967E+03  0.00000000000E+00 0. -1.
         22    1    3    3    0    0 -0.58443359676E+02  0.15972502601E+02 -0.38699109809E+02  0.71891364082E+02  0.00000000000E+00 0. -1.
         22    1    3    3    0    0  0.49220843292E+02  0.72094648230E+02 -0.51329567192E+01  0.87445279818E+02  0.00000000000E+00 0. -1.
</event>
<event>
 7    1  0.6294601E-006  0.7974913E+02  0.7818608E-02  0.1425798E+00
          2   -1    0    0  502    0  0.00000000000E+00  0.00000000000E+00  0.25475019475E+04  0.25475019475E+04  0.00000000000E+00 0. -1.
          1   -1    0    0  501    0 -0.00000000000E+00 -0.00000000000E+00 -0.98305692127E+03  0.98305692127E+03  0.00000000000E+00 0. -1.
         25    2    1    2    0    0  0.37002338074E+02 -0.29748158788E+02  0.35224353698E+03  0.37676928541E+03  0.12500183644E+03 0.  0.
          2    1    1    2  501    0 -0.73248762438E+02  0.31921551805E+02 -0.96899856808E+03  0.97228729891E+03  0.00000000000E+00 0. -1.
          1    1    1    2  502    0  0.36246424365E+02 -0.21733930171E+01  0.21812000573E+04  0.21815022844E+04  0.00000000000E+00 0. -1.
         22    1    3    3    0    0  0.49053138438E+02 -0.30584935541E+02  0.56678178147E+02  0.80957177265E+02  0.00000000000E+00 0.  1.
         22    1    3    3    0    0 -0.12050800364E+02  0.83677675292E+00  0.29556535883E+03  0.29581210815E+03  0.00000000000E+00 0.  1.
</event>
<event>
 7    1  0.6294601E-006  0.6235542E+02  0.7818608E-02  0.1538413E+00
          2   -1    0    0  502    0  0.00000000000E+00  0.00000000000E+00  0.17578179023E+02  0.17578179023E+02  0.00000000000E+00 0. -1.
          1   -1    0    0  501    0 -0.00000000000E+00 -0.00000000000E+00 -0.12260575767E+04  0.12260575767E+04  0.00000000000E+00 0. -1.
         25    2    1    2    0    0 -0.27521188021E+02  0.41344083036E+02 -0.71185579518E+03  0.72445229028E+03  0.12500279505E+03 0.  0.
          2    1    1    2  501    0  0.47587376122E+02 -0.47488543243E+02 -0.49339087812E+03  0.49795007653E+03  0.00000000000E+00 0. -1.
          1    1    1    2  502    0 -0.20066188101E+02  0.61444602067E+01 -0.32327243324E+01  0.21233388866E+02  0.00000000000E+00 0. -1.
         22    1    3    3    0    0 -0.51166177218E+02 -0.24010516861E+02 -0.44979276636E+03  0.45332991880E+03  0.00000000000E+00 0. -1.
         22    1    3    3    0    0  0.23644989198E+02  0.65354599898E+02 -0.26206302882E+03  0.27112237148E+03  0.00000000000E+00 0. -1.
</event>
<event>
 7    1  0.6294601E-006  0.1179400E+03  0.7818608E-02  0.1339263E+00
          2   -1    0    0  502    0  0.00000000000E+00  0.00000000000E+00  0.31835245176E+04  0.31835245176E+04  0.00000000000E+00 0. -1.
          1   -1    0    0  501    0 -0.00000000000E+00 -0.00000000000E+00 -0.18360812234E+04  0.18360812234E+04  0.00000000000E+00 0. -1.
         25    2    1    2    0    0 -0.58004588540E+02  0.15431336639E+03  0.16896306238E+03  0.26711583761E+03  0.12500082766E+03 0.  0.
          2    1    1    2  501    0  0.52923148609E+02 -0.10494291378E+03 -0.17848642688E+04  0.17887298099E+04  0.00000000000E+00 0. -1.
          1    1    1    2  502    0  0.50814399310E+01 -0.49370452611E+02  0.29633445006E+04  0.29637600935E+04  0.00000000000E+00 0. -1.
         22    1    3    3    0    0  0.28676221027E+02  0.10118735800E+03  0.83000250855E+02  0.13397853825E+03  0.00000000000E+00 0.  1.
         22    1    3    3    0    0 -0.86680809567E+02  0.53126008399E+02  0.85962811524E+02  0.13313729936E+03  0.00000000000E+00 0.  1.
</event>
<event>
 7    1  0.6294601E-006  0.3721226E+02  0.7818608E-02  0.1568298E+00
          2   -1    0    0  502    0  0.00000000000E+00  0.00000000000E+00  0.17865243535E+04  0.17865243535E+04  0.00000000000E+00 0. -1.
          1   -1    0    0  501    0 -0.00000000000E+00 -0.00000000000E+00 -0.65811422742E+03  0.65811422742E+03  0.00000000000E+00 0. -1.
         25    2    1    2    0    0 -0.48414521287E+01 -0.21047922038E+02  0.13179959440E+03  0.18292950039E+03  0.12500245737E+03 0.  0.
          2    1    1    2  501    0  0.33510150747E+02  0.16369742963E+02 -0.63186991783E+03  0.63296958200E+03  0.00000000000E+00 0. -1.
          1    1    1    2  502    0 -0.28668698619E+02  0.46781790747E+01  0.16284804496E+04  0.16287394986E+04  0.00000000000E+00 0. -1.
         22    1    3    3    0    0 -0.47328273305E+02 -0.40875146900E+02  0.11883406477E+03  0.13428431792E+03  0.00000000000E+00 0. -1.
         22    1    3    3    0    0  0.42486821177E+02  0.19827224862E+02  0.12965529627E+02  0.48645182474E+02  0.00000000000E+00 0. -1.
</event>
<event>
 7    1  0.6294601E-006  0.8650039E+02  0.7818608E-02  0.1419068E+00
          2   -1    0    0  502    0  0.00000000000E+00  0.00000000000E+00  0.48861791348E+03  0.48861791348E+03  0.00000000000E+00 0. -1.
          1   -1    0    0  501    0 -0.00000000000E+00 -0.00000000000E+00 -0.53397575123E+03  0.53397575123E+03  0.00000000000E+00 0. -1.
         25    2    1    2    0    0  0.11478773388E+03 -0.16433068445E+02  0.19019765178E+03  0.25543321952E+03  0.12499885320E+03 0.  0.
          2    1    1    2  501    0 -0.85957849796E+02 -0.38489793590E+01 -0.49647231015E+03  0.50387331873E+03  0.00000000000E+00 0. -1.
          1    1    1    2  502    0 -0.28829884086E+02  0.20282047804E+02  0.26091682062E+03  0.26328712646E+03  0.00000000000E+00 0. -1.
         22    1    3    3    0    0  0.73709997326E+02  0.48383485665E+02  0.13364081928E+03  0.16010619591E+03  0.00000000000E+00 0.  1.
         22    1    3    3    0    0  0.41077736557E+02 -0.64816554110E+02  0.56556832498E+02  0.95327023606E+02  0.00000000000E+00 0.  1.
</event>
<event>
 7    1  0.6294601E-006  0.1439625E+03  0.7818608E-02  0.1389494E+00
          2   -1    0    0  502    0  0.00000000000E+00  0.00000000000E+00  0.12711740492E+03  0.12711740492E+03  0.00000000000E+00 0. -1.
          1   -1    0    0  501    0 -0.00000000000E+00 -0.00000000000E+00 -0.77524444083E+03  0.77524444083E+03  0.00000000000E+00 0. -1.
         25    2    1    2    0    0  0.38721618242E+02 -0.12729347151E+03 -0.98493732550E+02  0.20743188695E+03  0.12499592299E+03 0.  0.
          2    1    1    2  501    0 -0.65253029980E+02  0.13054326053E+03 -0.61089746851E+03  0.62808854298E+03  0.00000000000E+00 0. -1.
          1    1    1    2  502    0  0.26531411737E+02 -0.32497890248E+01  0.61264165152E+02  0.66841415823E+02  0.00000000000E+00 0. -1.
         22    1    3    3    0    0  0.62073482600E+01 -0.10425383819E+03 -0.35887912973E+01  0.10450011183E+03  0.00000000000E+00 0. -1.
         22    1    3    3    0    0  0.32514269982E+02 -0.23039633324E+02 -0.94904941252E+02  0.10293177512E+03  0.00000000000E+00 0. -1.
</event>
<event>
 7    1  0.6294601E-006  0.6241089E+02  0.7818608E-02  0.1424291E+00
          2   -1    0    0  502    0  0.00000000000E+00  0.00000000000E+00  0.43546666833E+03  0.43546666833E+03  0.00000000000E+00 0. -1.
          1   -1    0    0  501    0 -0.00000000000E+00 -0.00000000000E+00 -0.63833028008E+03  0.63833028008E+03  0.00000000000E+00 0. -1.
         25    2    1    2    0    0  0.47576375351E+02  0.35573692298E+02  0.26668934669E+03  0.30046022945E+03  0.12499657103E+03 0.  0.
          2    1    1    2  501    0 -0.87274082409E+01 -0.61912974334E+02 -0.61619871355E+03  0.61936276819E+03  0.00000000000E+00 0. -1.
          1    1    1    2  502    0 -0.38848967111E+02  0.26339282036E+02  0.14664575511E+03  0.15397395077E+03  0.00000000000E+00 0. -1.
         22    1    3    3    0    0  0.77600410436E+02  0.46704646229E+02  0.24648335943E+03  0.26259701856E+03  0.00000000000E+00 0.  1.
         22    1    3    3    0    0 -0.30024035084E+02 -0.11130953931E+02  0.20205987256E+02  0.37863210893E+02  0.00000000000E+00 0.  1.
</event>
<event>
 7    1  0.6294601E-006  0.5633949E+02  0.7818608E-02  0.1504717E+00
          2   -1    0    0  502    0  0.00000000000E+00  0.00000000000E+00  0.10917925487E+03  0.10917925487E+03  0.00000000000E+00 0. -1.
          1   -1    0    0  501    0 -0.00000000000E+00 -0.00000000000E+00 -0.49808353345E+03  0.49808353345E+03  0.00000000000E+00 0. -1.
         25    2    1    2    0    0  0.43907122792E+02 -0.56419905936E+01 -0.23708172464E+03  0.27164803029E+03  0.12500096284E+03 0.  0.
          2    1    1    2  501    0 -0.56169005040E+02 -0.20729998135E+02 -0.23760707025E+03  0.24503430328E+03  0.00000000000E+00 0. -1.
          1    1    1    2  502    0  0.12261882248E+02  0.26371988729E+02  0.85784516311E+02  0.90580454760E+02  0.00000000000E+00 0. -1.
         22    1    3    3    0    0  0.44917487881E+02  0.40017275079E+02 -0.47520109093E+02  0.76662401413E+02  0.00000000000E+00 0.  1.
         22    1    3    3    0    0 -0.10103650891E+01 -0.45659265673E+02 -0.18956161554E+03  0.19498562887E+03  0.00000000000E+00 0.  1.
</event>
<event>
 7    1  0.6294601E-006  0.1981805E+03  0.7818608E-02  0.1269860E+00
          2   -1    0    0  502    0  0.00000000000E+00  0.00000000000E+00  0.14161880485E+03  0.14161880485E+03  0.00000000000E+00 0. -1.
          1   -1    0    0  501    0 -0.00000000000E+00 -0.00000000000E+00 -0.89266968071E+03  0.89266968071E+03  0.00000000000E+00 0. -1.
         25    2    1    2    0    0  0.30104793322E+02 -0.22256284059E+03 -0.12362563378E+03  0.28521665382E+03  0.12499890278E+03 0.  0.
          2    1    1    2  501    0  0.25325603599E+02  0.49689293100E+02 -0.54814177720E+03  0.55097170523E+03  0.00000000000E+00 0. -1.
          1    1    1    2  502    0 -0.55430396921E+02  0.17287354749E+03 -0.79283464867E+02  0.19810012651E+03  0.00000000000E+00 0. -1.
         22    1    3    3    0    0  0.69349505462E+02 -0.18181294885E+03 -0.68688875314E+02  0.20635761161E+03  0.00000000000E+00 0. -1.
         22    1    3    3    0    0 -0.39244712140E+02 -0.40749891741E+02 -0.54936758469E+02  0.78859042214E+02  0.00000000000E+00 0. -1.
</event>
<event>
 7    1  0.6294601E-006  0.8597280E+02  0.7818608E-02  0.1457675E+00
          2   -1    0    0  502    0  0.00000000000E+00  0.00000000000E+00  0.26782612862E+04  0.26782612862E+04  0.00000000000E+00 0. -1.
          1   -1    0    0  501    0 -0.00000000000E+00 -0.00000000000E+00 -0.19400015692E+03  0.19400015692E+03  0.00000000000E+00 0. -1.
         25    2    1    2    0    0  0.59553936981E+02 -0.67166046055E+02  0.26323292378E+03  0.30491864120E+03  0.12500342569E+03 0.  0.
          2    1    1    2  501    0  0.13963973123E+02  0.22590935694E+02 -0.17136219933E+03  0.17340803407E+03  0.00000000000E+00 0. -1.
          1    1    1    2  502    0 -0.73517910104E+02  0.44575110361E+02  0.23923904048E+04  0.23939347679E+04  0.00000000000E+00 0. -1.
         22    1    3    3    0    0  0.36982208556E+01 -0.34401986777E+02  0.22913730066E+03  0.23173492634E+03  0.00000000000E+00 0. -1.
         22    1    3    3    0    0  0.55855716125E+02 -0.32764059279E+02  0.34095623120E+02  0.73183714857E+02  0.00000000000E+00 0. -1.
</event>
<event>
 7    1  0.6294601E-006  0.6818033E+02  0.7818608E-02  0.1373732E+00
          2   -1    0    0  502    0  0.00000000000E+00  0.00000000000E+00  0.54087874370E+03  0.54087874370E+03  0.00000000000E+00 0. -1.
          1   -1    0    0  501    0 -0.00000000000E+00 -0.00000000000E+00 -0.41567606709E+02  0.41567606709E+02  0.00000000000E+00 0. -1.
         25    2    1    2    0    0  0.13949371561E+02  0.25232687001E+02  0.17035522961E+03  0.21325530861E+03  0.12500259571E+03 0.  0.
          2    1    1    2  501    0  0.64113434208E+02 -0.24906446862E+01  0.58675829235E+02  0.86945895207E+02  0.00000000000E+00 0. -1.
          1    1    1    2  502    0 -0.78062805769E+02 -0.22742042314E+02  0.27028007814E+03  0.28224514659E+03  0.00000000000E+00 0. -1.
         22    1    3    3    0    0  0.49470923786E+01  0.18010814072E+02 -0.17172733982E+02  0.25372543013E+02  0.00000000000E+00 0. -1.
         22    1    3    3    0    0  0.90022791827E+01  0.72218729288E+01  0.18752796359E+03  0.18788276560E+03  0.00000000000E+00 0. -1.
</event>
<event>
 7    1  0.6294601E-006  0.1780013E+03  0.7818608E-02  0.1274299E+00
          2   -1    0    0  502    0  0.00000000000E+00  0.00000000000E+00  0.82525321500E+03  0.82525321500E+03  0.00000000000E+00 0. -1.
          1   -1    0    0  501    0 -0.00000000000E+00 -0.00000000000E+00 -0.19923949003E+04  0.19923949003E+04  0.00000000000E+00 0. -1.
         25    2    1    2    0    0  0.96589944869E+02  0.20314814484E+03  0.25883730837E+03  0.36499355281E+03  0.12499902076E+03 0.  0.
          2    1    1    2  501    0 -0.18265859655E+02 -0.56619697217E+02 -0.19254012754E+04  0.19263201975E+04  0.00000000000E+00 0. -1.
          1    1    1    2  502    0 -0.78324085214E+02 -0.14652844762E+03  0.49942228176E+03  0.52633436502E+03  0.00000000000E+00 0. -1.
         22    1    3    3    0    0  0.97881986391E+02  0.65058771056E+02  0.14009990199E+03  0.18287019847E+03  0.00000000000E+00 0. -1.
         22    1    3    3    0    0 -0.12920415218E+01  0.13808937379E+03  0.11873740638E+03  0.18212335434E+03  0.00000000000E+00 0. -1.
</event>
<event>
 7    1  0.6294601E-006  0.7243910E+02  0.7818608E-02  0.1356398E+00
          2   -1    0    0  502    0  0.00000000000E+00  0.00000000000E+00  0.20030931664E+03  0.20030931664E+03  0.00000000000E+00 0. -1.
          1   -1    0    0  501    0 -0.00000000000E+00 -0.00000000000E+00 -0.99224472734E+03  0.99224472734E+03  0.00000000000E+00 0. -1.
         25    2    1    2    0    0 -0.58836224792E+02 -0.49926063333E+02  0.31119293203E+01  0.14693493884E+03  0.12500351595E+03 0.  0.
          2    1    1    2  501    0  0.70502057269E+02 -0.18873770044E+02 -0.90903906504E+03  0.91196424330E+03  0.00000000000E+00 0. -1.
          1    1    1    2  502    0 -0.11665832477E+02  0.68799833377E+02  0.11399172503E+03  0.13365486184E+03  0.00000000000E+00 0. -1.
         22    1    3    3    0    0 -0.40252346362E+02 -0.17060740593E+02 -0.59491334497E+02  0.73827766711E+02  0.00000000000E+00 0.  1.
         22    1    3    3    0    0 -0.18583878431E+02 -0.32865322740E+02  0.62603263818E+02  0.73107172131E+02  0.00000000000E+00 0.  1.
</event>
<event>
 7    1  0.6294601E-006  0.4552347E+02  0.7818608E-02  0.1493195E+00
          2   -1    0    0  502    0  0.00000000000E+00  0.00000000000E+00  0.50058896895E+03  0.50058896895E+03  0.00000000000E+00 0. -1.
          1   -1    0    0  501    0 -0.00000000000E+00 -0.00000000000E+00 -0.28436201454E+04  0.28436201454E+04  0.00000000000E+00 0. -1.
         25    2    1    2    0    0 -0.56268356705E+01  0.26348782019E+02 -0.11846228757E+04  0.11915039764E+04  0.12499779344E+03 0.  0.
          2    1    1    2  501    0 -0.37324563976E+02 -0.11180408765E+02 -0.16542834444E+04  0.16547422274E+04  0.00000000000E+00 0. -1.
          1    1    1    2  502    0  0.42951399646E+02 -0.15168373254E+02  0.49587514366E+03  0.49796291065E+03  0.00000000000E+00 0. -1.
         22    1    3    3    0    0  0.22428948829E+02  0.34601956570E+02 -0.12803357450E+03  0.13451003436E+03  0.00000000000E+00 0.  1.
         22    1    3    3    0    0 -0.28055784500E+02 -0.82531745505E+01 -0.10565893012E+04  0.10569939420E+04  0.00000000000E+00 0.  1.
</event>
<event>
 7    1  0.6294601E-006  0.1159242E+03  0.7818608E-02  0.1336668E+00
          2   -1    0    0  502    0  0.00000000000E+00  0.00000000000E+00  0.83941178843E+03  0.83941178843E+03  0.00000000000E+00 0. -1.
          1   -1    0    0  501    0 -0.00000000000E+00 -0.00000000000E+00 -0.51062332397E+03  0.51062332397E+03  0.00000000000E+00 0. -1.
         25    2    1    2    0    0 -0.86024385968E+02 -0.66082802097E+02 -0.22303643670E+03  0.27773636099E+03  0.12500040961E+03 0.  0.
          2    1    1    2  501    0 -0.27975866578E+02  0.43412602117E+02 -0.25346024652E+03  0.25866851315E+03  0.00000000000E+00 0. -1.
          1    1    1    2  502    0  0.11400025255E+03  0.22670199979E+02  0.80528514767E+03  0.81363023826E+03  0.00000000000E+00 0. -1.
         22    1    3    3    0    0 -0.40072806118E+02 -0.99150175800E+02 -0.16528474466E+03  0.19686450662E+03  0.00000000000E+00 0.  1.
         22    1    3    3    0    0 -0.45951579851E+02  0.33067373703E+02 -0.57751692044E+02  0.80871854365E+02  0.00000000000E+00 0.  1.
</event>
<event>
 7    1  0.6294601E-006  0.1381366E+03  0.7818608E-02  0.1394628E+00
          2   -1    0    0  502    0  0.00000000000E+00  0.00000000000E+00  0.11978880972E+04  0.11978880972E+04  0.00000000000E+00 0. -1.
          1   -1    0    0  501    0 -0.00000000000E+00 -0.00000000000E+00 -0.28856004132E+03  0.28856004132E+03  0.00000000000E+00 0. -1.
         25    2    1    2    0    0  0.36963941051E+02 -0.11140630434E+03 -0.15228934072E+03  0.22933280125E+03  0.12499517131E+03 0.  0.
          2    1    1    2  501    0  0.23056116513E+02 -0.13533216393E+02 -0.91690272478E+02  0.95508316505E+02  0.00000000000E+00 0. -1.
          1    1    1    2  502    0 -0.60020057564E+02  0.12493952073E+03  0.11533076691E+04  0.11616070208E+04  0.00000000000E+00 0. -1.
         22    1    3    3    0    0  0.67928033730E+02 -0.34918912232E+02 -0.30545607006E+02  0.82259238419E+02  0.00000000000E+00 0.  1.
         22    1    3    3    0    0 -0.30964092679E+02 -0.76487392108E+02 -0.12174373371E+03  0.14707356283E+03  0.00000000000E+00 0.  1.
</event>
<event>
 7    1  0.6294601E-006  0.7821830E+02  0.7818608E-02  0.1477844E+00
          2   -1    0    0  502    0  0.00000000000E+00  0.00000000000E+00  0.72786758678E+03  0.72786758678E+03  0.00000000000E+00 0. -1.
          1   -1    0    0  501    0 -0.00000000000E+00 -0.00000000000E+00 -0.13232647007E+03  0.13232647007E+03  0.00000000000E+00 0. -1.
         25    2    1    2    0    0 -0.54495950520E+02 -0.13308054101E+02 -0.45801230245E+02  0.14446268020E+03  0.12499920140E+03 0.  0.
          2    1    1    2  501    0 -0.17843528512E+02 -0.17869717011E+02 -0.30323705184E+02  0.39461948658E+02  0.00000000000E+00 0. -1.
          1    1    1    2  502    0  0.72339479032E+02  0.31177771112E+02  0.67166605214E+03  0.67626942799E+03  0.00000000000E+00 0. -1.
         22    1    3    3    0    0 -0.42522893083E+02 -0.53767583243E+02 -0.68195438916E+02  0.96694194929E+02  0.00000000000E+00 0.  1.
         22    1    3    3    0    0 -0.11973057437E+02  0.40459529142E+02  0.22394208671E+02  0.47768485268E+02  0.00000000000E+00 0.  1.
</event>
<event>
 7    1  0.6294601E-006  0.1808044E+03  0.7818608E-02  0.1314314E+00
          2   -1    0    0  502    0  0.00000000000E+00  0.00000000000E+00  0.41178157882E+04  0.41178157882E+04  0.00000000000E+00 0. -1.
          1   -1    0    0  501    0 -0.00000000000E+00 -0.00000000000E+00 -0.62739553022E+03  0.62739553022E+03  0.00000000000E+00 0. -1.
         25    2    1    2    0    0  0.13094397068E+03 -0.62835921225E+02  0.13195592503E+02  0.19208195565E+03  0.12500671010E+03 0.  0.
          2    1    1    2  501    0  0.40300975838E+02  0.22689335242E+01 -0.53513759207E+03  0.53665776726E+03  0.00000000000E+00 0. -1.
          1    1    1    2  502    0 -0.17124494651E+03  0.60566987700E+02  0.40123622575E+04  0.40164715955E+04  0.00000000000E+00 0. -1.
         22    1    3    3    0    0  0.11992350903E+03 -0.97881938092E+02  0.83177028603E+01  0.15502163076E+03  0.00000000000E+00 0. -1.
         22    1    3    3    0    0  0.11020461643E+02  0.35046016868E+02  0.48778896424E+01  0.37060324884E+02  0.00000000000E+00 0. -1.
</event>
<event>
 7    1  0.6294601E-006  0.1326054E+03  0.7818608E-02  0.1225594E+00
          2   -1    0    0  502    0  0.00000000000E+00  0.00000000000E+00  0.29894337996E+04  0.29894337996E+04  0.00000000000E+00 0. -1.
          1   -1    0    0  501    0 -0.00000000000E+00 -0.00000000000E+00 -0.11890437871E+03  0.11890437871E+03  0.00000000000E+00 0. -1.
         25    2    1    2    0    0 -0.66675634878E+02 -0.92558246940E+02  0.49668052084E+03  0.52471879217E+03  0.12500240679E+03 0.  0.
          2    1    1    2  501    0 -0.62775434787E+02  0.12130919110E+03 -0.57830168703E+02  0.14832735240E+03  0.00000000000E+00 0. -1.
          1    1    1    2  502    0  0.12945106967E+03 -0.28750944160E+02  0.24316790687E+04  0.24352920337E+04  0.00000000000E+00 0. -1.
         22    1    3    3    0    0 -0.91207297108E+02 -0.22023035325E+02  0.25229229833E+03  0.26917501543E+03  0.00000000000E+00 0. -1.
         22    1    3    3    0    0  0.24531662230E+02 -0.70535211614E+02  0.24438822251E+03  0.25554377674E+03  0.00000000000E+00 0. -1.
</event>
<event>
 7    1  0.6294601E-006  0.4851024E+02  0.7818608E-02  0.1473801E+00
          2   -1    0    0  502    0  0.00000000000E+00  0.00000000000E+00  0.15929103902E+04  0.15929103902E+04  0.00000000000E+00 0. -1.
          1   -1    0    0  501    0 -0.00000000000E+00 -0.00000000000E+00 -0.22566837334E+02  0.22566837334E+02  0.00000000000E+00 0. -1.
         25    2    1    2    0    0 -0.46094529789E+02 -0.15967010403E+02  0.24731917262E+03  0.28137480357E+03  0.12500142335E+03 0.  0.
          2    1    1    2  501    0  0.47793956708E+02 -0.25903207117E+02  0.13776894853E+03  0.14810645366E+03  0.00000000000E+00 0. -1.
          1    1    1    2  502    0 -0.16994269192E+01  0.41870217520E+02  0.11852554317E+04  0.11859959703E+04  0.00000000000E+00 0. -1.
         22    1    3    3    0    0  0.43002421624E+02 -0.10816523924E+02  0.69988378783E+02  0.82852752640E+02  0.00000000000E+00 0.  1.
         22    1    3    3    0    0 -0.89096951413E+02 -0.51504864789E+01  0.17733079384E+03  0.19852205093E+03  0.00000000000E+00 0.  1.
</event>
<event>
 7    1  0.6294601E-006  0.4867605E+02  0.7818608E-02  0.1474514E+00
          2   -1    0    0  502    0  0.00000000000E+00  0.00000000000E+00  0.48321892766E+03  0.48321892766E+03  0.00000000000E+00 0. -1.
          1   -1    0    0  501    0 -0.00000000000E+00 -0.00000000000E+00 -0.82404925607E+03  0.82404925607E+03  0.00000000000E+00 0. -1.
         25    2    1    2    0    0  0.48410373726E+02 -0.45270758494E+01  0.38372466502E+03  0.40648917184E+03  0.12499907831E+03 0.  0.
          2    1    1    2  501    0 -0.13560175613E+02 -0.39275712109E+02 -0.80318558968E+03  0.80425962934E+03  0.00000000000E+00 0. -1.
          1    1    1    2  502    0 -0.34850198113E+02  0.43802787958E+02  0.78630596246E+02  0.96519382548E+02  0.00000000000E+00 0. -1.
         22    1    3    3    0    0 -0.13922763550E+01  0.41539411333E+02  0.45906330393E+02  0.61926184264E+02  0.00000000000E+00 0.  1.
         22    1    3    3    0    0  0.49802650081E+02 -0.46066487182E+02  0.33781833462E+03  0.34456298757E+03  0.00000000000E+00 0.  1.
</event>
<event>
 7    1  0.6294601E-006  0.6771247E+02  0.7818608E-02  0.1377840E+00
          2   -1    0    0  502    0  0.00000000000E+00  0.00000000000E+00  0.69621646392E+03  0.69621646392E+03  0.00000000000E+00 0. -1.
          1   -1    0    0  501    0 -0.00000000000E+00 -0.00000000000E+00 -0.42068147822E+02  0.42068147822E+02  0.00000000000E+00 0. -1.
         25    2    1    2    0    0  0.11093636890E+02  0.20734967931E+02  0.16684646011E+03  0.20979144548E+03  0.12498680599E+03 0.  0.
          2    1    1    2  501    0 -0.75994721916E+02 -0.40043703046E+02  0.86116548248E+02  0.12163369515E+03  0.00000000000E+00 0. -1.
          1    1    1    2  502    0  0.64901085026E+02  0.19308735115E+02  0.40118530774E+03  0.40685947111E+03  0.00000000000E+00 0. -1.
         22    1    3    3    0    0 -0.42381320717E+02  0.21379420933E+02  0.16561213046E+02  0.50274543884E+02  0.00000000000E+00 0.  1.
         22    1    3    3    0    0  0.53474957607E+02 -0.64445300249E+00  0.15028524707E+03  0.15951690160E+03  0.00000000000E+00 0.  1.
</event>
<event>
 7    1  0.6294601E-006  0.6059154E+02  0.7818608E-02  0.1454167E+00
          2   -1    0    0  502    0  0.00000000000E+00  0.00000000000E+00  0.74547106592E+03  0.74547106592E+03  0.00000000000E+00 0. -1.
          1   -1    0    0  501    0 -0.00000000000E+00 -0.00000000000E+00 -0.18390211642E+04  0.18390211642E+04  0.00000000000E+00 0. -1.
         25    2    1    2    0    0  0.63207615594E+02  0.16688521183E+02  0.16375747850E+03  0.21613817034E+03  0.12500195000E+03 0.  0.
          2    1    1    2  501    0 -0.56699437350E+02  0.21421466939E+02 -0.18116507238E+04  0.18126643513E+04  0.00000000000E+00 0. -1.
          1    1    1    2  502    0 -0.65081782442E+01 -0.38109988123E+02  0.55434314697E+03  0.55568970853E+03  0.00000000000E+00 0. -1.
         22    1    3    3    0    0  0.29739641946E+02  0.17130555867E+02  0.17688586254E+03  0.18018465699E+03  0.00000000000E+00 0. -1.
         22    1    3    3    0    0  0.33467973648E+02 -0.44203468415E+00 -0.13128384037E+02  0.35953513350E+02  0.00000000000E+00 0. -1.
</event>
<event>
 7    1  0.6294601E-006  0.6392006E+02  0.7818608E-02  0.1444118E+00
          2   -1    0    0  502    0  0.00000000000E+00  0.00000000000E+00  0.10496935790E+04  0.10496935790E+04  0.00000000000E+00 0. -1.
          1   -1    0    0  501    0 -0.00000000000E+00 -0.00000000000E+00 -0.33066016039E+03  0.33066016039E+03  0.00000000000E+00 0. -1.
         25    2    1    2    0    0 -0.42712209941E+02 -0.25102891845E+02 -0.75476144453E+02  0.15418931831E+03  0.12499283756E+03 0.  0.
          2    1    1    2  501    0 -0.20876698820E+02  0.33494816926E+02 -0.21299468148E+03  0.21662057532E+03  0.00000000000E+00 0. -1.
          1    1    1    2  502    0  0.63588908761E+02 -0.83919250812E+01  0.10075042445E+04  0.10095438457E+04  0.00000000000E+00 0. -1.
         22    1    3    3    0    0 -0.78400837912E+02 -0.14649463565E+02 -0.84214164264E+02  0.11598846335E+03  0.00000000000E+00 0. -1.
         22    1    3    3    0    0  0.35688627970E+02 -0.10453428280E+02  0.87380198108E+01  0.38200854957E+02  0.00000000000E+00 0. -1.
</event>
<event>
 7    1  0.6294601E-006  0.5293199E+03  0.7818608E-02  0.1219114E+00
          2   -1    0    0  502    0  0.00000000000E+00  0.00000000000E+00  0.17424750832E+04  0.17424750832E+04  0.00000000000E+00 0. -1.
          1   -1    0    0  501    0 -0.00000000000E+00 -0.00000000000E+00 -0.31886180799E+04  0.31886180799E+04  0.00000000000E+00 0. -1.
         25    2    1    2    0    0  0.30300317065E+03  0.47146116400E+03 -0.11534299070E+04  0.12884530548E+04  0.12499669356E+03 0.  0.
          2    1    1    2  501    0 -0.28387775436E+02 -0.20186131904E+02 -0.19258631212E+04  0.19261781090E+04  0.00000000000E+00 0. -1.
          1    1    1    2  502    0 -0.27461539521E+03 -0.45127503210E+03  0.16331500315E+04  0.17164619994E+04  0.00000000000E+00 0. -1.
         22    1    3    3    0    0  0.21539562578E+03  0.35481733151E+03 -0.71933528901E+03  0.83050218082E+03  0.00000000000E+00 0.  1.
         22    1    3    3    0    0  0.87607544869E+02  0.11664383249E+03 -0.43409461801E+03  0.45795087396E+03  0.00000000000E+00 0.  1.
</event>
<event>
 7    1  0.6294601E-006  0.1065751E+03  0.7818608E-02  0.1350128E+00
          2   -1    0    0  502    0  0.00000000000E+00  0.00000000000E+00  0.85616548375E+03  0.85616548375E+03  0.00000000000E+00 0. -1.
          1   -1    0    0  501    0 -0.00000000000E+00 -0.00000000000E+00 -0.29729559985E+03  0.29729559985E+03  0.00000000000E+00 0. -1.
         25    2    1    2    0    0 -0.78801801147E+02  0.11730522303E+03 -0.17701140718E+02  0.18949655310E+03  0.12500149616E+03 0.  0.
          2    1    1    2  501    0  0.47189658994E+02 -0.16598766175E+02 -0.18677376748E+03  0.19335672518E+03  0.00000000000E+00 0. -1.
          1    1    1    2  502    0  0.31612142153E+02 -0.10070645685E+03  0.76334479210E+03  0.77060780531E+03  0.00000000000E+00 0. -1.
         22    1    3    3    0    0 -0.36099754309E+02 -0.19867542275E+02 -0.20020978563E+02  0.45812128087E+02  0.00000000000E+00 0. -1.
         22    1    3    3    0    0 -0.42702046837E+02  0.13717276530E+03  0.23198378452E+01  0.14368442502E+03  0.00000000000E+00 0. -1.
</event>
<event>
 7    1  0.6294601E-006  0.1275189E+03  0.7818608E-02  0.1363119E+00
          2   -1    0    0  502    0  0.00000000000E+00  0.00000000000E+00  0.35399225444E+03  0.35399225444E+03  0.00000000000E+00 0. -1.
          1   -1    0    0  501    0 -0.00000000000E+00 -0.00000000000E+00 -0.45142934528E+03  0.45142934528E+03  0.00000000000E+00 0. -1.
         25    2    1    2    0    0  0.13095177078E+02 -0.19631313339E+02 -0.33703197751E+03  0.36023920485E+03  0.12499943487E+03 0.  0.
          2    1    1    2  501    0  0.68914833137E+02  0.11728088079E+03 -0.36688538857E+02  0.14089041170E+03  0.00000000000E+00 0. -1.
          1    1    1    2  502    0 -0.82010010216E+02 -0.97649567450E+02  0.27628342553E+03  0.30429198317E+03  0.00000000000E+00 0. -1.
         22    1    3    3    0    0  0.16195232034E+02 -0.44992177282E+01  0.52495947052E+01  0.17609280092E+02  0.00000000000E+00 0. -1.
         22    1    3    3    0    0 -0.31000549559E+01 -0.15132095610E+02 -0.34228157222E+03  0.34262992475E+03  0.00000000000E+00 0. -1.
</event>
<event>
 7    1  0.6294601E-006  0.5062697E+02  0.7818608E-02  0.1489957E+00
          2   -1    0    0  502    0  0.00000000000E+00  0.00000000000E+00  0.30827082545E+02  0.30827082545E+02  0.00000000000E+00 0. -1.
          1   -1    0    0  501    0 -0.00000000000E+00 -0.00000000000E+00 -0.26200928900E+04  0.26200928900E+04  0.00000000000E+00 0. -1.
         25    2    1    2    0    0 -0.21514667144E+02  0.21603603381E+02 -0.61938742693E+03  0.63260453956E+03  0.12497248598E+03 0.  0.
          2    1    1    2  501    0  0.25455692355E+01 -0.52003805733E+02 -0.19803104858E+04  0.19809948248E+04  0.00000000000E+00 0. -1.
          1    1    1    2  502    0  0.18969097908E+02  0.30400202352E+02  0.10432105232E+02  0.37320608222E+02  0.00000000000E+00 0. -1.
         22    1    3    3    0    0 -0.20615146944E+02 -0.15208280848E+02 -0.21110023935E+02  0.33195017704E+02  0.00000000000E+00 0.  1.
         22    1    3    3    0    0 -0.89952019980E+00  0.36811884230E+02 -0.59827740299E+03  0.59940952185E+03  0.00000000000E+00 0.  1.
</event>
<event>
 7    1  0.6294601E-006  0.6482855E+02  0.7818608E-02  0.1452542E+00
          2   -1    0    0  502    0  0.00000000000E+00  0.00000000000E+00  0.13344680836E+04  0.13344680836E+04  0.00000000000E+00 0. -1.
          1   -1    0    0  501    0 -0.00000000000E+00 -0.00000000000E+00 -0.16141690402E+04  0.16141690402E+04  0.00000000000E+00 0. -1.
         25    2    1    2    0    0  0.42003386888E+02  0.52790114584E+02  0.39278959057E+03  0.41768460395E+03  0.12500274081E+03 0.  0.
          2    1    1    2  501    0 -0.73355777868E+01 -0.64424595107E+02 -0.16007051450E+04  0.16020178839E+04  0.00000000000E+00 0. -1.
          1    1    1    2  502    0 -0.34667809101E+02  0.11634480523E+02  0.92821459789E+03  0.92893463595E+03  0.00000000000E+00 0. -1.
         22    1    3    3    0    0 -0.18285180469E+02 -0.19497613112E+02  0.21369559205E+03  0.21536088504E+03  0.00000000000E+00 0. -1.
         22    1    3    3    0    0  0.60288567357E+02  0.72287727696E+02  0.17909399852E+03  0.20232371892E+03  0.00000000000E+00 0. -1.
</event>
<event>
 7    1  0.6294601E-006  0.7764470E+02  0.7818608E-02  0.1336537E+00
          2   -1    0    0  502    0  0.00000000000E+00  0.00000000000E+00  0.42239070273E+03  0.42239070273E+03  0.00000000000E+00 0. -1.
          1   -1    0    0  501    0 -0.00000000000E+00 -0.00000000000E+00 -0.88577745842E+02  0.88577745842E+02  0.00000000000E+00 0. -1.
         25    2    1    2    0    0 -0.65821227016E+02  0.51437346610E+02  0.16247459240E+03  0.22135216206E+03  0.12498220643E+03 0.  0.
          2    1    1    2  501    0 -0.14310021581E+02 -0.76314628333E+02 -0.20437213510E+02  0.80289344942E+02  0.00000000000E+00 0. -1.
          1    1    1    2  502    0  0.80131248597E+02  0.24877281723E+02  0.19177557800E+03  0.20932694157E+03  0.00000000000E+00 0. -1.
         22    1    3    3    0    0 -0.99593628182E+02  0.49327615824E+02  0.96424458993E+02  0.14713864465E+03  0.00000000000E+00 0.  1.
         22    1    3    3    0    0  0.33772401166E+02  0.21097307857E+01  0.66050133403E+02  0.74213517415E+02  0.00000000000E+00 0.  1.
</event>
<event>
 7    1  0.6294601E-006  0.8838556E+02  0.7818608E-02  0.1392856E+00
          2   -1    0    0  502    0  0.00000000000E+00  0.00000000000E+00  0.11477700897E+04  0.11477700897E+04  0.00000000000E+00 0. -1.
          1   -1    0    0  501    0 -0.00000000000E+00 -0.00000000000E+00 -0.99268092114E+03  0.99268092114E+03  0.00000000000E+00 0. -1.
         25    2    1    2    0    0 -0.11202821975E+03  0.29948537165E+02  0.24317857064E+03  0.29699758250E+03  0.12499803957E+03 0.  0.
          2    1    1    2  501    0  0.39004133422E+02  0.16572209158E+02 -0.96316897895E+03  0.96410084667E+03  0.00000000000E+00 0. -1.
          1    1    1    2  502    0  0.73024086331E+02 -0.46520746323E+02  0.87507957688E+03  0.87935258167E+03  0.00000000000E+00 0. -1.
         22    1    3    3    0    0 -0.58753600731E+02 -0.39123823077E+02  0.16654371879E+03  0.18088523820E+03  0.00000000000E+00 0. -1.
         22    1    3    3    0    0 -0.53274619021E+02  0.69072360243E+02  0.76634851844E+02  0.11611234430E+03  0.00000000000E+00 0. -1.
</event>
<event>
 7    1  0.6294601E-006  0.1041502E+03  0.7818608E-02  0.1276772E+00
          2   -1    0    0  502    0  0.00000000000E+00  0.00000000000E+00  0.78286407466E+02  0.78286407466E+02  0.00000000000E+00 0. -1.
          1   -1    0    0  501    0 -0.00000000000E+00 -0.00000000000E+00 -0.57410980034E+03  0.57410980034E+03  0.00000000000E+00 0. -1.
         25    2    1    2    0    0 -0.25264541159E+02  0.95170833035E+01 -0.34736646276E+02  0.13250919260E+03  0.12499271825E+03 0.  0.
          2    1    1    2  501    0  0.71895782021E+02 -0.97184169627E+02 -0.35293751607E+03  0.37306655780E+03  0.00000000000E+00 0. -1.
          1    1    1    2  502    0 -0.46631240862E+02  0.87667086324E+02 -0.10814923053E+03  0.14682045741E+03  0.00000000000E+00 0. -1.
         22    1    3    3    0    0 -0.29751460162E+02 -0.55037679590E+02 -0.10666819958E+02  0.63467130110E+02  0.00000000000E+00 0. -1.
         22    1    3    3    0    0  0.44869190027E+01  0.64554762894E+02 -0.24069826318E+02  0.69042062494E+02  0.00000000000E+00 0. -1.
</event>
<event>
 7    1  0.6294601E-006  0.9973124E+02  0.7818608E-02  0.1281090E+00
          2   -1    0    0  502    0  0.00000000000E+00  0.00000000000E+00  0.11110038507E+04  0.11110038507E+04  0.00000000000E+00 0. -1.
          1   -1    0    0  501    0 -0.00000000000E+00 -0.00000000000E+00 -0.48284786746E+03  0.48284786746E+03  0.00000000000E+00 0. -1.
         25    2    1    2    0    0  0.90549957557E+02  0.55277053904E+02  0.50183133899E+03  0.52793386873E+03  0.12499851784E+03 0.  0.
          2    1    1    2  501    0  0.10749266050E+02 -0.99150256963E+02 -0.45928797297E+03  0.46999123640E+03  0.00000000000E+00 0. -1.
          1    1    1    2  502    0 -0.10129922361E+03  0.43873203059E+02  0.58561261724E+03  0.59592661304E+03  0.00000000000E+00 0. -1.
         22    1    3    3    0    0  0.12117727940E+03  0.41211436403E+02  0.42891895396E+03  0.44760896394E+03  0.00000000000E+00 0.  1.
         22    1    3    3    0    0 -0.30627321847E+02  0.14065617501E+02  0.72912385033E+02  0.80324904795E+02  0.00000000000E+00 0.  1.
</event>
<event>
 7    1  0.6294601E-006  0.6632444E+02  0.7818608E-02  0.1483790E+00
          2   -1    0    0  502    0  0.00000000000E+00  0.00000000000E+00  0.64155749124E+03  0.64155749124E+03  0.00000000000E+00 0. -1.
          1   -1    0    0  501    0 -0.00000000000E+00 -0.00000000000E+00 -0.62269059614E+02  0.62269059614E+02  0.00000000000E+00 0. -1.
         25    2    1    2    0    0  0.15886980624E+02 -0.82420403113E+02  0.14444190648E+03  0.20864324250E+03  0.12499207692E+03 0.  0.
          2    1    1    2  501    0  0.52409791665E+01  0.63206440404E+02  0.41692657714E+01  0.63560245029E+02  0.00000000000E+00 0. -1.
          1    1    1    2  502    0 -0.21127959791E+02  0.19213962709E+02  0.43067725938E+03  0.43162306332E+03  0.00000000000E+00 0. -1.
         22    1    3    3    0    0 -0.28466211840E+02 -0.34497532775E+00  0.10245648854E+03  0.10633802833E+03  0.00000000000E+00 0. -1.
         22    1    3    3    0    0  0.44353192464E+02 -0.82075427785E+02  0.41985417936E+02  0.10230521417E+03  0.00000000000E+00 0. -1.
</event>
<event>
 7    1  0.6294601E-006  0.7283733E+02  0.7818608E-02  0.1442675E+00
          2   -1    0    0  502    0  0.00000000000E+00  0.00000000000E+00  0.74990546430E+02  0.74990546430E+02  0.00000000000E+00 0. -1.
          1   -1    0    0  501    0 -0.00000000000E+00 -0.00000000000E+00 -0.85589099500E+03  0.85589099500E+03  0.00000000000E+00 0. -1.
         25    2    1    2    0    0  0.90609655357E+02 -0.29085182346E+02 -0.36480424364E+03  0.39719314662E+03  0.12499680824E+03 0.  0.
          2    1    1    2  501    0 -0.69804046268E+02  0.92827226156E+00 -0.46684467421E+03  0.47203539740E+03  0.00000000000E+00 0. -1.
          1    1    1    2  502    0 -0.20805609089E+02  0.28156910084E+02  0.50748469277E+02  0.61652997405E+02  0.00000000000E+00 0. -1.
         22    1    3    3    0    0 -0.53636109320E+01 -0.48383221354E+02 -0.19696209503E+03  0.20288856870E+03  0.00000000000E+00 0.  1.
         22    1    3    3    0    0  0.95973266289E+02  0.19298039008E+02 -0.16784214861E+03  0.19430457792E+03  0.00000000000E+00 0.  1.
</event>
<event>
 7    1  0.6294601E-006  0.5587963E+02  0.7818608E-02  0.1463145E+00
          2   -1    0    0  502    0  0.00000000000E+00  0.00000000000E+00  0.21351509240E+04  0.21351509240E+04  0.00000000000E+00 0. -1.
          1   -1    0    0  501    0 -0.00000000000E+00 -0.00000000000E+00 -0.99479814347E+03  0.99479814347E+03  0.00000000000E+00 0. -1.
         25    2    1    2    0    0  0.30776020954E+02  0.13226460078E+02  0.21989431162E+03  0.25514721599E+03  0.12499796330E+03 0.  0.
          2    1    1    2  501    0 -0.21968690925E+02 -0.51496163259E+02 -0.97616634590E+03  0.97777053192E+03  0.00000000000E+00 0. -1.
          1    1    1    2  502    0 -0.88073300288E+01  0.38269703181E+02  0.18966248149E+04  0.18970313196E+04  0.00000000000E+00 0. -1.
         22    1    3    3    0    0 -0.27077036247E+01  0.64292196912E+02  0.81208073364E+02  0.10361259297E+03  0.00000000000E+00 0. -1.
         22    1    3    3    0    0  0.33483724579E+02 -0.51065736834E+02  0.13868623826E+03  0.15153462301E+03  0.00000000000E+00 0. -1.
</event>
<event>
 7    1  0.6294601E-006  0.6686883E+02  0.7818608E-02  0.1463315E+00
          2   -1    0    0  502    0  0.00000000000E+00  0.00000000000E+00  0.59873453427E+03  0.59873453427E+03  0.00000000000E+00 0. -1.
          1   -1    0    0  501    0 -0.00000000000E+00 -0.00000000000E+00 -0.73206915495E+02  0.73206915495E+02  0.00000000000E+00 0. -1.
         25    2    1    2    0    0  0.41884276081E+02  0.14024829118E+02  0.15703473187E+03  0.20550265038E+03  0.12498177421E+03 0.  0.
          2    1    1    2  501    0 -0.54937157776E+02 -0.44089748335E+02 -0.22597542229E+02  0.73977335229E+02  0.00000000000E+00 0. -1.
          1    1    1    2  502    0  0.13052881695E+02  0.30064919217E+02  0.39109042913E+03  0.39246146415E+03  0.00000000000E+00 0. -1.
         22    1    3    3    0    0  0.35210602546E+02  0.46858628362E+02  0.16140089093E+03  0.17171419620E+03  0.00000000000E+00 0. -1.
         22    1    3    3    0    0  0.66736735355E+01 -0.32833799244E+02 -0.43661590551E+01  0.33788454184E+02  0.00000000000E+00 0. -1.
</event>
<event>
 7    1  0.6294601E-006  0.5221797E+02  0.7818608E-02  0.1533539E+00
          2   -1    0    0  502    0  0.00000000000E+00  0.00000000000E+00  0.16029346023E+04  0.16029346023E+04  0.00000000000E+00 0. -1.
          1   -1    0    0  501    0 -0.00000000000E+00 -0.00000000000E+00 -0.23910750499E+03  0.23910750499E+03  0.00000000000E+00 0. -1.
         25    2    1    2    0    0  0.40871283114E+02  0.26869120115E+02  0.16835856870E+02  0.13528170257E+03  0.12500112629E+03 0.  0.
          2    1    1    2  501    0 -0.52551879623E+02 -0.37838640477E+01 -0.17591429522E+03  0.18363511903E+03  0.00000000000E+00 0. -1.
          1    1    1    2  502    0  0.11680596509E+02 -0.23085256067E+02  0.15229055357E+04  0.15231252857E+04  0.00000000000E+00 0. -1.
         22    1    3    3    0    0  0.43835046009E+02 -0.15511740651E+02 -0.42034902485E+02  0.62682201489E+02  0.00000000000E+00 0. -1.
         22    1    3    3    0    0 -0.29637628946E+01  0.42380860766E+02  0.58870759354E+02  0.72599501078E+02  0.00000000000E+00 0. -1.
</event>
<event>
 7    1  0.6294601E-006  0.6020475E+02  0.7818608E-02  0.1401922E+00
          2   -1    0    0  502    0  0.00000000000E+00  0.00000000000E+00  0.39196113364E+03  0.39196113364E+03  0.00000000000E+00 0. -1.
          1   -1    0    0  501    0 -0.00000000000E+00 -0.00000000000E+00 -0.20495182073E+03  0.20495182073E+03  0.00000000000E+00 0. -1.
         25    2    1    2    0    0 -0.67093447193E+02  0.61260756145E+02 -0.88507410676E+02  0.17808285597E+03  0.12500212377E+03 0.  0.
          2    1    1    2  501    0  0.57855542514E+02 -0.19970153558E+01 -0.56825058859E+02  0.81119289840E+02  0.00000000000E+00 0. -1.
          1    1    1    2  502    0  0.92379046792E+01 -0.59263740790E+02  0.33234178245E+03  0.33771080856E+03  0.00000000000E+00 0. -1.
         22    1    3    3    0    0  0.25072031428E+02  0.52569053846E+02 -0.53580115670E+02  0.79138745109E+02  0.00000000000E+00 0.  1.
         22    1    3    3    0    0 -0.92165478621E+02  0.86917022994E+01 -0.34927295006E+02  0.98944110864E+02  0.00000000000E+00 0.  1.
</event>
<event>
 7    1  0.6294601E-006  0.6659336E+02  0.7818608E-02  0.1502760E+00
          2   -1    0    0  502    0  0.00000000000E+00  0.00000000000E+00  0.73241149313E+03  0.73241149313E+03  0.00000000000E+00 0. -1.
          1   -1    0    0  501    0 -0.00000000000E+00 -0.00000000000E+00 -0.25018842657E+03  0.25018842657E+03  0.00000000000E+00 0. -1.
         25    2    1    2    0    0 -0.44048379856E+02 -0.47189002252E+02 -0.81530698993E+02  0.16259921439E+03  0.12499675172E+03 0.  0.
          2    1    1    2  501    0  0.19936065170E+02 -0.14979263781E+02 -0.12528523809E+03  0.12774277248E+03  0.00000000000E+00 0. -1.
          1    1    1    2  502    0  0.24112314687E+02  0.62168266034E+02  0.68903900364E+03  0.69225793283E+03  0.00000000000E+00 0. -1.
         22    1    3    3    0    0 -0.43314357075E+01  0.42237350001E+02 -0.30196496427E+02  0.52101664723E+02  0.00000000000E+00 0. -1.
         22    1    3    3    0    0 -0.39716944149E+02 -0.89426352254E+02 -0.51334202566E+02  0.11049754967E+03  0.00000000000E+00 0. -1.
</event>
<event>
 7    1  0.6294601E-006  0.4214617E+02  0.7818608E-02  0.1509003E+00
          2   -1    0    0  502    0  0.00000000000E+00  0.00000000000E+00  0.39843207636E+03  0.39843207636E+03  0.00000000000E+00 0. -1.
          1   -1    0    0  501    0 -0.00000000000E+00 -0.00000000000E+00 -0.83871924859E+02  0.83871924859E+02  0.00000000000E+00 0. -1.
         25    2    1    2    0    0  0.10004067740E+02  0.27918107571E+00  0.26257285706E+02  0.12811728277E+03  0.12499773510E+03 0.  0.
          2    1    1    2  501    0  0.17962603330E+02 -0.33213588001E+02 -0.20097077886E+02  0.42774876807E+02  0.00000000000E+00 0. -1.
          1    1    1    2  502    0 -0.27966671070E+02  0.32934406925E+02  0.30839994368E+03  0.31141184163E+03  0.00000000000E+00 0. -1.
         22    1    3    3    0    0 -0.20073032705E+02  0.48816977919E+02 -0.18112374776E+02  0.55803961285E+02  0.00000000000E+00 0. -1.
         22    1    3    3    0    0  0.30077100445E+02 -0.48537796843E+02  0.44369660482E+02  0.72313321489E+02  0.00000000000E+00 0. -1.
</event>
<event>
 7    1  0.6294601E-006  0.4950426E+02  0.7818608E-02  0.1494339E+00
          2   -1    0    0  502    0  0.00000000000E+00  0.00000000000E+00  0.48797695605E+03  0.48797695605E+03  0.00000000000E+00 0. -1.
          1   -1    0    0  501    0 -0.00000000000E+00 -0.00000000000E+00 -0.12129498117E+03  0.12129498117E+03  0.00000000000E+00 0. -1.
         25    2    1    2    0    0  0.55294660513E+01 -0.61600328151E+02  0.28844255610E+03  0.32038907627E+03  0.12499950641E+03 0.  0.
          2    1    1    2  501    0  0.24687743105E+02  0.42878501991E+02 -0.97632849270E+02  0.10945420891E+03  0.00000000000E+00 0. -1.
          1    1    1    2  502    0 -0.30217209157E+02  0.18721826160E+02  0.17587226805E+03  0.17942865204E+03  0.00000000000E+00 0. -1.
         22    1    3    3    0    0 -0.46365569638E+02 -0.72351619616E+02  0.19174929930E+03  0.21012452663E+03  0.00000000000E+00 0. -1.
         22    1    3    3    0    0  0.51895035689E+02  0.10751291465E+02  0.96693256795E+02  0.11026454964E+03  0.00000000000E+00 0. -1.
</event>
<event>
 7    1  0.6294601E-006  0.1895596E+03  0.7818608E-02  0.1272598E+00
          2   -1    0    0  502    0  0.00000000000E+00  0.00000000000E+00  0.68590995099E+03  0.68590995099E+03  0.00000000000E+00 0. -1.
          1   -1    0    0  501    0 -0.00000000000E+00 -0.00000000000E+00 -0.81940871164E+03  0.81940871164E+03  0.00000000000E+00 0. -1.
         25    2    1    2    0    0 -0.16785951258E+03 -0.13528041758E+03 -0.53679233228E+02  0.25491830654E+03  0.12499710231E+03 0.  0.
          2    1    1    2  501    0  0.54906544129E+02 -0.14492288213E+02 -0.64880672248E+03  0.65128712419E+03  0.00000000000E+00 0. -1.
          1    1    1    2  502    0  0.11295296845E+03  0.14977270580E+03  0.56898719506E+03  0.59911323189E+03  0.00000000000E+00 0. -1.
         22    1    3    3    0    0 -0.41958526935E+02 -0.11335335236E+03 -0.17738693226E+02  0.12216448629E+03  0.00000000000E+00 0. -1.
         22    1    3    3    0    0 -0.12590098564E+03 -0.21927065223E+02 -0.35940540002E+02  0.13275382025E+03  0.00000000000E+00 0. -1.
</event>
<event>
 7    1  0.6294601E-006  0.1292403E+03  0.7818608E-02  0.1229670E+00
          2   -1    0    0  502    0  0.00000000000E+00  0.00000000000E+00  0.13562373378E+04  0.13562373378E+04  0.00000000000E+00 0. -1.
          1   -1    0    0  501    0 -0.00000000000E+00 -0.00000000000E+00 -0.16879112367E+04  0.16879112367E+04  0.00000000000E+00 0. -1.
         25    2    1    2    0    0  0.10310027941E+03  0.19863544837E+02 -0.11260636906E+03  0.19831151935E+03  0.12499214506E+03 0.  0.
          2    1    1    2  501    0 -0.70051360888E+02  0.10689278029E+03 -0.15265091181E+04  0.15318496490E+04  0.00000000000E+00 0. -1.
          1    1    1    2  502    0 -0.33048918518E+02 -0.12675632513E+03  0.13074415882E+04  0.13139874062E+04  0.00000000000E+00 0. -1.
         22    1    3    3    0    0 -0.20277847956E+02  0.10079496480E+02  0.94016876744E+01  0.24518953855E+02  0.00000000000E+00 0. -1.
         22    1    3    3    0    0  0.12337812736E+03  0.97840483569E+01 -0.12200805673E+03  0.17379256550E+03  0.00000000000E+00 0. -1.
</event>
<event>
 7    1  0.6294601E-006  0.8222229E+02  0.7818608E-02  0.1329992E+00
          2   -1    0    0  502    0  0.00000000000E+00  0.00000000000E+00  0.24564014200E+04  0.24564014200E+04  0.00000000000E+00 0. -1.
          1   -1    0    0  501    0 -0.00000000000E+00 -0.00000000000E+00 -0.25096435328E+04  0.25096435328E+04  0.00000000000E+00 0. -1.
         25    2    1    2    0    0  0.99616091237E+02  0.76517040916E+02  0.32196322892E+03  0.36751080832E+03  0.12500260105E+03 0.  0.
          2    1    1    2  501    0 -0.18094782367E+02 -0.75044989021E+02 -0.24854832226E+04  0.24866817290E+04  0.00000000000E+00 0. -1.
          1    1    1    2  502    0 -0.81521308870E+02 -0.14720518948E+01  0.21102778808E+04  0.21118524155E+04  0.00000000000E+00 0. -1.
         22    1    3    3    0    0  0.73562614357E+02  0.85812969881E+00  0.24750850857E+03  0.25821048862E+03  0.00000000000E+00 0. -1.
         22    1    3    3    0    0  0.26053476880E+02  0.75658911217E+02  0.74454720352E+02  0.10930031970E+03  0.00000000000E+00 0. -1.
</event>
<event>
 7    1  0.6294601E-006  0.2762647E+03  0.7818608E-02  0.1292978E+00
          2   -1    0    0  502    0  0.00000000000E+00  0.00000000000E+00  0.24074421289E+04  0.24074421289E+04  0.00000000000E+00 0. -1.
          1   -1    0    0  501    0 -0.00000000000E+00 -0.00000000000E+00 -0.59195950336E+03  0.59195950336E+03  0.00000000000E+00 0. -1.
         25    2    1    2    0    0  0.80189244904E+01  0.30262116019E+03  0.63000934087E+02  0.33352458813E+03  0.12500265375E+03 0.  0.
          2    1    1    2  501    0 -0.11334142870E+02 -0.27066973544E+03 -0.41639368485E+03  0.49676379625E+03  0.00000000000E+00 0. -1.
          1    1    1    2  502    0  0.33152183796E+01 -0.31951424756E+02  0.21688753763E+04  0.21691132479E+04  0.00000000000E+00 0. -1.
         22    1    3    3    0    0  0.50894035100E+02  0.10378853838E+03 -0.13135789003E+02  0.11633921291E+03  0.00000000000E+00 0.  1.
         22    1    3    3    0    0 -0.42875110610E+02  0.19883262181E+03  0.76136723090E+02  0.21718537522E+03  0.00000000000E+00 0.  1.
</event>
<event>
 7    1  0.6294601E-006  0.1011061E+03  0.7818608E-02  0.1324036E+00
          2   -1    0    0  502    0  0.00000000000E+00  0.00000000000E+00  0.22619472319E+03  0.22619472319E+03  0.00000000000E+00 0. -1.
          1   -1    0    0  501    0 -0.00000000000E+00 -0.00000000000E+00 -0.72620009833E+03  0.72620009833E+03  0.00000000000E+00 0. -1.
         25    2    1    2    0    0 -0.14132254532E+03 -0.17929418458E+02 -0.43782263797E+02  0.19451348343E+03  0.12500033100E+03 0.  0.
          2    1    1    2  501    0  0.58057298000E+02 -0.31747904541E+02 -0.58942516261E+03  0.59312781220E+03  0.00000000000E+00 0. -1.
          1    1    1    2  502    0  0.83265247320E+02  0.49677322999E+02  0.13320205127E+03  0.16475352589E+03  0.00000000000E+00 0. -1.
         22    1    3    3    0    0 -0.10991233774E+02  0.14530577266E+02 -0.56724534094E+02  0.59578667858E+02  0.00000000000E+00 0.  1.
         22    1    3    3    0    0 -0.13033131155E+03 -0.32459995725E+02  0.12942270297E+02  0.13493481557E+03  0.00000000000E+00 0.  1.
</event>
<event>
 7    1  0.6294601E-006  0.1248421E+03  0.7818608E-02  0.1362676E+00
          2   -1    0    0  502    0  0.00000000000E+00  0.00000000000E+00  0.11546523152E+04  0.11546523152E+04  0.00000000000E+00 0. -1.
          1   -1    0    0  501    0 -0.00000000000E+00 -0.00000000000E+00 -0.23606035290E+03  0.23606035290E+03  0.00000000000E+00 0. -1.
         25    2    1    2    0    0 -0.57726399335E+02 -0.78684691377E+02 -0.73099315331E+01  0.15874582617E+03  0.12499273735E+03 0.  0.
          2    1    1    2  501    0  0.75855725889E+02  0.11254530388E+03 -0.12251898405E+03  0.18284265921E+03  0.00000000000E+00 0. -1.
          1    1    1    2  502    0 -0.18129326553E+02 -0.33860612498E+02  0.10484208779E+04  0.10491241827E+04  0.00000000000E+00 0. -1.
         22    1    3    3    0    0  0.25842130991E+02 -0.32137164682E+02 -0.40201420479E+02  0.57591382137E+02  0.00000000000E+00 0. -1.
         22    1    3    3    0    0 -0.83568530326E+02 -0.46547526695E+02  0.32891488945E+02  0.10115444403E+03  0.00000000000E+00 0. -1.
</event>
<event>
 7    1  0.6294601E-006  0.4093502E+03  0.7818608E-02  0.1210825E+00
          2   -1    0    0  502    0  0.00000000000E+00  0.00000000000E+00  0.22904220055E+04  0.22904220055E+04  0.00000000000E+00 0. -1.
          1   -1    0    0  501    0 -0.00000000000E+00 -0.00000000000E+00 -0.22541445174E+03  0.22541445174E+03  0.00000000000E+00 0. -1.
         25    2    1    2    0    0  0.62517962305E+02  0.38726839382E+03  0.12938338956E+04  0.13577613050E+04  0.12499722948E+03 0.  0.
          2    1    1    2  501    0 -0.16211521589E+02  0.46424383923E+02 -0.13973266600E+03  0.14813255821E+03  0.00000000000E+00 0. -1.
          1    1    1    2  502    0 -0.46306440716E+02 -0.43369277774E+03  0.91090632412E+03  0.10099425940E+04  0.00000000000E+00 0. -1.
         22    1    3    3    0    0  0.79705088238E+02  0.18578876306E+03  0.77446154698E+03  0.80041305170E+03  0.00000000000E+00 0. -1.
         22    1    3    3    0    0 -0.17187125934E+02  0.20147963075E+03  0.51937234866E+03  0.55734825330E+03  0.00000000000E+00 0. -1.
</event>
<event>
 7    1  0.6294601E-006  0.1262773E+03  0.7818608E-02  0.1393396E+00
          2   -1    0    0  502    0  0.00000000000E+00  0.00000000000E+00  0.47556307943E+03  0.47556307943E+03  0.00000000000E+00 0. -1.
          1   -1    0    0  501    0 -0.00000000000E+00 -0.00000000000E+00 -0.10050606602E+04  0.10050606602E+04  0.00000000000E+00 0. -1.
         25    2    1    2    0    0 -0.93173511351E+02 -0.77525160503E+02 -0.42168003581E+03  0.45621394922E+03  0.12500264451E+03 0.  0.
          2    1    1    2  501    0  0.11555179944E+03  0.58251027331E+02 -0.55822881332E+03  0.57303124571E+03  0.00000000000E+00 0. -1.
          1    1    1    2  502    0 -0.22378288092E+02  0.19274133172E+02  0.45041126834E+03  0.45137854472E+03  0.00000000000E+00 0. -1.
         22    1    3    3    0    0 -0.29103373502E+02  0.97154644364E+01 -0.25902542800E+03  0.26083628764E+03  0.00000000000E+00 0.  1.
         22    1    3    3    0    0 -0.64070137848E+02 -0.87240624939E+02 -0.16265460780E+03  0.19537766158E+03  0.00000000000E+00 0.  1.
</event>
<event>
 7    1  0.6294601E-006  0.7671472E+02  0.7818608E-02  0.1392813E+00
          2   -1    0    0  502    0  0.00000000000E+00  0.00000000000E+00  0.31761741300E+04  0.31761741300E+04  0.00000000000E+00 0. -1.
          1   -1    0    0  501    0 -0.00000000000E+00 -0.00000000000E+00 -0.38262065219E+03  0.38262065219E+03  0.00000000000E+00 0. -1.
         25    2    1    2    0    0  0.55275900298E+02  0.84566899202E+02  0.19978925937E+03  0.25641348913E+03  0.12500057461E+03 0.  0.
          2    1    1    2  501    0 -0.66868949800E+02 -0.37119664574E+02 -0.34997630463E+03  0.35823559252E+03  0.00000000000E+00 0. -1.
          1    1    1    2  502    0  0.11593049503E+02 -0.47447234628E+02  0.29437405230E+04  0.29441457005E+04  0.00000000000E+00 0. -1.
         22    1    3    3    0    0  0.72132598456E+01  0.87524356101E+02  0.54512609631E+02  0.10336425222E+03  0.00000000000E+00 0.  1.
         22    1    3    3    0    0  0.48062640452E+02 -0.29574568998E+01  0.14527664974E+03  0.15304923691E+03  0.00000000000E+00 0.  1.
</event>
<event>
 7    1  0.6294601E-006  0.5629926E+02  0.7818608E-02  0.1498920E+00
          2   -1    0    0  502    0  0.00000000000E+00  0.00000000000E+00  0.14122500043E+04  0.14122500043E+04  0.00000000000E+00 0. -1.
          1   -1    0    0  501    0 -0.00000000000E+00 -0.00000000000E+00 -0.12283878480E+02  0.12283878480E+02  0.00000000000E+00 0. -1.
         25    2    1    2    0    0  0.14211501499E+02 -0.83705552998E+01  0.95085690591E+03  0.95917961927E+03  0.12499861411E+03 0.  0.
          2    1    1    2  501    0  0.31382722110E+02  0.46741114021E+02  0.29082144840E+03  0.29622073161E+03  0.00000000000E+00 0. -1.
          1    1    1    2  502    0 -0.45594223609E+02 -0.38370558721E+02  0.15828777148E+03  0.16913353187E+03  0.00000000000E+00 0. -1.
         22    1    3    3    0    0  0.43266972015E+02  0.65373104482E+01  0.12081013960E+03  0.12849068886E+03  0.00000000000E+00 0.  1.
         22    1    3    3    0    0 -0.29055470516E+02 -0.14907865748E+02  0.83004676631E+03  0.83068893040E+03  0.00000000000E+00 0.  1.
</event>
<event>
 7    1  0.6294601E-006  0.3487044E+02  0.7818608E-02  0.1553719E+00
          2   -1    0    0  502    0  0.00000000000E+00  0.00000000000E+00  0.27305109938E+03  0.27305109938E+03  0.00000000000E+00 0. -1.
          1   -1    0    0  501    0 -0.00000000000E+00 -0.00000000000E+00 -0.54398158429E+02  0.54398158429E+02  0.00000000000E+00 0. -1.
         25    2    1    2    0    0 -0.52348871650E+02 -0.12017166302E+02  0.12749420157E+03  0.18645234531E+03  0.12499955595E+03 0.  0.
          2    1    1    2  501    0  0.30951627371E+02 -0.14399938299E+02 -0.89352113034E+01  0.35287383878E+02  0.00000000000E+00 0. -1.
          1    1    1    2  502    0  0.21397244280E+02  0.26417104602E+02  0.10009395068E+03  0.10570952862E+03  0.00000000000E+00 0. -1.
         22    1    3    3    0    0  0.19637997879E+02  0.96953485930E+01  0.10601638727E+03  0.10825490804E+03  0.00000000000E+00 0. -1.
         22    1    3    3    0    0 -0.71986869529E+02 -0.21712514896E+02  0.21477814296E+02  0.78197437264E+02  0.00000000000E+00 0. -1.
</event>
<event>
 7    1  0.6294601E-006  0.6503777E+02  0.7818608E-02  0.1378633E+00
          2   -1    0    0  502    0  0.00000000000E+00  0.00000000000E+00  0.76078113885E+03  0.76078113885E+03  0.00000000000E+00 0. -1.
          1   -1    0    0  501    0 -0.00000000000E+00 -0.00000000000E+00 -0.69008383848E+03  0.69008383848E+03  0.00000000000E+00 0. -1.
         25    2    1    2    0    0  0.43808264539E+02 -0.57307397015E+02  0.33785821812E+03  0.36739093853E+03  0.12499849745E+03 0.  0.
          2    1    1    2  501    0  0.20647839335E+02  0.61788450962E+02 -0.67117337058E+03  0.67432769431E+03  0.00000000000E+00 0. -1.
          1    1    1    2  502    0 -0.64456103874E+02 -0.44810539469E+01  0.40401245282E+03  0.40914634449E+03  0.00000000000E+00 0. -1.
         22    1    3    3    0    0  0.30201886209E+02 -0.50641450940E+02  0.45082932004E+02  0.74223858981E+02  0.00000000000E+00 0. -1.
         22    1    3    3    0    0  0.13606378330E+02 -0.66659460750E+01  0.29277528612E+03  0.29316707955E+03  0.00000000000E+00 0. -1.
</event>
<event>
 7    1  0.6294601E-006  0.7043780E+02  0.7818608E-02  0.1393845E+00
          2   -1    0    0  502    0  0.00000000000E+00  0.00000000000E+00  0.20133091942E+03  0.20133091942E+03  0.00000000000E+00 0. -1.
          1   -1    0    0  501    0 -0.00000000000E+00 -0.00000000000E+00 -0.30662410286E+04  0.30662410286E+04  0.00000000000E+00 0. -1.
         25    2    1    2    0    0 -0.10043181863E+03  0.55468837570E+02 -0.11294562251E+03  0.20382509222E+03  0.12499844975E+03 0.  0.
          2    1    1    2  501    0  0.52338784327E+02 -0.66384393012E+01 -0.29000710802E+04  0.29005509283E+04  0.00000000000E+00 0. -1.
          1    1    1    2  502    0  0.48093034305E+02 -0.48830398269E+02  0.14810659349E+03  0.16319592758E+03  0.00000000000E+00 0. -1.
         22    1    3    3    0    0 -0.47675064128E+02  0.90995038076E+02 -0.88815102960E+02  0.13579812667E+03  0.00000000000E+00 0.  1.
         22    1    3    3    0    0 -0.52756754504E+02 -0.35526200505E+02 -0.24130519552E+02  0.68026965550E+02  0.00000000000E+00 0.  1.
</event>
<event>
 7    1  0.6294601E-006  0.5783100E+02  0.7818608E-02  0.1424703E+00
          2   -1    0    0  502    0  0.00000000000E+00  0.00000000000E+00  0.23914824689E+04  0.23914824689E+04  0.00000000000E+00 0. -1.
          1   -1    0    0  501    0 -0.00000000000E+00 -0.00000000000E+00 -0.31536267551E+02  0.31536267551E+02  0.00000000000E+00 0. -1.
         25    2    1    2    0    0 -0.35824228038E+02  0.68835381590E+02  0.43477626008E+03  0.45899539813E+03  0.12499877641E+03 0.  0.
          2    1    1    2  501    0 -0.17761625273E+02 -0.47267251950E+02  0.14575374084E+02  0.52555779596E+02  0.00000000000E+00 0. -1.
          1    1    1    2  502    0  0.53585853311E+02 -0.21568129639E+02  0.19105945672E+04  0.19114675587E+04  0.00000000000E+00 0. -1.
         22    1    3    3    0    0  0.22180618177E+02  0.35294728682E+02  0.34212224690E+03  0.34465247644E+03  0.00000000000E+00 0.  1.
         22    1    3    3    0    0 -0.58004846215E+02  0.33540652908E+02  0.92654013178E+02  0.11434292169E+03  0.00000000000E+00 0.  1.
</event>
<event>
 7    1  0.6294601E-006  0.5654252E+02  0.7818608E-02  0.1419259E+00
          2   -1    0    0  502    0  0.00000000000E+00  0.00000000000E+00  0.36537677987E+04  0.36537677987E+04  0.00000000000E+00 0. -1.
          1   -1    0    0  501    0 -0.00000000000E+00 -0.00000000000E+00 -0.17124177980E+02  0.17124177980E+02  0.00000000000E+00 0. -1.
         25    2    1    2    0    0 -0.33345138477E+02  0.14163833693E+01  0.46942062871E+03  0.48692540372E+03  0.12500687074E+03 0.  0.
          2    1    1    2  501    0  0.77007929148E+01 -0.53292736555E+02  0.81382046219E+02  0.97583069371E+02  0.00000000000E+00 0. -1.
          1    1    1    2  502    0  0.25644345562E+02  0.51876353186E+02  0.30858409458E+04  0.30863835036E+04  0.00000000000E+00 0. -1.
         22    1    3    3    0    0 -0.19556937123E+02  0.22649908640E+01  0.47238628157E+03  0.47279636525E+03  0.00000000000E+00 0. -1.
         22    1    3    3    0    0 -0.13788201354E+02 -0.84860749472E+00 -0.29656528663E+01  0.14129038473E+02  0.00000000000E+00 0. -1.
</event>
<event>
 7    1  0.6671681E-006  0.9353445E+02  0.7818608E-02  0.1388175E+00
          2   -1    0    0  502    0  0.00000000000E+00  0.00000000000E+00  0.68219065495E+03  0.68219065495E+03  0.00000000000E+00 0. -1.
          1   -1    0    0  501    0 -0.00000000000E+00 -0.00000000000E+00 -0.19112301825E+04  0.19112301825E+04  0.00000000000E+00 0. -1.
         25    2    1    2    0    0 -0.82838904130E+02  0.49517998005E+01 -0.43030442215E+03  0.45571487188E+03  0.12500937714E+03 0.  0.
          2    1    1    2  501    0  0.88626504100E+02  0.36222974990E+02 -0.14660118832E+04  0.14691349845E+04  0.00000000000E+00 0. -1.
          1    1    1    2  502    0 -0.57875999708E+01 -0.41174774790E+02  0.66727677783E+03  0.66857098099E+03  0.00000000000E+00 0. -1.
         22    1    3    3    0    0  0.10651888452E+02 -0.28354836495E+02 -0.23192489336E+03  0.23389445406E+03  0.00000000000E+00 0. -1.
         22    1    3    3    0    0 -0.93490792582E+02  0.33306636296E+02 -0.19837952879E+03  0.22182041782E+03  0.00000000000E+00 0. -1.
</event>
<event>
 7    1  0.6294601E-006  0.7921885E+02  0.7818608E-02  0.1355581E+00
          2   -1    0    0  502    0  0.00000000000E+00  0.00000000000E+00  0.47738998976E+03  0.47738998976E+03  0.00000000000E+00 0. -1.
          1   -1    0    0  501    0 -0.00000000000E+00 -0.00000000000E+00 -0.41543490630E+03  0.41543490630E+03  0.00000000000E+00 0. -1.
         25    2    1    2    0    0  0.37587638107E+02  0.38619491283E+02 -0.27512323049E+03  0.30695474966E+03  0.12499652290E+03 0.  0.
          2    1    1    2  501    0  0.20867294275E+02 -0.92085804794E+02 -0.10241255023E+03  0.13929669723E+03  0.00000000000E+00 0. -1.
          1    1    1    2  502    0 -0.58454932382E+02  0.53466313511E+02  0.43949086418E+03  0.44657344917E+03  0.00000000000E+00 0. -1.
         22    1    3    3    0    0 -0.36937855843E+02  0.42720815848E+02 -0.79012488400E+02  0.97120783688E+02  0.00000000000E+00 0.  1.
         22    1    3    3    0    0  0.74525493950E+02 -0.41013245653E+01 -0.19611074209E+03  0.20983396597E+03  0.00000000000E+00 0.  1.
</event>
<event>
 7    1  0.6294601E-006  0.3247035E+02  0.7818608E-02  0.1614256E+00
          2   -1    0    0  502    0  0.00000000000E+00  0.00000000000E+00  0.20248794985E+04  0.20248794985E+04  0.00000000000E+00 0. -1.
          1   -1    0    0  501    0 -0.00000000000E+00 -0.00000000000E+00 -0.24817962826E+02  0.24817962826E+02  0.00000000000E+00 0. -1.
         25    2    1    2    0    0  0.49125249203E+02  0.56200378219E+01  0.84197759057E+03  0.85264091096E+03  0.12500154032E+03 0.  0.
          2    1    1    2  501    0 -0.22268137253E+02  0.11728170372E+02 -0.11049093930E+02  0.27486403797E+02  0.00000000000E+00 0. -1.
          1    1    1    2  502    0 -0.26857111950E+02 -0.17348208194E+02  0.11691330391E+04  0.11695701466E+04  0.00000000000E+00 0. -1.
         22    1    3    3    0    0 -0.12917270856E+02  0.52608276656E+02  0.26885340155E+03  0.27425651895E+03  0.00000000000E+00 0. -1.
         22    1    3    3    0    0  0.62042520059E+02 -0.46988238834E+02  0.57312418902E+03  0.57838439201E+03  0.00000000000E+00 0. -1.
</event>
<event>
 7    1  0.6294601E-006  0.1900093E+03  0.7818608E-02  0.1336488E+00
          2   -1    0    0  502    0  0.00000000000E+00  0.00000000000E+00  0.14576505208E+03  0.14576505208E+03  0.00000000000E+00 0. -1.
          1   -1    0    0  501    0 -0.00000000000E+00 -0.00000000000E+00 -0.19279466200E+04  0.19279466200E+04  0.00000000000E+00 0. -1.
         25    2    1    2    0    0  0.12248432644E+03 -0.15534488856E+03 -0.49077969401E+03  0.54371256195E+03  0.12499678933E+03 0.  0.
          2    1    1    2  501    0 -0.92279786621E+02  0.16448940421E+03 -0.14021829145E+04  0.14148106760E+04  0.00000000000E+00 0. -1.
          1    1    1    2  502    0 -0.30204539817E+02 -0.91445156490E+01  0.11078104063E+03  0.11518843412E+03  0.00000000000E+00 0. -1.
         22    1    3    3    0    0  0.25164787324E+01 -0.30291086965E+02 -0.22092829892E+03  0.22300940760E+03  0.00000000000E+00 0. -1.
         22    1    3    3    0    0  0.11996784771E+03 -0.12505380159E+03 -0.26985139509E+03  0.32070315435E+03  0.00000000000E+00 0. -1.
</event>
<event>
 7    1  0.6294601E-006  0.1146519E+03  0.7818608E-02  0.1364923E+00
          2   -1    0    0  502    0  0.00000000000E+00  0.00000000000E+00  0.67080475978E+02  0.67080475978E+02  0.00000000000E+00 0. -1.
          1   -1    0    0  501    0 -0.00000000000E+00 -0.00000000000E+00 -0.48942487396E+03  0.48942487396E+03  0.00000000000E+00 0. -1.
         25    2    1    2    0    0 -0.93027835584E+01 -0.92809591467E+02 -0.23038713026E+03  0.27821512150E+03  0.12500104796E+03 0.  0.
          2    1    1    2  501    0  0.24854068526E+02  0.13079396074E+03 -0.19611503175E+03  0.23703563143E+03  0.00000000000E+00 0. -1.
          1    1    1    2  502    0 -0.15551284968E+02 -0.37984369271E+02  0.41577640253E+01  0.41254597013E+02  0.00000000000E+00 0. -1.
         22    1    3    3    0    0 -0.18528884780E+02 -0.16893236089E+02 -0.19015897764E+03  0.19180494721E+03  0.00000000000E+00 0.  1.
         22    1    3    3    0    0  0.92261012216E+01 -0.75916355378E+02 -0.40228152619E+02  0.86410174290E+02  0.00000000000E+00 0.  1.
</event>
<event>
 7    1  0.6294601E-006  0.1544208E+03  0.7818608E-02  0.1241950E+00
          2   -1    0    0  502    0  0.00000000000E+00  0.00000000000E+00  0.18819459483E+04  0.18819459483E+04  0.00000000000E+00 0. -1.
          1   -1    0    0  501    0 -0.00000000000E+00 -0.00000000000E+00 -0.11875402289E+04  0.11875402289E+04  0.00000000000E+00 0. -1.
         25    2    1    2    0    0  0.97825813407E+02 -0.40398414921E+02  0.26039612234E+03  0.30762370818E+03  0.12499713440E+03 0.  0.
          2    1    1    2  501    0 -0.99604786974E+00 -0.94334509931E+02 -0.11576955618E+04  0.11615330412E+04  0.00000000000E+00 0. -1.
          1    1    1    2  502    0 -0.96829765537E+02  0.13473292485E+03  0.15917051589E+04  0.16003294278E+04  0.00000000000E+00 0. -1.
         22    1    3    3    0    0  0.60350108709E+02 -0.35882994186E+02  0.33834311353E+02  0.77938985865E+02  0.00000000000E+00 0.  1.
         22    1    3    3    0    0  0.37475704698E+02 -0.45154207354E+01  0.22656181098E+03  0.22968472231E+03  0.00000000000E+00 0.  1.
</event>
<event>
 7    1  0.6294601E-006  0.9634941E+02  0.7818608E-02  0.1409413E+00
          2   -1    0    0  502    0  0.00000000000E+00  0.00000000000E+00  0.55801959429E+03  0.55801959429E+03  0.00000000000E+00 0. -1.
          1   -1    0    0  501    0 -0.00000000000E+00 -0.00000000000E+00 -0.10953653881E+04  0.10953653881E+04  0.00000000000E+00 0. -1.
         25    2    1    2    0    0 -0.73373888288E+02 -0.65446125183E+02 -0.29843863440E+02  0.16181397103E+03  0.12500472892E+03 0.  0.
          2    1    1    2  501    0 -0.16384072555E+02  0.29913769679E+02 -0.99450636548E+03  0.99509104228E+03  0.00000000000E+00 0. -1.
          1    1    1    2  502    0  0.89757960843E+02  0.35532355504E+02  0.48700443513E+03  0.49647996904E+03  0.00000000000E+00 0. -1.
         22    1    3    3    0    0 -0.61644272194E+02 -0.99389708472E+02 -0.41433906895E+02  0.12407698854E+03  0.00000000000E+00 0.  1.
         22    1    3    3    0    0 -0.11729616094E+02  0.33943583290E+02  0.11590043456E+02  0.37736982492E+02  0.00000000000E+00 0.  1.
</event>
<event>
 7    1  0.6294601E-006  0.6176102E+02  0.7818608E-02  0.1440644E+00
          2   -1    0    0  502    0  0.00000000000E+00  0.00000000000E+00  0.63704813401E+03  0.63704813401E+03  0.00000000000E+00 0. -1.
          1   -1    0    0  501    0 -0.00000000000E+00 -0.00000000000E+00 -0.34475678561E+03  0.34475678561E+03  0.00000000000E+00 0. -1.
         25    2    1    2    0    0  0.69579792682E+02  0.41881388396E+02  0.27999995181E+03  0.31720681600E+03  0.12499917144E+03 0.  0.
          2    1    1    2  501    0 -0.61674202018E+02 -0.71502970499E+00 -0.32191632853E+03  0.32777178194E+03  0.00000000000E+00 0. -1.
          1    1    1    2  502    0 -0.79055906642E+01 -0.41166358691E+02  0.33420772512E+03  0.33682632169E+03  0.00000000000E+00 0. -1.
         22    1    3    3    0    0  0.10086792327E+03  0.99809828530E+01  0.22153386980E+03  0.24362104472E+03  0.00000000000E+00 0.  1.
         22    1    3    3    0    0 -0.31288130585E+02  0.31900405543E+02  0.58466082006E+02  0.73585771277E+02  0.00000000000E+00 0.  1.
</event>
<event>
 7    1  0.6294601E-006  0.1061207E+03  0.7818608E-02  0.1398141E+00
          2   -1    0    0  502    0  0.00000000000E+00  0.00000000000E+00  0.11772061137E+04  0.11772061137E+04  0.00000000000E+00 0. -1.
          1   -1    0    0  501    0 -0.00000000000E+00 -0.00000000000E+00 -0.27693671609E+03  0.27693671609E+03  0.00000000000E+00 0. -1.
         25    2    1    2    0    0  0.72649576681E+02  0.84273183369E+02  0.57451111550E+02  0.17693585772E+03  0.12500294838E+03 0.  0.
          2    1    1    2  501    0 -0.31089202150E+02  0.13365776834E+02 -0.21320072529E+03  0.21586971011E+03  0.00000000000E+00 0. -1.
          1    1    1    2  502    0 -0.41560374531E+02 -0.97638960203E+02  0.10560190114E+04  0.10613372620E+04  0.00000000000E+00 0. -1.
         22    1    3    3    0    0  0.77789475251E+02  0.88827893807E+02 -0.10038994517E+01  0.11807880840E+03  0.00000000000E+00 0. -1.
         22    1    3    3    0    0 -0.51398985701E+01 -0.45547104379E+01  0.58455011001E+02  0.58857049329E+02  0.00000000000E+00 0. -1.
</event>
<event>
 7    1  0.6294601E-006  0.1420235E+03  0.7818608E-02  0.1383520E+00
          2   -1    0    0  502    0  0.00000000000E+00  0.00000000000E+00  0.18352771785E+04  0.18352771785E+04  0.00000000000E+00 0. -1.
          1   -1    0    0  501    0 -0.00000000000E+00 -0.00000000000E+00 -0.14121063625E+03  0.14121063625E+03  0.00000000000E+00 0. -1.
         25    2    1    2    0    0  0.12673513423E+03  0.10073763188E+03  0.63056939646E+03  0.66291235355E+03  0.12500064004E+03 0.  0.
          2    1    1    2  501    0 -0.12048931117E+03 -0.72998186438E+02 -0.85126915079E+02  0.16459951701E+03  0.00000000000E+00 0. -1.
          1    1    1    2  502    0 -0.62458230604E+01 -0.27739445444E+02  0.11486240609E+04  0.11489759442E+04  0.00000000000E+00 0. -1.
         22    1    3    3    0    0  0.68147041913E+02  0.52926220574E+02  0.53056454184E+03  0.53753505672E+03  0.00000000000E+00 0.  1.
         22    1    3    3    0    0  0.58588092315E+02  0.47811411308E+02  0.10000485462E+03  0.12537729683E+03  0.00000000000E+00 0.  1.
</event>
<event>
 7    1  0.6294601E-006  0.1150062E+03  0.7818608E-02  0.1386490E+00
          2   -1    0    0  502    0  0.00000000000E+00  0.00000000000E+00  0.14104390909E+02  0.14104390909E+02  0.00000000000E+00 0. -1.
          1   -1    0    0  501    0 -0.00000000000E+00 -0.00000000000E+00 -0.32020912109E+04  0.32020912109E+04  0.00000000000E+00 0. -1.
         25    2    1    2    0    0 -0.49556099012E+02  0.13477474080E+03 -0.17404094298E+04  0.17507915378E+04  0.12500395196E+03 0.  0.
          2    1    1    2  501    0  0.10654753420E+02 -0.32581594922E+02 -0.11106108824E+04  0.11111397825E+04  0.00000000000E+00 0. -1.
          1    1    1    2  502    0  0.38901345592E+02 -0.10219314587E+03 -0.33696650777E+03  0.35426428145E+03  0.00000000000E+00 0. -1.
         22    1    3    3    0    0 -0.86459891501E+02  0.57821540639E+02 -0.10454247529E+04  0.10505862922E+04  0.00000000000E+00 0.  1.
         22    1    3    3    0    0  0.36903792489E+02  0.76953200156E+02 -0.69498467684E+03  0.70020524560E+03  0.00000000000E+00 0.  1.
</event>
<event>
 7    1  0.6294601E-006  0.7715167E+02  0.7818608E-02  0.1405187E+00
          2   -1    0    0  502    0  0.00000000000E+00  0.00000000000E+00  0.20302696805E+03  0.20302696805E+03  0.00000000000E+00 0. -1.
          1   -1    0    0  501    0 -0.00000000000E+00 -0.00000000000E+00 -0.52366205536E+03  0.52366205536E+03  0.00000000000E+00 0. -1.
         25    2    1    2    0    0  0.21940224236E+02  0.34917397724E+02  0.90712994451E+02  0.15985807844E+03  0.12500063910E+03 0.  0.
          2    1    1    2  501    0 -0.10523692961E+02 -0.77438689797E+02 -0.47942767907E+03  0.48575549225E+03  0.00000000000E+00 0. -1.
          1    1    1    2  502    0 -0.11416531274E+02  0.42521292072E+02  0.68079597306E+02  0.81075452729E+02  0.00000000000E+00 0. -1.
         22    1    3    3    0    0 -0.15564900881E+02  0.65100515294E+02  0.89421836297E+02  0.11169873785E+03  0.00000000000E+00 0. -1.
         22    1    3    3    0    0  0.37505125117E+02 -0.30183117570E+02  0.12911581541E+01  0.48159340586E+02  0.00000000000E+00 0. -1.
</event>
<event>
 7    1  0.6294601E-006  0.6434769E+02  0.7818608E-02  0.1403608E+00
          2   -1    0    0  502    0  0.00000000000E+00  0.00000000000E+00  0.14229595235E+02  0.14229595235E+02  0.00000000000E+00 0. -1.
          1   -1    0    0  501    0 -0.00000000000E+00 -0.00000000000E+00 -0.23698283955E+04  0.23698283955E+04  0.00000000000E+00 0. -1.
         25    2    1    2    0    0  0.12087511649E+02 -0.71764892234E+02 -0.76659251182E+03  0.78011811439E+03  0.12499554205E+03 0.  0.
          2    1    1    2  501    0  0.38075306742E+02  0.53317046602E+02 -0.14899032069E+04  0.14913430197E+04  0.00000000000E+00 0. -1.
          1    1    1    2  502    0 -0.50162818391E+02  0.18447845632E+02 -0.99103081591E+02  0.11259685670E+03  0.00000000000E+00 0. -1.
         22    1    3    3    0    0 -0.36695723264E+02 -0.71392502460E+02 -0.62963855137E+03  0.63473472482E+03  0.00000000000E+00 0. -1.
         22    1    3    3    0    0  0.48783234913E+02 -0.37238977365E+00 -0.13695396044E+03  0.14538338957E+03  0.00000000000E+00 0. -1.
</event>
<event>
 7    1  0.6294601E-006  0.9034249E+02  0.7818608E-02  0.1377819E+00
          2   -1    0    0  502    0  0.00000000000E+00  0.00000000000E+00  0.34983685784E+03  0.34983685784E+03  0.00000000000E+00 0. -1.
          1   -1    0    0  501    0 -0.00000000000E+00 -0.00000000000E+00 -0.20440717483E+03  0.20440717483E+03  0.00000000000E+00 0. -1.
         25    2    1    2    0    0 -0.57311688246E+02  0.81058214191E+02  0.22760116869E+03  0.27799620073E+03  0.12499812773E+03 0.  0.
          2    1    1    2  501    0  0.80836158115E+02 -0.40571745665E+02 -0.16093928252E+03  0.18461311888E+03  0.00000000000E+00 0. -1.
          1    1    1    2  502    0 -0.23524469868E+02 -0.40486468526E+02  0.78767796848E+02  0.91634713054E+02  0.00000000000E+00 0. -1.
         22    1    3    3    0    0 -0.71164651342E+02  0.10545061833E+03  0.15730313529E+03  0.20230797532E+03  0.00000000000E+00 0. -1.
         22    1    3    3    0    0  0.13852963095E+02 -0.24392404137E+02  0.70298033403E+02  0.75688225415E+02  0.00000000000E+00 0. -1.
</event>
<event>
 7    1  0.6294601E-006  0.1325707E+03  0.7818608E-02  0.1226148E+00
          2   -1    0    0  502    0  0.00000000000E+00  0.00000000000E+00  0.79529762992E+03  0.79529762992E+03  0.00000000000E+00 0. -1.
          1   -1    0    0  501    0 -0.00000000000E+00 -0.00000000000E+00 -0.80583447038E+03  0.80583447038E+03  0.00000000000E+00 0. -1.
         25    2    1    2    0    0  0.57886354364E+02 -0.13281666278E+03 -0.53747046711E+02  0.19875673742E+03  0.12499759880E+03 0.  0.
          2    1    1    2  501    0  0.72971220813E+02  0.11157298631E+03 -0.66684983845E+03  0.68004561419E+03  0.00000000000E+00 0. -1.
          1    1    1    2  502    0 -0.13085757518E+03  0.21243676468E+02  0.71006004470E+03  0.72232974870E+03  0.00000000000E+00 0. -1.
         22    1    3    3    0    0  0.18258629792E+02 -0.13614132165E+03 -0.72187854550E+01  0.13754980148E+03  0.00000000000E+00 0. -1.
         22    1    3    3    0    0  0.39627724572E+02  0.33246588782E+01 -0.46528261256E+02  0.61206935938E+02  0.00000000000E+00 0. -1.
</event>
<event>
 7    1  0.6294601E-006  0.2026275E+03  0.7818608E-02  0.1324467E+00
          2   -1    0    0  502    0  0.00000000000E+00  0.00000000000E+00  0.55899668692E+03  0.55899668692E+03  0.00000000000E+00 0. -1.
          1   -1    0    0  501    0 -0.00000000000E+00 -0.00000000000E+00 -0.90057209410E+03  0.90057209410E+03  0.00000000000E+00 0. -1.
         25    2    1    2    0    0  0.15954549605E+03  0.15991780266E+03 -0.22160081434E+03  0.34023590963E+03  0.12500033746E+03 0.  0.
          2    1    1    2  501    0 -0.32646821065E+02 -0.40042354680E+01 -0.59896511637E+03  0.59986753493E+03  0.00000000000E+00 0. -1.
          1    1    1    2  502    0 -0.12689867498E+03 -0.15591356719E+03  0.47899052354E+03  0.51946533646E+03  0.00000000000E+00 0. -1.
         22    1    3    3    0    0  0.12378234924E+03  0.66724037194E+02 -0.18828882090E+03  0.23500393018E+03  0.00000000000E+00 0. -1.
         22    1    3    3    0    0  0.35763146806E+02  0.93193765466E+02 -0.33311993439E+02  0.10523197945E+03  0.00000000000E+00 0. -1.
</event>
<event>
 7    1  0.6294601E-006  0.1114047E+03  0.7818608E-02  0.1334119E+00
          2   -1    0    0  502    0  0.00000000000E+00  0.00000000000E+00  0.22102282725E+04  0.22102282725E+04  0.00000000000E+00 0. -1.
          1   -1    0    0  501    0 -0.00000000000E+00 -0.00000000000E+00 -0.26112985703E+02  0.26112985703E+02  0.00000000000E+00 0. -1.
         25    2    1    2    0    0  0.82275820213E+02 -0.18706137150E+02  0.41627681857E+03  0.44275457808E+03  0.12500398623E+03 0.  0.
          2    1    1    2  501    0 -0.12456959038E+03  0.53787473863E+02  0.36071489041E+03  0.38539059065E+03  0.00000000000E+00 0. -1.
          1    1    1    2  502    0  0.42293770168E+02 -0.35081336713E+02  0.14071235778E+04  0.14081960895E+04  0.00000000000E+00 0. -1.
         22    1    3    3    0    0  0.11526669956E+02 -0.99743597596E+01 -0.45696733911E+01  0.15913324222E+02  0.00000000000E+00 0. -1.
         22    1    3    3    0    0  0.70749150257E+02 -0.87317773904E+01  0.42084649196E+03  0.42684125386E+03  0.00000000000E+00 0. -1.
</event>
<event>
 7    1  0.6294601E-006  0.1110021E+03  0.7818608E-02  0.1443014E+00
          2   -1    0    0  502    0  0.00000000000E+00  0.00000000000E+00  0.15780032488E+03  0.15780032488E+03  0.00000000000E+00 0. -1.
          1   -1    0    0  501    0 -0.00000000000E+00 -0.00000000000E+00 -0.19073298415E+03  0.19073298415E+03  0.00000000000E+00 0. -1.
         25    2    1    2    0    0  0.11032107152E+03  0.11795118303E+02 -0.85677514618E+02  0.18781029697E+03  0.12498882950E+03 0.  0.
          2    1    1    2  501    0 -0.40710362420E+01  0.22550358215E+02  0.42887641203E+02  0.48625525804E+02  0.00000000000E+00 0. -1.
          1    1    1    2  502    0 -0.10625003528E+03 -0.34345476518E+02  0.98572141442E+01  0.11209748626E+03  0.00000000000E+00 0. -1.
         22    1    3    3    0    0  0.27909438746E+02  0.27827261397E+02 -0.95469473795E+02  0.10328462458E+03  0.00000000000E+00 0. -1.
         22    1    3    3    0    0  0.82411632777E+02 -0.16032143094E+02  0.97919591764E+01  0.84525672394E+02  0.00000000000E+00 0. -1.
</event>
<event>
 7    1  0.6294601E-006  0.4082308E+02  0.7818608E-02  0.1556774E+00
          2   -1    0    0  502    0  0.00000000000E+00  0.00000000000E+00  0.12482096620E+04  0.12482096620E+04  0.00000000000E+00 0. -1.
          1   -1    0    0  501    0 -0.00000000000E+00 -0.00000000000E+00 -0.53133586818E+03  0.53133586818E+03  0.00000000000E+00 0. -1.
         25    2    1    2    0    0 -0.29730202596E+02  0.24468148176E+01 -0.10620671172E+03  0.16671953399E+03  0.12500266217E+03 0.  0.
          2    1    1    2  501    0  0.28428782855E+01  0.28335999204E+02 -0.39401579788E+03  0.39504361758E+03  0.00000000000E+00 0. -1.
          1    1    1    2  502    0  0.26887324311E+02 -0.30782814022E+02  0.12170963034E+04  0.12177823786E+04  0.00000000000E+00 0. -1.
         22    1    3    3    0    0  0.24250358526E+02  0.38908897833E+02 -0.46716963573E+01  0.46084780200E+02  0.00000000000E+00 0. -1.
         22    1    3    3    0    0 -0.53980561122E+02 -0.36462083016E+02 -0.10153501537E+03  0.12063475379E+03  0.00000000000E+00 0. -1.
</event>
<event>
 7    1  0.6294601E-006  0.7930832E+02  0.7818608E-02  0.1436492E+00
          2   -1    0    0  502    0  0.00000000000E+00  0.00000000000E+00  0.12839163907E+03  0.12839163907E+03  0.00000000000E+00 0. -1.
          1   -1    0    0  501    0 -0.00000000000E+00 -0.00000000000E+00 -0.13099690228E+04  0.13099690228E+04  0.00000000000E+00 0. -1.
         25    2    1    2    0    0  0.57610772169E+02  0.35819600593E+02 -0.48781956263E+02  0.15035790004E+03  0.12500309593E+03 0.  0.
          2    1    1    2  501    0 -0.43917823018E+02 -0.66584721549E+02 -0.12053646893E+04  0.12080009663E+04  0.00000000000E+00 0. -1.
          1    1    1    2  502    0 -0.13692949151E+02  0.30765120955E+02  0.72569261848E+02  0.80001795536E+02  0.00000000000E+00 0. -1.
         22    1    3    3    0    0  0.59807453735E+02  0.78316534130E+02 -0.25224202227E+02  0.10171858935E+03  0.00000000000E+00 0. -1.
         22    1    3    3    0    0 -0.21966815665E+01 -0.42496933537E+02 -0.23557754036E+02  0.48639310698E+02  0.00000000000E+00 0. -1.
</event>
<event>
 7    1  0.6294601E-006  0.4944054E+02  0.7818608E-02  0.1469394E+00
          2   -1    0    0  502    0  0.00000000000E+00  0.00000000000E+00  0.29570027447E+03  0.29570027447E+03  0.00000000000E+00 0. -1.
          1   -1    0    0  501    0 -0.00000000000E+00 -0.00000000000E+00 -0.12111519173E+04  0.12111519173E+04  0.00000000000E+00 0. -1.
         25    2    1    2    0    0  0.38721760400E+02 -0.10340488267E+02 -0.25668520682E+02  0.13375461900E+03  0.12500049889E+03 0.  0.
          2    1    1    2  501    0 -0.16916305223E+02  0.46741020409E+02 -0.11290266258E+04  0.11301203503E+04  0.00000000000E+00 0. -1.
          1    1    1    2  502    0 -0.21805455177E+02 -0.36400532142E+02  0.23924350364E+03  0.24297722250E+03  0.00000000000E+00 0. -1.
         22    1    3    3    0    0 -0.38209840925E+02 -0.31235709646E+02  0.19397806478E+01  0.49390527933E+02  0.00000000000E+00 0. -1.
         22    1    3    3    0    0  0.76931601325E+02  0.20895221378E+02 -0.27608301330E+02  0.84364091065E+02  0.00000000000E+00 0. -1.
</event>
<event>
 7    1  0.6294601E-006  0.7586563E+02  0.7818608E-02  0.1432759E+00
          2   -1    0    0  502    0  0.00000000000E+00  0.00000000000E+00  0.36902004316E+03  0.36902004316E+03  0.00000000000E+00 0. -1.
          1   -1    0    0  501    0 -0.00000000000E+00 -0.00000000000E+00 -0.65394131890E+03  0.65394131890E+03  0.00000000000E+00 0. -1.
         25    2    1    2    0    0 -0.36864366083E+02 -0.15785160303E+02  0.19887323946E+03  0.23829371338E+03  0.12500070277E+03 0.  0.
          2    1    1    2  501    0  0.71218193391E+02  0.27218322527E+02 -0.62971944509E+03  0.63431809660E+03  0.00000000000E+00 0. -1.
          1    1    1    2  502    0 -0.34353827307E+02 -0.11433162224E+02  0.14592492989E+03  0.15034955209E+03  0.00000000000E+00 0. -1.
         22    1    3    3    0    0 -0.53629690841E+02  0.42946075843E+01  0.19814210234E+02  0.57334024115E+02  0.00000000000E+00 0.  1.
         22    1    3    3    0    0  0.16765324758E+02 -0.20079767888E+02  0.17905902922E+03  0.18095968926E+03  0.00000000000E+00 0.  1.
</event>
<event>
 7    1  0.6294601E-006  0.1009473E+03  0.7818608E-02  0.1358393E+00
          2   -1    0    0  502    0  0.00000000000E+00  0.00000000000E+00  0.12597056229E+04  0.12597056229E+04  0.00000000000E+00 0. -1.
          1   -1    0    0  501    0 -0.00000000000E+00 -0.00000000000E+00 -0.14552666465E+03  0.14552666465E+03  0.00000000000E+00 0. -1.
         25    2    1    2    0    0  0.77058009772E+02 -0.15851383238E+02  0.18835457052E+03  0.23935714521E+03  0.12500078202E+03 0.  0.
          2    1    1    2  501    0  0.42411904228E+01 -0.49056459537E+02 -0.11226367963E+03  0.12258734715E+03  0.00000000000E+00 0. -1.
          1    1    1    2  502    0 -0.81299200195E+02  0.64907842775E+02  0.10380880673E+04  0.10432877952E+04  0.00000000000E+00 0. -1.
         22    1    3    3    0    0  0.48386101087E+02 -0.31679384031E+02  0.10833318812E+02  0.58840113421E+02  0.00000000000E+00 0. -1.
         22    1    3    3    0    0  0.28671908686E+02  0.15828000793E+02  0.17752125171E+03  0.18051703179E+03  0.00000000000E+00 0. -1.
</event>
<event>
 7    1  0.6294601E-006  0.4244639E+02  0.7818608E-02  0.1555997E+00
          2   -1    0    0  502    0  0.00000000000E+00  0.00000000000E+00  0.12268731611E+04  0.12268731611E+04  0.00000000000E+00 0. -1.
          1   -1    0    0  501    0 -0.00000000000E+00 -0.00000000000E+00 -0.15659598364E+02  0.15659598364E+02  0.00000000000E+00 0. -1.
         25    2    1    2    0    0  0.64046955314E+02  0.17277558930E+02  0.57772845678E+03  0.59480650981E+03  0.12499635120E+03 0.  0.
          2    1    1    2  501    0 -0.23515448364E+02 -0.14305317289E+02  0.22942724119E+02  0.35832764399E+02  0.00000000000E+00 0. -1.
          1    1    1    2  502    0 -0.40531506950E+02 -0.29722416414E+01  0.61054238185E+03  0.61189348526E+03  0.00000000000E+00 0. -1.
         22    1    3    3    0    0 -0.18176459887E+02 -0.36254486432E+02  0.11958163165E+03  0.12627168372E+03  0.00000000000E+00 0.  1.
         22    1    3    3    0    0  0.82223415201E+02  0.53532045362E+02  0.45814682513E+03  0.46853482609E+03  0.00000000000E+00 0.  1.
</event>
<event>
 7    1  0.6294601E-006  0.1600657E+03  0.7818608E-02  0.1338559E+00
          2   -1    0    0  502    0  0.00000000000E+00  0.00000000000E+00  0.85441671816E+03  0.85441671816E+03  0.00000000000E+00 0. -1.
          1   -1    0    0  501    0 -0.00000000000E+00 -0.00000000000E+00 -0.97369944465E+03  0.97369944465E+03  0.00000000000E+00 0. -1.
         25    2    1    2    0    0 -0.24736948831E+02 -0.12211105106E+03  0.15004670083E+03  0.23165010430E+03  0.12499893185E+03 0.  0.
          2    1    1    2  501    0  0.30641230031E+02  0.15842769997E+03 -0.92540065182E+03  0.93936392707E+03  0.00000000000E+00 0. -1.
          1    1    1    2  502    0 -0.59042812003E+01 -0.36316648907E+02  0.65607122450E+03  0.65710213144E+03  0.00000000000E+00 0. -1.
         22    1    3    3    0    0 -0.50820492479E+02 -0.13678397353E+03  0.13158056025E+03  0.19648415129E+03  0.00000000000E+00 0. -1.
         22    1    3    3    0    0  0.26083543648E+02  0.14672922474E+02  0.18466140580E+02  0.35165953010E+02  0.00000000000E+00 0. -1.
</event>
<event>
 7    1  0.6294601E-006  0.9037507E+02  0.7818608E-02  0.1351621E+00
          2   -1    0    0  502    0  0.00000000000E+00  0.00000000000E+00  0.48451104123E+03  0.48451104123E+03  0.00000000000E+00 0. -1.
          1   -1    0    0  501    0 -0.00000000000E+00 -0.00000000000E+00 -0.68590436679E+03  0.68590436679E+03  0.00000000000E+00 0. -1.
         25    2    1    2    0    0  0.11824860810E+02  0.76302973109E+02 -0.28041148769E+03  0.31657029236E+03  0.12499670610E+03 0.  0.
          2    1    1    2  501    0  0.45181753021E+02 -0.88249695494E+02 -0.37919668079E+03  0.39194326411E+03  0.00000000000E+00 0. -1.
          1    1    1    2  502    0 -0.57006613830E+02  0.11946722385E+02  0.45821484292E+03  0.46190185155E+03  0.00000000000E+00 0. -1.
         22    1    3    3    0    0 -0.42363107842E+02  0.79572306551E+02 -0.20198267603E+03  0.22118631579E+03  0.00000000000E+00 0. -1.
         22    1    3    3    0    0  0.54187968651E+02 -0.32693334420E+01 -0.78428811654E+02  0.95383976564E+02  0.00000000000E+00 0. -1.
</event>
<event>
 7    1  0.6294601E-006  0.6116524E+02  0.7818608E-02  0.1479584E+00
          2   -1    0    0  502    0  0.00000000000E+00  0.00000000000E+00  0.25977347520E+04  0.25977347520E+04  0.00000000000E+00 0. -1.
          1   -1    0    0  501    0 -0.00000000000E+00 -0.00000000000E+00 -0.26299771957E+02  0.26299771957E+02  0.00000000000E+00 0. -1.
         25    2    1    2    0    0  0.76959103469E+02  0.11822980132E+02  0.61456975066E+03  0.63196360406E+03  0.12497812595E+03 0.  0.
          2    1    1    2  501    0 -0.58517987361E+02  0.14204797456E+02  0.34418711122E+02  0.69359777904E+02  0.00000000000E+00 0. -1.
          1    1    1    2  502    0 -0.18441116108E+02 -0.26027777588E+02  0.19224465183E+04  0.19227111420E+04  0.00000000000E+00 0. -1.
         22    1    3    3    0    0  0.50294012166E+02 -0.31901629658E+02  0.52823163709E+03  0.53157865275E+03  0.00000000000E+00 0. -1.
         22    1    3    3    0    0  0.26665091303E+02  0.43724609790E+02  0.86338113574E+02  0.10038495132E+03  0.00000000000E+00 0. -1.
</event>
<event>
 7    1  0.6294601E-006  0.1646025E+03  0.7818608E-02  0.1326475E+00
          2   -1    0    0  502    0  0.00000000000E+00  0.00000000000E+00  0.85885272221E+02  0.85885272221E+02  0.00000000000E+00 0. -1.
          1   -1    0    0  501    0 -0.00000000000E+00 -0.00000000000E+00 -0.11855778369E+04  0.11855778369E+04  0.00000000000E+00 0. -1.
         25    2    1    2    0    0  0.20753630569E-01 -0.17984713614E+03 -0.75748767542E+03  0.78851540738E+03  0.12499590578E+03 0.  0.
          2    1    1    2  501    0  0.25796987931E+02  0.14958864998E+03 -0.39132927313E+03  0.41973902463E+03  0.00000000000E+00 0. -1.
          1    1    1    2  502    0 -0.25817741561E+02  0.30258486167E+02  0.49124383900E+02  0.63208677078E+02  0.00000000000E+00 0. -1.
         22    1    3    3    0    0 -0.44310383798E+02 -0.14726328474E+03 -0.43535927628E+03  0.46172241075E+03  0.00000000000E+00 0. -1.
         22    1    3    3    0    0  0.44331137429E+02 -0.32583851403E+02 -0.32212839914E+03  0.32679299663E+03  0.00000000000E+00 0. -1.
</event>
<event>
 7    1  0.6294601E-006  0.5634172E+02  0.7818608E-02  0.1545436E+00
          2   -1    0    0  502    0  0.00000000000E+00  0.00000000000E+00  0.16820492700E+04  0.16820492700E+04  0.00000000000E+00 0. -1.
          1   -1    0    0  501    0 -0.00000000000E+00 -0.00000000000E+00 -0.82844105709E+02  0.82844105709E+02  0.00000000000E+00 0. -1.
         25    2    1    2    0    0 -0.23802110198E+02 -0.33164349708E+02  0.66618438855E+03  0.67903869156E+03  0.12500196216E+03 0.  0.
          2    1    1    2  501    0  0.16562019226E+02  0.54140650271E+02 -0.65789868550E+02  0.86797565038E+02  0.00000000000E+00 0. -1.
          1    1    1    2  502    0  0.72400909711E+01 -0.20976300563E+02  0.99881064433E+03  0.99905711916E+03  0.00000000000E+00 0. -1.
         22    1    3    3    0    0 -0.54233079990E+02 -0.65583631001E+02  0.37937019697E+03  0.38879838731E+03  0.00000000000E+00 0.  1.
         22    1    3    3    0    0  0.30430969792E+02  0.32419281293E+02  0.28681419158E+03  0.29024030426E+03  0.00000000000E+00 0.  1.
</event>
<event>
 7    1  0.6294601E-006  0.8826238E+02  0.7818608E-02  0.1367353E+00
          2   -1    0    0  502    0  0.00000000000E+00  0.00000000000E+00  0.78726080767E+03  0.78726080767E+03  0.00000000000E+00 0. -1.
          1   -1    0    0  501    0 -0.00000000000E+00 -0.00000000000E+00 -0.30086652071E+03  0.30086652071E+03  0.00000000000E+00 0. -1.
         25    2    1    2    0    0 -0.11792646206E+03 -0.50994473481E+02  0.47268584232E+03  0.50553344493E+03  0.12500028654E+03 0.  0.
          2    1    1    2  501    0  0.48003240337E+02  0.20629563920E+02 -0.27708821831E+03  0.28197122321E+03  0.00000000000E+00 0. -1.
          1    1    1    2  502    0  0.69923221725E+02  0.30364909561E+02  0.29079666295E+03  0.30062266024E+03  0.00000000000E+00 0. -1.
         22    1    3    3    0    0  0.29698227413E+01 -0.46390711901E+01  0.23338158919E+03  0.23344658276E+03  0.00000000000E+00 0. -1.
         22    1    3    3    0    0 -0.12089628480E+03 -0.46355402291E+02  0.23930425313E+03  0.27208686217E+03  0.00000000000E+00 0. -1.
</event>
<event>
 7    1  0.6294601E-006  0.6211928E+02  0.7818608E-02  0.1439548E+00
          2   -1    0    0  502    0  0.00000000000E+00  0.00000000000E+00  0.83443792760E+03  0.83443792760E+03  0.00000000000E+00 0. -1.
          1   -1    0    0  501    0 -0.00000000000E+00 -0.00000000000E+00 -0.62251252335E+02  0.62251252335E+02  0.00000000000E+00 0. -1.
         25    2    1    2    0    0  0.15480766571E+02 -0.85396507846E+02  0.47900502780E+03  0.50259844939E+03  0.12500866763E+03 0.  0.
          2    1    1    2  501    0  0.18112613626E+02  0.37915121679E+02 -0.38715349835E+02  0.57135816588E+02  0.00000000000E+00 0. -1.
          1    1    1    2  502    0 -0.33593380197E+02  0.47481386166E+02  0.33189699730E+03  0.33695491396E+03  0.00000000000E+00 0. -1.
         22    1    3    3    0    0 -0.18851873314E+01 -0.11431300882E+03  0.31362785725E+03  0.33381649264E+03  0.00000000000E+00 0. -1.
         22    1    3    3    0    0  0.17365953902E+02  0.28916500972E+02  0.16537717055E+03  0.16878195675E+03  0.00000000000E+00 0. -1.
</event>
<event>
 7    1  0.6294601E-006  0.3191287E+02  0.7818608E-02  0.1616904E+00
          2   -1    0    0  502    0  0.00000000000E+00  0.00000000000E+00  0.86415866964E+03  0.86415866964E+03  0.00000000000E+00 0. -1.
          1   -1    0    0  501    0 -0.00000000000E+00 -0.00000000000E+00 -0.54533784931E+03  0.54533784931E+03  0.00000000000E+00 0. -1.
         25    2    1    2    0    0  0.11355687255E+02 -0.36488918318E+02 -0.34448462287E+03  0.36844933453E+03  0.12499945571E+03 0.  0.
          2    1    1    2  501    0  0.15768647230E+02  0.19670357557E+02 -0.18772913907E+03  0.18941436814E+03  0.00000000000E+00 0. -1.
          1    1    1    2  502    0 -0.27124334485E+02  0.16818560761E+02  0.85103458228E+03  0.85163281627E+03  0.00000000000E+00 0. -1.
         22    1    3    3    0    0 -0.22120402364E+02  0.24460909411E+02 -0.24418497736E+03  0.24640201188E+03  0.00000000000E+00 0.  1.
         22    1    3    3    0    0  0.33476089619E+02 -0.60949827729E+02 -0.10029964551E+03  0.12204732265E+03  0.00000000000E+00 0.  1.
</event>
<event>
 7    1  0.6294601E-006  0.1522926E+03  0.7818608E-02  0.1267402E+00
          2   -1    0    0  502    0  0.00000000000E+00  0.00000000000E+00  0.12060680363E+04  0.12060680363E+04  0.00000000000E+00 0. -1.
          1   -1    0    0  501    0 -0.00000000000E+00 -0.00000000000E+00 -0.20188954698E+04  0.20188954698E+04  0.00000000000E+00 0. -1.
         25    2    1    2    0    0  0.19986077464E+03 -0.72361247118E+02  0.23586277479E+01  0.24659820124E+03  0.12499852162E+03 0.  0.
          2    1    1    2  501    0 -0.73799636010E+02 -0.88236007264E+01 -0.18908454533E+04  0.18923056758E+04  0.00000000000E+00 0. -1.
          1    1    1    2  502    0 -0.12606113863E+03  0.81184847844E+02  0.10756593921E+04  0.10860596291E+04  0.00000000000E+00 0. -1.
         22    1    3    3    0    0  0.18756034281E+03 -0.51463344057E+02  0.43077220910E+02  0.19920593600E+03  0.00000000000E+00 0. -1.
         22    1    3    3    0    0  0.12300431826E+02 -0.20897903061E+02 -0.40718593162E+02  0.47392265239E+02  0.00000000000E+00 0. -1.
</event>
<event>
 7    1  0.6294601E-006  0.3641898E+03  0.7818608E-02  0.1246579E+00
          2   -1    0    0  502    0  0.00000000000E+00  0.00000000000E+00  0.10788487585E+04  0.10788487585E+04  0.00000000000E+00 0. -1.
          1   -1    0    0  501    0 -0.00000000000E+00 -0.00000000000E+00 -0.19656850222E+04  0.19656850222E+04  0.00000000000E+00 0. -1.
         25    2    1    2    0    0  0.20326556098E+03  0.27231898821E+03 -0.30764977009E+03  0.47513030752E+03  0.12500363383E+03 0.  0.
          2    1    1    2  501    0  0.38027574550E+02  0.33734262513E+01 -0.15403283266E+04  0.15408013597E+04  0.00000000000E+00 0. -1.
          1    1    1    2  502    0 -0.24129313553E+03 -0.27569241446E+03  0.96114183303E+03  0.10286021135E+04  0.00000000000E+00 0. -1.
         22    1    3    3    0    0  0.21911113023E+02  0.12765326323E+03 -0.12316031666E+03  0.17872861015E+03  0.00000000000E+00 0. -1.
         22    1    3    3    0    0  0.18135444796E+03  0.14466572498E+03 -0.18448945343E+03  0.29640169737E+03  0.00000000000E+00 0. -1.
</event>
<event>
 7    1  0.6294601E-006  0.5632654E+02  0.7818608E-02  0.1531921E+00
          2   -1    0    0  502    0  0.00000000000E+00  0.00000000000E+00  0.71341902460E+02  0.71341902460E+02  0.00000000000E+00 0. -1.
          1   -1    0    0  501    0 -0.00000000000E+00 -0.00000000000E+00 -0.78948501356E+03  0.78948501356E+03  0.00000000000E+00 0. -1.
         25    2    1    2    0    0  0.31815942804E+01 -0.33860109030E+02 -0.66981625423E+03  0.68222699649E+03  0.12499292295E+03 0.  0.
          2    1    1    2  501    0 -0.87002203051E+01 -0.22626425269E+02 -0.99360060791E+02  0.10227448672E+03  0.00000000000E+00 0. -1.
          1    1    1    2  502    0  0.55186260247E+01  0.56486534299E+02  0.51033203921E+02  0.76325432804E+02  0.00000000000E+00 0. -1.
         22    1    3    3    0    0  0.52972239550E+02 -0.53126403120E+02 -0.43460124926E+03  0.44102915860E+03  0.00000000000E+00 0.  1.
         22    1    3    3    0    0 -0.49790645269E+02  0.19266294091E+02 -0.23521500497E+03  0.24119783789E+03  0.00000000000E+00 0.  1.
</event>
<event>
 7    1  0.6294601E-006  0.1011016E+03  0.7818608E-02  0.1336707E+00
          2   -1    0    0  502    0  0.00000000000E+00  0.00000000000E+00  0.91664948645E+02  0.91664948645E+02  0.00000000000E+00 0. -1.
          1   -1    0    0  501    0 -0.00000000000E+00 -0.00000000000E+00 -0.10063785197E+04  0.10063785197E+04  0.00000000000E+00 0. -1.
         25    2    1    2    0    0 -0.15041212295E+01 -0.12440606242E+03 -0.46146737783E+03  0.49402073800E+03  0.12500087210E+03 0.  0.
          2    1    1    2  501    0 -0.44273640555E+02  0.86873036538E+02 -0.51165384286E+03  0.52086153115E+03  0.00000000000E+00 0. -1.
          1    1    1    2  502    0  0.45777761785E+02  0.37533025884E+02  0.58407649665E+02  0.83161199158E+02  0.00000000000E+00 0. -1.
         22    1    3    3    0    0  0.43439760582E+02 -0.12258391709E+03 -0.31466718579E+03  0.34048387236E+03  0.00000000000E+00 0.  1.
         22    1    3    3    0    0 -0.44943881812E+02 -0.18221453295E+01 -0.14680019205E+03  0.15353686564E+03  0.00000000000E+00 0.  1.
</event>
<event>
 7    1  0.6294601E-006  0.6415058E+02  0.7818608E-02  0.1432181E+00
          2   -1    0    0  502    0  0.00000000000E+00  0.00000000000E+00  0.15539970406E+03  0.15539970406E+03  0.00000000000E+00 0. -1.
          1   -1    0    0  501    0 -0.00000000000E+00 -0.00000000000E+00 -0.32803079229E+03  0.32803079229E+03  0.00000000000E+00 0. -1.
         25    2    1    2    0    0 -0.28378491482E+02 -0.40270877752E+01 -0.55465086657E+02  0.13972688896E+03  0.12500268576E+03 0.  0.
          2    1    1    2  501    0  0.67235409010E+02 -0.14401848979E+02 -0.22092875047E+03  0.23138177599E+03  0.00000000000E+00 0. -1.
          1    1    1    2  502    0 -0.38856917528E+02  0.18428936755E+02  0.10376274890E+03  0.11232183140E+03  0.00000000000E+00 0. -1.
         22    1    3    3    0    0  0.26637390422E+02 -0.15736294348E+02 -0.74239573820E+02  0.80428203071E+02  0.00000000000E+00 0.  1.
         22    1    3    3    0    0 -0.55015881904E+02  0.11709206572E+02  0.18774487163E+02  0.59298685892E+02  0.00000000000E+00 0.  1.
</event>
<event>
 7    1  0.6294601E-006  0.8875475E+02  0.7818608E-02  0.1340224E+00
          2   -1    0    0  502    0  0.00000000000E+00  0.00000000000E+00  0.21076550720E+03  0.21076550720E+03  0.00000000000E+00 0. -1.
          1   -1    0    0  501    0 -0.00000000000E+00 -0.00000000000E+00 -0.19989697868E+03  0.19989697868E+03  0.00000000000E+00 0. -1.
         25    2    1    2    0    0 -0.35858699211E+02 -0.35445482190E+02 -0.39332277398E+02  0.14040614561E+03  0.12499851664E+03 0.  0.
          2    1    1    2  501    0 -0.60769056064E+02  0.24185008965E+02 -0.82774136048E+02  0.10549573656E+03  0.00000000000E+00 0. -1.
          1    1    1    2  502    0  0.96627755275E+02  0.11260473225E+02  0.13297494196E+03  0.16476060372E+03  0.00000000000E+00 0. -1.
         22    1    3    3    0    0 -0.67232767592E+02 -0.48122466215E+02 -0.58717041604E+02  0.10140861782E+03  0.00000000000E+00 0.  1.
         22    1    3    3    0    0  0.31374068381E+02  0.12676984024E+02  0.19384764205E+02  0.38997527794E+02  0.00000000000E+00 0.  1.
</event>
<event>
 7    1  0.6294601E-006  0.6603294E+02  0.7818608E-02  0.1483550E+00
          2   -1    0    0  502    0  0.00000000000E+00  0.00000000000E+00  0.87499899500E+03  0.87499899500E+03  0.00000000000E+00 0. -1.
          1   -1    0    0  501    0 -0.00000000000E+00 -0.00000000000E+00 -0.12055728349E+04  0.12055728349E+04  0.00000000000E+00 0. -1.
         25    2    1    2    0    0  0.48874320336E+02 -0.97056816004E+01  0.18122134988E+03  0.22571923856E+03  0.12500039024E+03 0.  0.
          2    1    1    2  501    0 -0.54152125735E+02  0.37949379392E+02 -0.11820920848E+04  0.11839401611E+04  0.00000000000E+00 0. -1.
          1    1    1    2  502    0  0.52778053986E+01 -0.28243697791E+02  0.67029689498E+03  0.67091243029E+03  0.00000000000E+00 0. -1.
         22    1    3    3    0    0  0.44678779840E+02 -0.64181441689E+02  0.88526605668E+02  0.11812032313E+03  0.00000000000E+00 0. -1.
         22    1    3    3    0    0  0.41955404967E+01  0.54475760088E+02  0.92694744207E+02  0.10759891543E+03  0.00000000000E+00 0. -1.
</event>
<event>
 7    1  0.6294601E-006  0.5388566E+02  0.7818608E-02  0.1448964E+00
          2   -1    0    0  502    0  0.00000000000E+00  0.00000000000E+00  0.47929886325E+03  0.47929886325E+03  0.00000000000E+00 0. -1.
          1   -1    0    0  501    0 -0.00000000000E+00 -0.00000000000E+00 -0.13853577692E+03  0.13853577692E+03  0.00000000000E+00 0. -1.
         25    2    1    2    0    0  0.15037314827E+01 -0.52830018914E+02 -0.56579168539E+02  0.14703580934E+03  0.12500021924E+03 0.  0.
          2    1    1    2  501    0 -0.41957406821E+02  0.16724855467E+02 -0.20393684246E+02  0.49558522321E+02  0.00000000000E+00 0. -1.
          1    1    1    2  502    0  0.40453675338E+02  0.36105163447E+02  0.41773593912E+03  0.42124030850E+03  0.00000000000E+00 0. -1.
         22    1    3    3    0    0 -0.20126348650E+02 -0.88513922570E+02 -0.23442945894E+02  0.93751565911E+02  0.00000000000E+00 0. -1.
         22    1    3    3    0    0  0.21630080132E+02  0.35683903656E+02 -0.33136222644E+02  0.53284243429E+02  0.00000000000E+00 0. -1.
</event>
<event>
 7    1  0.6294601E-006  0.9752816E+02  0.7818608E-02  0.1341939E+00
          2   -1    0    0  502    0  0.00000000000E+00  0.00000000000E+00  0.12602386544E+04  0.12602386544E+04  0.00000000000E+00 0. -1.
          1   -1    0    0  501    0 -0.00000000000E+00 -0.00000000000E+00 -0.24070535322E+03  0.24070535322E+03  0.00000000000E+00 0. -1.
         25    2    1    2    0    0  0.88883067788E+02  0.46782116294E+02  0.20477651682E+03  0.26008820202E+03  0.12499473927E+03 0.  0.
          2    1    1    2  501    0 -0.42570502490E+02  0.40335691788E+02 -0.20659107982E+03  0.21475355638E+03  0.00000000000E+00 0. -1.
          1    1    1    2  502    0 -0.46312565298E+02 -0.87117808082E+02  0.10213478641E+04  0.10261022492E+04  0.00000000000E+00 0. -1.
         22    1    3    3    0    0 -0.26270249347E+02  0.45938247272E+01  0.83324471874E+02  0.87488266867E+02  0.00000000000E+00 0. -1.
         22    1    3    3    0    0  0.11515331714E+03  0.42188291567E+02  0.12145204495E+03  0.17259993515E+03  0.00000000000E+00 0. -1.
</event>
<event>
 7    1  0.7540848E-006  0.9078518E+02  0.7818608E-02  0.1388441E+00
          2   -1    0    0  502    0  0.00000000000E+00  0.00000000000E+00  0.17989515682E+04  0.17989515682E+04  0.00000000000E+00 0. -1.
          1   -1    0    0  501    0 -0.00000000000E+00 -0.00000000000E+00 -0.31273433078E+04  0.31273433078E+04  0.00000000000E+00 0. -1.
         25    2    1    2    0    0  0.22225971610E+02  0.61726314202E+02 -0.10117905810E+04  0.10215917601E+04  0.12500165067E+03 0.  0.
          2    1    1    2  501    0  0.13483345851E+01 -0.97385334445E+02 -0.21092736535E+04  0.21115210316E+04  0.00000000000E+00 0. -1.
          1    1    1    2  502    0 -0.23574306195E+02  0.35659020243E+02  0.17926724950E+04  0.17931820844E+04  0.00000000000E+00 0. -1.
         22    1    3    3    0    0  0.12266103065E+01 -0.30315777419E+02 -0.51609937007E+03  0.51699043581E+03  0.00000000000E+00 0. -1.
         22    1    3    3    0    0  0.20999361304E+02  0.92042091621E+02 -0.49569121097E+03  0.50460132425E+03  0.00000000000E+00 0. -1.
</event>
<event>
 7    1  0.6294601E-006  0.6168207E+02  0.7818608E-02  0.1484201E+00
          2   -1    0    0  502    0  0.00000000000E+00  0.00000000000E+00  0.69644274850E+03  0.69644274850E+03  0.00000000000E+00 0. -1.
          1   -1    0    0  501    0 -0.00000000000E+00 -0.00000000000E+00 -0.57010611755E+03  0.57010611755E+03  0.00000000000E+00 0. -1.
         25    2    1    2    0    0  0.51772099345E+02  0.40816585189E+02 -0.16896800216E+03  0.22027661475E+03  0.12500102942E+03 0.  0.
          2    1    1    2  501    0 -0.26436651948E+02  0.15447364267E+02 -0.37343686036E+03  0.37469001361E+03  0.00000000000E+00 0. -1.
          1    1    1    2  502    0 -0.25335447397E+02 -0.56263949456E+02  0.66874149346E+03  0.67158223769E+03  0.00000000000E+00 0. -1.
         22    1    3    3    0    0  0.92314987731E+02  0.35722569211E+02 -0.13332906678E+03  0.16605661372E+03  0.00000000000E+00 0. -1.
         22    1    3    3    0    0 -0.40542888385E+02  0.50940159780E+01 -0.35638935374E+02  0.54220001033E+02  0.00000000000E+00 0. -1.
</event>
<event>
 7    1  0.6294601E-006  0.5638042E+02  0.7818608E-02  0.1478364E+00
          2   -1    0    0  502    0  0.00000000000E+00  0.00000000000E+00  0.18752873346E+03  0.18752873346E+03  0.00000000000E+00 0. -1.
          1   -1    0    0  501    0 -0.00000000000E+00 -0.00000000000E+00 -0.42031705644E+03  0.42031705644E+03  0.00000000000E+00 0. -1.
         25    2    1    2    0    0  0.32042071762E+02 -0.24383559523E+02 -0.63383860325E+02  0.14582018196E+03  0.12499903751E+03 0.  0.
          2    1    1    2  501    0 -0.16343718186E+02  0.55559819181E+02 -0.31092056779E+03  0.31626825655E+03  0.00000000000E+00 0. -1.
          1    1    1    2  502    0 -0.15698353576E+02 -0.31176259657E+02  0.14151610514E+03  0.14575735139E+03  0.00000000000E+00 0. -1.
         22    1    3    3    0    0 -0.30600700287E+02 -0.13232079630E+02 -0.74138889833E+02  0.81290010303E+02  0.00000000000E+00 0. -1.
         22    1    3    3    0    0  0.62642772049E+02 -0.11151479894E+02  0.10755029508E+02  0.64530171652E+02  0.00000000000E+00 0. -1.
</event>
<event>
 7    1  0.6294601E-006  0.6221748E+02  0.7818608E-02  0.1484510E+00
          2   -1    0    0  502    0  0.00000000000E+00  0.00000000000E+00  0.47956950714E+02  0.47956950714E+02  0.00000000000E+00 0. -1.
          1   -1    0    0  501    0 -0.00000000000E+00 -0.00000000000E+00 -0.88438750204E+03  0.88438750204E+03  0.00000000000E+00 0. -1.
         25    2    1    2    0    0 -0.59526070395E+02  0.24008328259E+02 -0.19106056082E+03  0.23716979943E+03  0.12500249189E+03 0.  0.
          2    1    1    2  501    0 -0.31829578596E+01 -0.30122056561E+02 -0.62946297386E+03  0.63019132410E+03  0.00000000000E+00 0. -1.
          1    1    1    2  502    0  0.62709028254E+02  0.61137283023E+01 -0.15907016646E+02  0.64983329223E+02  0.00000000000E+00 0. -1.
         22    1    3    3    0    0  0.24104652487E+02  0.47829534806E+02 -0.73225508582E+02  0.90723060896E+02  0.00000000000E+00 0. -1.
         22    1    3    3    0    0 -0.83630722882E+02 -0.23821206547E+02 -0.11783505224E+03  0.14644673854E+03  0.00000000000E+00 0. -1.
</event>
<event>
 7    1  0.6294601E-006  0.8469738E+02  0.7818608E-02  0.1346557E+00
          2   -1    0    0  502    0  0.00000000000E+00  0.00000000000E+00  0.11443761461E+04  0.11443761461E+04  0.00000000000E+00 0. -1.
          1   -1    0    0  501    0 -0.00000000000E+00 -0.00000000000E+00 -0.72966462102E+03  0.72966462102E+03  0.00000000000E+00 0. -1.
         25    2    1    2    0    0  0.21480527654E+02 -0.84003876572E+02 -0.46009826192E+03  0.48459651814E+03  0.12500124166E+03 0.  0.
          2    1    1    2  501    0 -0.64013736839E+02  0.10671994920E+02 -0.25160709014E+03  0.25984183226E+03  0.00000000000E+00 0. -1.
          1    1    1    2  502    0  0.42533209186E+02  0.73331881652E+02  0.11264168771E+04  0.11296024167E+04  0.00000000000E+00 0. -1.
         22    1    3    3    0    0  0.60694776927E+02 -0.47059706586E+02 -0.13718983473E+03  0.15722443412E+03  0.00000000000E+00 0. -1.
         22    1    3    3    0    0 -0.39214249273E+02 -0.36944169986E+02 -0.32290842719E+03  0.32737208402E+03  0.00000000000E+00 0. -1.
</event>
<event>
 7    1  0.6294601E-006  0.6991712E+02  0.7818608E-02  0.1364191E+00
          2   -1    0    0  502    0  0.00000000000E+00  0.00000000000E+00  0.38160930411E+03  0.38160930411E+03  0.00000000000E+00 0. -1.
          1   -1    0    0  501    0 -0.00000000000E+00 -0.00000000000E+00 -0.15486900762E+04  0.15486900762E+04  0.00000000000E+00 0. -1.
         25    2    1    2    0    0  0.29647967243E+02 -0.99880574657E+02 -0.25366362090E+03  0.30137354073E+03  0.12500258927E+03 0.  0.
          2    1    1    2  501    0 -0.57927518087E+02  0.38349734497E+02 -0.12670068028E+04  0.12689099802E+04  0.00000000000E+00 0. -1.
          1    1    1    2  502    0  0.28279550844E+02  0.61530840160E+02  0.35358965162E+03  0.36001585940E+03  0.00000000000E+00 0. -1.
         22    1    3    3    0    0  0.58941830548E+02 -0.10859474659E+02 -0.53424511651E+02  0.80288517382E+02  0.00000000000E+00 0.  1.
         22    1    3    3    0    0 -0.29293863305E+02 -0.89021099999E+02 -0.20023910925E+03  0.22108502334E+03  0.00000000000E+00 0.  1.
</event>
<event>
 7    1  0.6294601E-006  0.7307422E+02  0.7818608E-02  0.1371590E+00
          2   -1    0    0  502    0  0.00000000000E+00  0.00000000000E+00  0.58798210324E+03  0.58798210324E+03  0.00000000000E+00 0. -1.
          1   -1    0    0  501    0 -0.00000000000E+00 -0.00000000000E+00 -0.71629653729E+03  0.71629653729E+03  0.00000000000E+00 0. -1.
         25    2    1    2    0    0  0.41318011540E+02 -0.82893145167E+02 -0.23862520463E+03  0.28486045115E+03  0.12500014701E+03 0.  0.
          2    1    1    2  501    0 -0.59709325192E+02  0.12142899493E+02 -0.45012734493E+03  0.45423262782E+03  0.00000000000E+00 0. -1.
          1    1    1    2  502    0  0.18391313652E+02  0.70750245674E+02  0.56043811551E+03  0.56518556156E+03  0.00000000000E+00 0. -1.
         22    1    3    3    0    0  0.27255531458E+02 -0.63192280616E+02 -0.30402980925E+02  0.75236092227E+02  0.00000000000E+00 0.  1.
         22    1    3    3    0    0  0.14062480082E+02 -0.19700864551E+02 -0.20822222371E+03  0.20962435893E+03  0.00000000000E+00 0.  1.
</event>
<event>
 7    1  0.6294601E-006  0.7715115E+02  0.7818608E-02  0.1391222E+00
          2   -1    0    0  502    0  0.00000000000E+00  0.00000000000E+00  0.52172930995E+02  0.52172930995E+02  0.00000000000E+00 0. -1.
          1   -1    0    0  501    0 -0.00000000000E+00 -0.00000000000E+00 -0.10938622333E+04  0.10938622333E+04  0.00000000000E+00 0. -1.
         25    2    1    2    0    0  0.64282567184E+01 -0.63724667350E+02 -0.25210482204E+03  0.28859229183E+03  0.12500605542E+03 0.  0.
          2    1    1    2  501    0  0.42604808296E+02  0.67646535083E+02 -0.80259092594E+03  0.80656271784E+03  0.00000000000E+00 0. -1.
          1    1    1    2  502    0 -0.49033065014E+02 -0.39218677326E+01  0.13006445639E+02  0.50880154671E+02  0.00000000000E+00 0. -1.
         22    1    3    3    0    0  0.64632244179E+02 -0.42730807120E+02 -0.12200591555E+03  0.14452920913E+03  0.00000000000E+00 0.  1.
         22    1    3    3    0    0 -0.58203987461E+02 -0.20993860230E+02 -0.13009890649E+03  0.14406308269E+03  0.00000000000E+00 0.  1.
</event>
<event>
 7    1  0.6294601E-006  0.2615035E+03  0.7818608E-02  0.1280449E+00
          2   -1    0    0  502    0  0.00000000000E+00  0.00000000000E+00  0.13889466093E+04  0.13889466093E+04  0.00000000000E+00 0. -1.
          1   -1    0    0  501    0 -0.00000000000E+00 -0.00000000000E+00 -0.15927690644E+04  0.15927690644E+04  0.00000000000E+00 0. -1.
         25    2    1    2    0    0 -0.18074250211E+03 -0.20238987492E+03  0.11787999785E+02  0.29898697178E+03  0.12499895527E+03 0.  0.
          2    1    1    2  501    0  0.19896159373E+03  0.16883199077E+03 -0.14371224432E+04  0.14606200306E+04  0.00000000000E+00 0. -1.
          1    1    1    2  502    0 -0.18219091627E+02  0.33557884156E+02  0.12215119883E+04  0.12221086713E+04  0.00000000000E+00 0. -1.
         22    1    3    3    0    0 -0.20000092399E+03 -0.18386449133E+03  0.65279090757E+01  0.27175197215E+03  0.00000000000E+00 0.  1.
         22    1    3    3    0    0  0.19258421887E+02 -0.18525383595E+02  0.52600907095E+01  0.27234999636E+02  0.00000000000E+00 0.  1.
</event>
<event>
 7    1  0.6294601E-006  0.2892470E+03  0.7818608E-02  0.1133746E+00
          2   -1    0    0  502    0  0.00000000000E+00  0.00000000000E+00  0.28827121167E+04  0.28827121167E+04  0.00000000000E+00 0. -1.
          1   -1    0    0  501    0 -0.00000000000E+00 -0.00000000000E+00 -0.34502876107E+03  0.34502876107E+03  0.00000000000E+00 0. -1.
         25    2    1    2    0    0 -0.33331216680E+03 -0.18831388782E+03  0.20818302281E+04  0.21204242377E+04  0.12499091404E+03 0.  0.
          2    1    1    2  501    0  0.14489235403E+03  0.84257760791E+02 -0.28784949407E+03  0.33309232316E+03  0.00000000000E+00 0. -1.
          1    1    1    2  502    0  0.18841981277E+03  0.10405612703E+03  0.74370262167E+03  0.77422431691E+03  0.00000000000E+00 0. -1.
         22    1    3    3    0    0  0.82689501924E+01 -0.11859074131E+02  0.15088127813E+03  0.15157233674E+03  0.00000000000E+00 0. -1.
         22    1    3    3    0    0 -0.34158111699E+03 -0.17645481369E+03  0.19309489499E+04  0.19688519010E+04  0.00000000000E+00 0. -1.
</event>
<event>
 7    1  0.6294601E-006  0.5444800E+02  0.7818608E-02  0.1459401E+00
          2   -1    0    0  502    0  0.00000000000E+00  0.00000000000E+00  0.38400098877E+03  0.38400098877E+03  0.00000000000E+00 0. -1.
          1   -1    0    0  501    0 -0.00000000000E+00 -0.00000000000E+00 -0.98966678171E+03  0.98966678171E+03  0.00000000000E+00 0. -1.
         25    2    1    2    0    0  0.23488627273E+02  0.79364184430E+02  0.86253624449E+02  0.17296037979E+03  0.12500086346E+03 0.  0.
          2    1    1    2  501    0 -0.36652522724E+02 -0.40100280269E+02 -0.94384177621E+03  0.94540400804E+03  0.00000000000E+00 0. -1.
          1    1    1    2  502    0  0.13163895451E+02 -0.39263904162E+02  0.25192235883E+03  0.25530338265E+03  0.00000000000E+00 0. -1.
         22    1    3    3    0    0  0.10518530960E+02 -0.34113963504E+02  0.20078956393E+02  0.40958106516E+02  0.00000000000E+00 0. -1.
         22    1    3    3    0    0  0.12970096314E+02  0.11347814793E+03  0.66174668056E+02  0.13200227327E+03  0.00000000000E+00 0. -1.
</event>
<event>
 7    1  0.6294601E-006  0.3811477E+02  0.7818608E-02  0.1540175E+00
          2   -1    0    0  502    0  0.00000000000E+00  0.00000000000E+00  0.28624088607E+03  0.28624088607E+03  0.00000000000E+00 0. -1.
          1   -1    0    0  501    0 -0.00000000000E+00 -0.00000000000E+00 -0.19242886033E+03  0.19242886033E+03  0.00000000000E+00 0. -1.
         25    2    1    2    0    0 -0.56042578631E+02  0.26388177963E+02  0.69345347488E+02  0.15579130457E+03  0.12500018722E+03 0.  0.
          2    1    1    2  501    0  0.18773992537E+02 -0.28275731159E+02 -0.14522176144E+03  0.14913530690E+03  0.00000000000E+00 0. -1.
          1    1    1    2  502    0  0.37268586093E+02  0.18875531965E+01  0.16968843970E+03  0.17374313493E+03  0.00000000000E+00 0. -1.
         22    1    3    3    0    0 -0.33834604942E+02  0.25554867774E+02 -0.31312321487E+02  0.52709517503E+02  0.00000000000E+00 0.  1.
         22    1    3    3    0    0 -0.22207973689E+02  0.83331018849E+00  0.10065766898E+03  0.10308178707E+03  0.00000000000E+00 0.  1.
</event>
<event>
 7    1  0.6294601E-006  0.3428359E+02  0.7818608E-02  0.1564266E+00
          2   -1    0    0  502    0  0.00000000000E+00  0.00000000000E+00  0.28781171953E+02  0.28781171953E+02  0.00000000000E+00 0. -1.
          1   -1    0    0  501    0 -0.00000000000E+00 -0.00000000000E+00 -0.54378330405E+03  0.54378330405E+03  0.00000000000E+00 0. -1.
         25    2    1    2    0    0  0.27740537505E+01  0.11948794210E+02 -0.19835942591E+03  0.23477687596E+03  0.12499300212E+03 0.  0.
          2    1    1    2  501    0  0.27575661255E+02 -0.23115015568E+02 -0.29859202626E+03  0.30075225549E+03  0.00000000000E+00 0. -1.
          1    1    1    2  502    0 -0.30349715005E+02  0.11166221357E+02 -0.18050679920E+02  0.37035344549E+02  0.00000000000E+00 0. -1.
         22    1    3    3    0    0 -0.25306429425E+02  0.88556637161E+01  0.68173927197E+01  0.27664327094E+02  0.00000000000E+00 0.  1.
         22    1    3    3    0    0  0.28080483175E+02  0.30931304942E+01 -0.20517681863E+03  0.20711254886E+03  0.00000000000E+00 0.  1.
</event>
<event>
 7    1  0.6294601E-006  0.1176331E+03  0.7818608E-02  0.1274582E+00
          2   -1    0    0  502    0  0.00000000000E+00  0.00000000000E+00  0.35939778784E+03  0.35939778784E+03  0.00000000000E+00 0. -1.
          1   -1    0    0  501    0 -0.00000000000E+00 -0.00000000000E+00 -0.44466514046E+03  0.44466514046E+03  0.00000000000E+00 0. -1.
         25    2    1    2    0    0  0.10429199709E+03 -0.45129727191E+02 -0.34414633794E+03  0.38337339700E+03  0.12499978669E+03 0.  0.
          2    1    1    2  501    0 -0.82419615875E+02  0.13220453355E+03  0.10000064068E+02  0.15611224504E+03  0.00000000000E+00 0. -1.
          1    1    1    2  502    0 -0.21872381218E+02 -0.87074806355E+02  0.24887892126E+03  0.26457728627E+03  0.00000000000E+00 0. -1.
         22    1    3    3    0    0  0.12298533517E+03 -0.40416787447E+02 -0.33978108147E+03  0.36360705810E+03  0.00000000000E+00 0.  1.
         22    1    3    3    0    0 -0.18693338073E+02 -0.47129397442E+01 -0.43652564698E+01  0.19766338897E+02  0.00000000000E+00 0.  1.
</event>
<event>
 7    1  0.6294601E-006  0.6823987E+02  0.7818608E-02  0.1422238E+00
          2   -1    0    0  502    0  0.00000000000E+00  0.00000000000E+00  0.65368716521E+03  0.65368716521E+03  0.00000000000E+00 0. -1.
          1   -1    0    0  501    0 -0.00000000000E+00 -0.00000000000E+00 -0.48135865582E+03  0.48135865582E+03  0.00000000000E+00 0. -1.
         25    2    1    2    0    0  0.84494028985E+02 -0.17631630515E+02  0.12335827948E+02  0.15241926045E+03  0.12501737070E+03 0.  0.
          2    1    1    2  501    0 -0.50753305745E+02  0.45256406445E+02 -0.40766447479E+03  0.41329694455E+03  0.00000000000E+00 0. -1.
          1    1    1    2  502    0 -0.33740723241E+02 -0.27624775930E+02  0.56765715623E+03  0.56932961602E+03  0.00000000000E+00 0. -1.
         22    1    3    3    0    0  0.10263749433E+03  0.23619021758E+02 -0.13295774687E+01  0.10532844444E+03  0.00000000000E+00 0.  1.
         22    1    3    3    0    0 -0.18143465347E+02 -0.41250652273E+02  0.13665405416E+02  0.47090816015E+02  0.00000000000E+00 0.  1.
</event>
<event>
 7    1  0.6294601E-006  0.1365526E+03  0.7818608E-02  0.1352913E+00
          2   -1    0    0  502    0  0.00000000000E+00  0.00000000000E+00  0.12918252372E+04  0.12918252372E+04  0.00000000000E+00 0. -1.
          1   -1    0    0  501    0 -0.00000000000E+00 -0.00000000000E+00 -0.28815764757E+03  0.28815764757E+03  0.00000000000E+00 0. -1.
         25    2    1    2    0    0  0.17211443659E+03  0.13332351878E+02  0.10271872992E+04  0.10490662032E+04  0.12500008027E+03 0.  0.
          2    1    1    2  501    0 -0.13453277983E+03 -0.19761105689E+02 -0.25891732555E+03  0.29245128076E+03  0.00000000000E+00 0. -1.
          1    1    1    2  502    0 -0.37581656754E+02  0.64287538118E+01  0.23539761593E+03  0.23846540081E+03  0.00000000000E+00 0. -1.
         22    1    3    3    0    0  0.23779974875E+01 -0.21591178040E+02  0.30607541422E+02  0.37532058737E+02  0.00000000000E+00 0. -1.
         22    1    3    3    0    0  0.16973643910E+03  0.34923529917E+02  0.99657975780E+03  0.10115341444E+04  0.00000000000E+00 0. -1.
</event>
<event>
 7    1  0.6294601E-006  0.3584634E+02  0.7818608E-02  0.1577681E+00
          2   -1    0    0  502    0  0.00000000000E+00  0.00000000000E+00  0.16556882442E+04  0.16556882442E+04  0.00000000000E+00 0. -1.
          1   -1    0    0  501    0 -0.00000000000E+00 -0.00000000000E+00 -0.61095710292E+03  0.61095710292E+03  0.00000000000E+00 0. -1.
         25    2    1    2    0    0  0.86314178576E+01 -0.37550367534E+02 -0.37316359269E+03  0.39542491736E+03  0.12500106753E+03 0.  0.
          2    1    1    2  501    0  0.21681356354E+02  0.18408641885E+02 -0.22557433965E+03  0.22736037917E+03  0.00000000000E+00 0. -1.
          1    1    1    2  502    0 -0.30312774212E+02  0.19141725649E+02  0.16434690736E+04  0.16438600506E+04  0.00000000000E+00 0. -1.
         22    1    3    3    0    0  0.47815936031E+02 -0.71451449739E+01 -0.54205455726E+02  0.72633657940E+02  0.00000000000E+00 0. -1.
         22    1    3    3    0    0 -0.39184518173E+02 -0.30405222560E+02 -0.31895813697E+03  0.32279125942E+03  0.00000000000E+00 0. -1.
</event>
<event>
 7    1  0.6294601E-006  0.9034853E+02  0.7818608E-02  0.1461955E+00
          2   -1    0    0  502    0  0.00000000000E+00  0.00000000000E+00  0.25795169233E+02  0.25795169233E+02  0.00000000000E+00 0. -1.
          1   -1    0    0  501    0 -0.00000000000E+00 -0.00000000000E+00 -0.28369218417E+04  0.28369218417E+04  0.00000000000E+00 0. -1.
         25    2    1    2    0    0  0.67981186276E+02 -0.69637295720E+02 -0.10872102954E+04  0.10986903318E+04  0.12499369658E+03 0.  0.
          2    1    1    2  501    0  0.88492417597E+01  0.22844189100E+02 -0.16425404372E+04  0.16427231215E+04  0.00000000000E+00 0. -1.
          1    1    1    2  502    0 -0.76830428036E+02  0.46793106619E+02 -0.81375939862E+02  0.12130355761E+03  0.00000000000E+00 0. -1.
         22    1    3    3    0    0  0.80664904363E+02 -0.32184184856E+02 -0.35707201251E+03  0.36748206850E+03  0.00000000000E+00 0. -1.
         22    1    3    3    0    0 -0.12683718087E+02 -0.37453110864E+02 -0.73013828290E+03  0.73120826334E+03  0.00000000000E+00 0. -1.
</event>
<event>
 7    1  0.6294601E-006  0.2343391E+03  0.7818608E-02  0.1294428E+00
          2   -1    0    0  502    0  0.00000000000E+00  0.00000000000E+00  0.71561045877E+03  0.71561045877E+03  0.00000000000E+00 0. -1.
          1   -1    0    0  501    0 -0.00000000000E+00 -0.00000000000E+00 -0.17012495203E+03  0.17012495203E+03  0.00000000000E+00 0. -1.
         25    2    1    2    0    0 -0.12667235756E+03  0.18766350021E+03  0.11909487174E+03  0.28473162009E+03  0.12500012610E+03 0.  0.
          2    1    1    2  501    0 -0.34897949126E+02 -0.13345153690E+02 -0.53630495841E+02  0.65361992506E+02  0.00000000000E+00 0. -1.
          1    1    1    2  502    0  0.16157030668E+03 -0.17431834652E+03  0.48002113084E+03  0.53564179821E+03  0.00000000000E+00 0. -1.
         22    1    3    3    0    0 -0.61010983160E+02  0.82566324444E+02 -0.13146757155E+02  0.10350060494E+03  0.00000000000E+00 0.  1.
         22    1    3    3    0    0 -0.65661374395E+02  0.10509717577E+03  0.13224162889E+03  0.18123101516E+03  0.00000000000E+00 0.  1.
</event>
<event>
 7    1  0.6294601E-006  0.2986971E+02  0.7818608E-02  0.1605733E+00
          2   -1    0    0  502    0  0.00000000000E+00  0.00000000000E+00  0.34608768103E+03  0.34608768103E+03  0.00000000000E+00 0. -1.
          1   -1    0    0  501    0 -0.00000000000E+00 -0.00000000000E+00 -0.20792678311E+03  0.20792678311E+03  0.00000000000E+00 0. -1.
         25    2    1    2    0    0  0.44524413648E+02 -0.15199631712E+02 -0.53512569260E+02  0.14387910282E+03  0.12499659574E+03 0.  0.
          2    1    1    2  501    0 -0.27295470835E+02 -0.91233246304E+01 -0.10657940777E+03  0.11039677505E+03  0.00000000000E+00 0. -1.
          1    1    1    2  502    0 -0.17228942813E+02  0.24322956342E+02  0.29825287495E+03  0.29973858626E+03  0.00000000000E+00 0. -1.
         22    1    3    3    0    0  0.78176861075E+02  0.17287074022E+02 -0.11273416793E+02  0.80855144932E+02  0.00000000000E+00 0. -1.
         22    1    3    3    0    0 -0.33652447427E+02 -0.32486705734E+02 -0.42239152467E+02  0.63023957892E+02  0.00000000000E+00 0. -1.
</event>
<event>
 7    1  0.6294601E-006  0.9930018E+02  0.7818608E-02  0.1354131E+00
          2   -1    0    0  502    0  0.00000000000E+00  0.00000000000E+00  0.24624881926E+03  0.24624881926E+03  0.00000000000E+00 0. -1.
          1   -1    0    0  501    0 -0.00000000000E+00 -0.00000000000E+00 -0.49021789213E+03  0.49021789213E+03  0.00000000000E+00 0. -1.
         25    2    1    2    0    0 -0.14136864530E+03  0.19149206045E+01 -0.15606070865E+03  0.24488598875E+03  0.12500176762E+03 0.  0.
          2    1    1    2  501    0  0.91571106691E+02  0.12677967125E+02 -0.27881823015E+03  0.29374411295E+03  0.00000000000E+00 0. -1.
          1    1    1    2  502    0  0.49797538613E+02 -0.14592887729E+02  0.19090986592E+03  0.19783660968E+03  0.00000000000E+00 0. -1.
         22    1    3    3    0    0 -0.81011512193E+02  0.61229504975E+02 -0.64970431588E+02  0.12055320140E+03  0.00000000000E+00 0.  1.
         22    1    3    3    0    0 -0.60357133111E+02 -0.59314584371E+02 -0.91090277059E+02  0.12433278735E+03  0.00000000000E+00 0.  1.
</event>
<event>
 7    1  0.6294601E-006  0.5334529E+02  0.7818608E-02  0.1485629E+00
          2   -1    0    0  502    0  0.00000000000E+00  0.00000000000E+00  0.75927668269E+02  0.75927668269E+02  0.00000000000E+00 0. -1.
          1   -1    0    0  501    0 -0.00000000000E+00 -0.00000000000E+00 -0.29759540380E+03  0.29759540380E+03  0.00000000000E+00 0. -1.
         25    2    1    2    0    0  0.87369362116E+01  0.33755412051E+02 -0.20314152111E+02  0.13135213443E+03  0.12499982618E+03 0.  0.
          2    1    1    2  501    0  0.40263206830E+00  0.35048952887E+02 -0.15450518209E+03  0.15843119170E+03  0.00000000000E+00 0. -1.
          1    1    1    2  502    0 -0.91395682799E+01 -0.68804364938E+02 -0.46848401324E+02  0.83739745937E+02  0.00000000000E+00 0. -1.
         22    1    3    3    0    0  0.13027032789E+01  0.76173802647E+02  0.12508511366E+02  0.77204974595E+02  0.00000000000E+00 0.  1.
         22    1    3    3    0    0  0.74342329327E+01 -0.42418390596E+02 -0.32822663477E+02  0.54147159831E+02  0.00000000000E+00 0.  1.
</event>
<event>
 7    1  0.6294601E-006  0.8446175E+02  0.7818608E-02  0.1317329E+00
          2   -1    0    0  502    0  0.00000000000E+00  0.00000000000E+00  0.22010259040E+04  0.22010259040E+04  0.00000000000E+00 0. -1.
          1   -1    0    0  501    0 -0.00000000000E+00 -0.00000000000E+00 -0.55861757616E+03  0.55861757616E+03  0.00000000000E+00 0. -1.
         25    2    1    2    0    0  0.20793861447E+02 -0.20173488523E+02  0.17836911658E+03  0.21972922689E+03  0.12500414829E+03 0.  0.
          2    1    1    2  501    0 -0.62356779045E+02 -0.56968588924E+02 -0.53365580617E+03  0.54029835043E+03  0.00000000000E+00 0. -1.
          1    1    1    2  502    0  0.41562917598E+02  0.77142077447E+02  0.19976950174E+04  0.19996159028E+04  0.00000000000E+00 0. -1.
         22    1    3    3    0    0  0.47144382882E+02 -0.56577733303E+02  0.66716153657E+02  0.99371413907E+02  0.00000000000E+00 0. -1.
         22    1    3    3    0    0 -0.26350521435E+02  0.36404244780E+02  0.11165296292E+03  0.12035781298E+03  0.00000000000E+00 0. -1.
</event>
<event>
 7    1  0.6294601E-006  0.9812339E+02  0.7818608E-02  0.1452683E+00
          2   -1    0    0  502    0  0.00000000000E+00  0.00000000000E+00  0.14123046972E+03  0.14123046972E+03  0.00000000000E+00 0. -1.
          1   -1    0    0  501    0 -0.00000000000E+00 -0.00000000000E+00 -0.67048501697E+03  0.67048501697E+03  0.00000000000E+00 0. -1.
         25    2    1    2    0    0  0.90951887824E+02  0.37302656012E+02 -0.57922351553E+02  0.16924449739E+03  0.12499986818E+03 0.  0.
          2    1    1    2  501    0  0.67052494975E+01 -0.23184665135E+02 -0.52808863433E+03  0.52863985356E+03  0.00000000000E+00 0. -1.
          1    1    1    2  502    0 -0.97657137322E+02 -0.14117990876E+02  0.56756438631E+02  0.11383113573E+03  0.00000000000E+00 0. -1.
         22    1    3    3    0    0 -0.25583698396E+02  0.33858812225E+02 -0.15334399707E+02  0.45123038498E+02  0.00000000000E+00 0.  1.
         22    1    3    3    0    0  0.11653558622E+03  0.34438437865E+01 -0.42587951846E+02  0.12412145890E+03  0.00000000000E+00 0.  1.
</event>
<event>
 7    1  0.6294601E-006  0.1854981E+03  0.7818608E-02  0.1233520E+00
          2   -1    0    0  502    0  0.00000000000E+00  0.00000000000E+00  0.92859800914E+02  0.92859800914E+02  0.00000000000E+00 0. -1.
          1   -1    0    0  501    0 -0.00000000000E+00 -0.00000000000E+00 -0.11494159959E+04  0.11494159959E+04  0.00000000000E+00 0. -1.
         25    2    1    2    0    0  0.10635041732E+03 -0.69515706504E+02 -0.20587920408E+03  0.27231266415E+03  0.12500038266E+03 0.  0.
          2    1    1    2  501    0 -0.15180857707E+03  0.14202582545E+03 -0.85916870141E+03  0.88396155836E+03  0.00000000000E+00 0. -1.
          1    1    1    2  502    0  0.45458159755E+02 -0.72510118946E+02  0.84917105014E+01  0.86001574318E+02  0.00000000000E+00 0. -1.
         22    1    3    3    0    0  0.55763123629E+02  0.93686991039E+01 -0.15647001929E+03  0.16637357187E+03  0.00000000000E+00 0. -1.
         22    1    3    3    0    0  0.50587293690E+02 -0.78884405608E+02 -0.49409184797E+02  0.10593909228E+03  0.00000000000E+00 0. -1.
</event>
<event>
 7    1  0.6294601E-006  0.7429900E+02  0.7818608E-02  0.1376316E+00
          2   -1    0    0  502    0  0.00000000000E+00  0.00000000000E+00  0.35269188349E+03  0.35269188349E+03  0.00000000000E+00 0. -1.
          1   -1    0    0  501    0 -0.00000000000E+00 -0.00000000000E+00 -0.24312568772E+04  0.24312568772E+04  0.00000000000E+00 0. -1.
         25    2    1    2    0    0  0.61701522279E+01  0.12609986533E+03 -0.53956469982E+01  0.17774274083E+03  0.12499648834E+03 0.  0.
          2    1    1    2  501    0  0.11161857439E+02 -0.56549877326E+02 -0.23345063156E+04  0.23352178086E+04  0.00000000000E+00 0. -1.
          1    1    1    2  502    0 -0.17332009667E+02 -0.69549988003E+02  0.26133696887E+03  0.27098821135E+03  0.00000000000E+00 0. -1.
         22    1    3    3    0    0  0.52739239244E+02  0.30089178653E+02  0.26673505621E+02  0.66319393319E+02  0.00000000000E+00 0.  1.
         22    1    3    3    0    0 -0.46569087016E+02  0.96010686676E+02 -0.32069152619E+02  0.11142334751E+03  0.00000000000E+00 0.  1.
</event>
<event>
 7    1  0.6294601E-006  0.1534330E+03  0.7818608E-02  0.1345006E+00
          2   -1    0    0  502    0  0.00000000000E+00  0.00000000000E+00  0.14776035027E+04  0.14776035027E+04  0.00000000000E+00 0. -1.
          1   -1    0    0  501    0 -0.00000000000E+00 -0.00000000000E+00 -0.40969978650E+02  0.40969978650E+02  0.00000000000E+00 0. -1.
         25    2    1    2    0    0  0.37773298885E+02 -0.15943356749E+03  0.56770435885E+03  0.60395294353E+03  0.12500013758E+03 0.  0.
          2    1    1    2  501    0 -0.64892798124E+02  0.13529726577E+03  0.22974996807E+03  0.27441113899E+03  0.00000000000E+00 0. -1.
          1    1    1    2  502    0  0.27119499240E+02  0.24136301717E+02  0.63917919719E+03  0.64020939888E+03  0.00000000000E+00 0. -1.
         22    1    3    3    0    0  0.62087329347E+02 -0.14169227501E+03  0.33127524649E+03  0.36561568101E+03  0.00000000000E+00 0.  1.
         22    1    3    3    0    0 -0.24314030462E+02 -0.17741292481E+02  0.23642911236E+03  0.23833726252E+03  0.00000000000E+00 0.  1.
</event>
<event>
 7    1  0.6294601E-006  0.1203218E+03  0.7818608E-02  0.1294650E+00
          2   -1    0    0  502    0  0.00000000000E+00  0.00000000000E+00  0.65233090276E+03  0.65233090276E+03  0.00000000000E+00 0. -1.
          1   -1    0    0  501    0 -0.00000000000E+00 -0.00000000000E+00 -0.11023147133E+04  0.11023147133E+04  0.00000000000E+00 0. -1.
         25    2    1    2    0    0  0.52454205642E+01 -0.72815015349E+02 -0.34037164795E+03  0.36987526476E+03  0.12500124743E+03 0.  0.
          2    1    1    2  501    0 -0.37906928297E+02  0.13767252422E+03 -0.73825956178E+03  0.75194271038E+03  0.00000000000E+00 0. -1.
          1    1    1    2  502    0  0.32661507733E+02 -0.64857508875E+02  0.62864739921E+03  0.63282764089E+03  0.00000000000E+00 0. -1.
         22    1    3    3    0    0 -0.11969922879E+02  0.86301486696E+01  0.42384958313E+01  0.15353285209E+02  0.00000000000E+00 0.  1.
         22    1    3    3    0    0  0.17215343443E+02 -0.81445164019E+02 -0.34461014378E+03  0.35452197955E+03  0.00000000000E+00 0.  1.
</event>
<event>
 7    1  0.6294601E-006  0.1003752E+03  0.7818608E-02  0.1331357E+00
          2   -1    0    0  502    0  0.00000000000E+00  0.00000000000E+00  0.18118244891E+04  0.18118244891E+04  0.00000000000E+00 0. -1.
          1   -1    0    0  501    0 -0.00000000000E+00 -0.00000000000E+00 -0.64698591515E+03  0.64698591515E+03  0.00000000000E+00 0. -1.
         25    2    1    2    0    0 -0.15460732872E+03  0.17450026503E+02 -0.53438575149E+02  0.20661165156E+03  0.12499905491E+03 0.  0.
          2    1    1    2  501    0  0.60471515288E+02  0.15718278271E+02 -0.51363087399E+03  0.51741718482E+03  0.00000000000E+00 0. -1.
          1    1    1    2  502    0  0.94135813431E+02 -0.33168304774E+02  0.17319080231E+04  0.17347815679E+04  0.00000000000E+00 0. -1.
         22    1    3    3    0    0 -0.90404085929E+02 -0.20251752166E+02 -0.85012974068E+02  0.12573876880E+03  0.00000000000E+00 0. -1.
         22    1    3    3    0    0 -0.64203242790E+02  0.37701778668E+02  0.31574398919E+02  0.80872882765E+02  0.00000000000E+00 0. -1.
</event>
<event>
 7    1  0.6294601E-006  0.1315885E+03  0.7818608E-02  0.1355200E+00
          2   -1    0    0  502    0  0.00000000000E+00  0.00000000000E+00  0.10532766186E+04  0.10532766186E+04  0.00000000000E+00 0. -1.
          1   -1    0    0  501    0 -0.00000000000E+00 -0.00000000000E+00 -0.22405506293E+03  0.22405506293E+03  0.00000000000E+00 0. -1.
         25    2    1    2    0    0  0.13224171708E+02  0.11194601448E+03  0.94513917674E+02  0.19304542382E+03  0.12500746437E+03 0.  0.
          2    1    1    2  501    0 -0.32991982411E+02  0.20431049332E+02 -0.16763653121E+03  0.17206947805E+03  0.00000000000E+00 0. -1.
          1    1    1    2  502    0  0.19767810703E+02 -0.13237706381E+03  0.90234416926E+03  0.91221677969E+03  0.00000000000E+00 0. -1.
         22    1    3    3    0    0 -0.20578435636E+01  0.13679037154E+03  0.64691462381E+02  0.15133018790E+03  0.00000000000E+00 0.  1.
         22    1    3    3    0    0  0.15282015271E+02 -0.24844357056E+02  0.29822455293E+02  0.41715235922E+02  0.00000000000E+00 0.  1.
</event>
<event>
 7    1  0.6294601E-006  0.6535697E+02  0.7818608E-02  0.1429679E+00
          2   -1    0    0  502    0  0.00000000000E+00  0.00000000000E+00  0.46237225384E+03  0.46237225384E+03  0.00000000000E+00 0. -1.
          1   -1    0    0  501    0 -0.00000000000E+00 -0.00000000000E+00 -0.22980684870E+04  0.22980684870E+04  0.00000000000E+00 0. -1.
         25    2    1    2    0    0 -0.31347071454E+02 -0.15186954835E+02 -0.38491721293E+03  0.40620116787E+03  0.12499938196E+03 0.  0.
          2    1    1    2  501    0  0.34115564159E+02  0.58116865170E+02 -0.19008866530E+04  0.19020808367E+04  0.00000000000E+00 0. -1.
          1    1    1    2  502    0 -0.27684927041E+01 -0.42929910335E+02  0.45010763275E+03  0.45215873630E+03  0.00000000000E+00 0. -1.
         22    1    3    3    0    0  0.33162213775E+02  0.16872399578E+02 -0.43385779963E+02  0.57155368890E+02  0.00000000000E+00 0. -1.
         22    1    3    3    0    0 -0.64509285230E+02 -0.32059354413E+02 -0.34153143296E+03  0.34904579898E+03  0.00000000000E+00 0. -1.
</event>
<event>
 7    1  0.6294601E-006  0.5428798E+02  0.7818608E-02  0.1538884E+00
          2   -1    0    0  502    0  0.00000000000E+00  0.00000000000E+00  0.44358901775E+03  0.44358901775E+03  0.00000000000E+00 0. -1.
          1   -1    0    0  501    0 -0.00000000000E+00 -0.00000000000E+00 -0.14874077886E+03  0.14874077886E+03  0.00000000000E+00 0. -1.
         25    2    1    2    0    0 -0.45960214350E+02  0.40018662412E+02  0.13610093177E+03  0.19458904350E+03  0.12501038989E+03 0.  0.
          2    1    1    2  501    0  0.51593251135E+02 -0.16657631623E+02 -0.11278924764E+03  0.12514293683E+03  0.00000000000E+00 0. -1.
          1    1    1    2  502    0 -0.56330367843E+01 -0.23361030789E+02  0.27153655477E+03  0.27259781628E+03  0.00000000000E+00 0. -1.
         22    1    3    3    0    0 -0.49476965709E+02 -0.36814943538E+02  0.52519911498E+02  0.81004020316E+02  0.00000000000E+00 0.  1.
         22    1    3    3    0    0  0.35167513590E+01  0.76833605950E+02  0.83581020268E+02  0.11358502319E+03  0.00000000000E+00 0.  1.
</event>
<event>
 7    1  0.6294601E-006  0.3709567E+02  0.7818608E-02  0.1532215E+00
          2   -1    0    0  502    0  0.00000000000E+00  0.00000000000E+00  0.35256420207E+04  0.35256420207E+04  0.00000000000E+00 0. -1.
          1   -1    0    0  501    0 -0.00000000000E+00 -0.00000000000E+00 -0.51081964133E+02  0.51081964133E+02  0.00000000000E+00 0. -1.
         25    2    1    2    0    0 -0.11834202330E+02 -0.33134667016E+02  0.17214028311E+04  0.17262937795E+04  0.12499820767E+03 0.  0.
          2    1    1    2  501    0 -0.24533243625E+02  0.27934594819E+02 -0.41316053598E+02  0.55580913229E+02  0.00000000000E+00 0. -1.
          1    1    1    2  502    0  0.36367445955E+02  0.52000721963E+01  0.17944732790E+04  0.17948492920E+04  0.00000000000E+00 0. -1.
         22    1    3    3    0    0 -0.45879683003E+02 -0.46445009934E+02  0.48777999664E+03  0.49212946405E+03  0.00000000000E+00 0. -1.
         22    1    3    3    0    0  0.34045480673E+02  0.13310342919E+02  0.12336228344E+04  0.12341643155E+04  0.00000000000E+00 0. -1.
</event>
<event>
 7    1  0.6294601E-006  0.3717568E+02  0.7818608E-02  0.1569981E+00
          2   -1    0    0  502    0  0.00000000000E+00  0.00000000000E+00  0.35910279786E+03  0.35910279786E+03  0.00000000000E+00 0. -1.
          1   -1    0    0  501    0 -0.00000000000E+00 -0.00000000000E+00 -0.10513763535E+03  0.10513763535E+03  0.00000000000E+00 0. -1.
         25    2    1    2    0    0  0.47055649111E+02 -0.27163602319E+02  0.66820371106E+02  0.15179352887E+03  0.12499687200E+03 0.  0.
          2    1    1    2  501    0 -0.10217304111E+02  0.26896364375E+02 -0.57896722983E+02  0.64651668595E+02  0.00000000000E+00 0. -1.
          1    1    1    2  502    0 -0.36838345000E+02  0.26723794400E+00  0.24504151439E+03  0.24779523573E+03  0.00000000000E+00 0. -1.
         22    1    3    3    0    0  0.58483226663E+02 -0.47319304539E+02 -0.59108677938E+01  0.75460868939E+02  0.00000000000E+00 0.  1.
         22    1    3    3    0    0 -0.11427577552E+02  0.20155702219E+02  0.72731238900E+02  0.76332659934E+02  0.00000000000E+00 0.  1.
</event>
<event>
 7    1  0.6294601E-006  0.1524337E+03  0.7818608E-02  0.1259272E+00
          2   -1    0    0  502    0  0.00000000000E+00  0.00000000000E+00  0.33648220524E+03  0.33648220524E+03  0.00000000000E+00 0. -1.
          1   -1    0    0  501    0 -0.00000000000E+00 -0.00000000000E+00 -0.14913689149E+04  0.14913689149E+04  0.00000000000E+00 0. -1.
         25    2    1    2    0    0  0.54547335135E+02  0.21498633942E+03 -0.43928410285E+03  0.50773223012E+03  0.12500782610E+03 0.  0.
          2    1    1    2  501    0 -0.25339074787E+02 -0.14008202475E+03 -0.10074204201E+04  0.10174285946E+04  0.00000000000E+00 0. -1.
          1    1    1    2  502    0 -0.29208260347E+02 -0.74904314672E+02  0.29181781322E+03  0.30269029542E+03  0.00000000000E+00 0. -1.
         22    1    3    3    0    0  0.95069586074E+02  0.14361577453E+03 -0.30879737018E+03  0.35358101295E+03  0.00000000000E+00 0. -1.
         22    1    3    3    0    0 -0.40522250939E+02  0.71370564893E+02 -0.13048673267E+03  0.15415121718E+03  0.00000000000E+00 0. -1.
</event>
<event>
 7    1  0.6294601E-006  0.2139119E+03  0.7818608E-02  0.1228853E+00
          2   -1    0    0  502    0  0.00000000000E+00  0.00000000000E+00  0.60956772287E+03  0.60956772287E+03  0.00000000000E+00 0. -1.
          1   -1    0    0  501    0 -0.00000000000E+00 -0.00000000000E+00 -0.24025665319E+04  0.24025665319E+04  0.00000000000E+00 0. -1.
         25    2    1    2    0    0  0.12010762646E+03  0.21218867598E+03 -0.10121337975E+03  0.29209419854E+03  0.12499998574E+03 0.  0.
          2    1    1    2  501    0 -0.42318158689E+02 -0.20866142898E+03 -0.21977901074E+04  0.22080787520E+04  0.00000000000E+00 0. -1.
          1    1    1    2  502    0 -0.77789467771E+02 -0.35272469987E+01  0.50600467815E+03  0.51196130428E+03  0.00000000000E+00 0. -1.
         22    1    3    3    0    0  0.13901541334E+03  0.19481854090E+03 -0.11200437917E+03  0.26424331586E+03  0.00000000000E+00 0.  1.
         22    1    3    3    0    0 -0.18907786877E+02  0.17370135075E+02  0.10790999430E+02  0.27850882675E+02  0.00000000000E+00 0.  1.
</event>
<event>
 7    1  0.6294601E-006  0.1316041E+03  0.7818608E-02  0.1271977E+00
          2   -1    0    0  502    0  0.00000000000E+00  0.00000000000E+00  0.20466379599E+03  0.20466379599E+03  0.00000000000E+00 0. -1.
          1   -1    0    0  501    0 -0.00000000000E+00 -0.00000000000E+00 -0.67240772174E+03  0.67240772174E+03  0.00000000000E+00 0. -1.
         25    2    1    2    0    0  0.12602855250E+03 -0.49339904958E+02  0.22699467065E+02  0.18563037347E+03  0.12500298989E+03 0.  0.
          2    1    1    2  501    0  0.89474076702E+01  0.81797755384E+02 -0.53833597585E+03  0.54458842421E+03  0.00000000000E+00 0. -1.
          1    1    1    2  502    0 -0.13497596017E+03 -0.32457850426E+02  0.47892583033E+02  0.14685272006E+03  0.00000000000E+00 0. -1.
         22    1    3    3    0    0  0.49227175185E+02 -0.84903593195E+02  0.54894507415E+00  0.98143956792E+02  0.00000000000E+00 0. -1.
         22    1    3    3    0    0  0.76801377315E+02  0.35563688237E+02  0.22150521991E+02  0.87486416677E+02  0.00000000000E+00 0. -1.
</event>
<event>
 7    1  0.6294601E-006  0.1659162E+03  0.7818608E-02  0.1205160E+00
          2   -1    0    0  502    0  0.00000000000E+00  0.00000000000E+00  0.28101029606E+04  0.28101029606E+04  0.00000000000E+00 0. -1.
          1   -1    0    0  501    0 -0.00000000000E+00 -0.00000000000E+00 -0.12871398828E+04  0.12871398828E+04  0.00000000000E+00 0. -1.
         25    2    1    2    0    0  0.85000364266E+02  0.11091958574E+03  0.15601041907E+04  0.15713300909E+04  0.12499980946E+03 0.  0.
          2    1    1    2  501    0 -0.16583908388E+03 -0.10502640272E+02 -0.12727728397E+04  0.12835745435E+04  0.00000000000E+00 0. -1.
          1    1    1    2  502    0  0.80838719615E+02 -0.10041694547E+03  0.12356317267E+04  0.12423382090E+04  0.00000000000E+00 0. -1.
         22    1    3    3    0    0  0.83642740613E+02  0.13009574957E+02  0.54786346415E+03  0.55436425971E+03  0.00000000000E+00 0. -1.
         22    1    3    3    0    0  0.13576236524E+01  0.97910010783E+02  0.10122407266E+04  0.10169658312E+04  0.00000000000E+00 0. -1.
</event>
<event>
 7    1  0.6294601E-006  0.9861677E+02  0.7818608E-02  0.1286358E+00
          2   -1    0    0  502    0  0.00000000000E+00  0.00000000000E+00  0.48233122985E+03  0.48233122985E+03  0.00000000000E+00 0. -1.
          1   -1    0    0  501    0 -0.00000000000E+00 -0.00000000000E+00 -0.69962228861E+03  0.69962228861E+03  0.00000000000E+00 0. -1.
         25    2    1    2    0    0  0.51735748288E+02 -0.67782091732E+00 -0.28845769861E+03  0.31860642739E+03  0.12500065837E+03 0.  0.
          2    1    1    2  501    0 -0.11030542345E+03  0.80017978685E+02 -0.37887001207E+03  0.40263215148E+03  0.00000000000E+00 0. -1.
          1    1    1    2  502    0  0.58569675167E+02 -0.79340157768E+02  0.45003665192E+03  0.46071493959E+03  0.00000000000E+00 0. -1.
         22    1    3    3    0    0  0.14938397125E+01  0.41034457196E+02 -0.27061283393E+02  0.49176938633E+02  0.00000000000E+00 0.  1.
         22    1    3    3    0    0  0.50241908575E+02 -0.41712278113E+02 -0.26139641522E+03  0.26942948875E+03  0.00000000000E+00 0.  1.
</event>
<event>
 7    1  0.6294601E-006  0.7665930E+02  0.7818608E-02  0.1357040E+00
          2   -1    0    0  502    0  0.00000000000E+00  0.00000000000E+00  0.36400923215E+03  0.36400923215E+03  0.00000000000E+00 0. -1.
          1   -1    0    0  501    0 -0.00000000000E+00 -0.00000000000E+00 -0.61282577431E+03  0.61282577431E+03  0.00000000000E+00 0. -1.
         25    2    1    2    0    0  0.21643322901E+02 -0.93006742042E+01  0.18167564571E+02  0.12850370531E+03  0.12501282298E+03 0.  0.
          2    1    1    2  501    0 -0.25478952237E+02  0.74772419267E+02 -0.55110579702E+03  0.55673844056E+03  0.00000000000E+00 0. -1.
          1    1    1    2  502    0  0.38356293365E+01 -0.65471745063E+02  0.28412169028E+03  0.29159286058E+03  0.00000000000E+00 0. -1.
         22    1    3    3    0    0  0.12571669399E+02  0.45006139456E+02 -0.29848503359E+02  0.55448468085E+02  0.00000000000E+00 0.  1.
         22    1    3    3    0    0  0.90716535021E+01 -0.54306813660E+02  0.48016067930E+02  0.73055237229E+02  0.00000000000E+00 0.  1.
</event>
<event>
 7    1  0.6294601E-006  0.2485766E+03  0.7818608E-02  0.1309354E+00
          2   -1    0    0  502    0  0.00000000000E+00  0.00000000000E+00  0.42321877543E+03  0.42321877543E+03  0.00000000000E+00 0. -1.
          1   -1    0    0  501    0 -0.00000000000E+00 -0.00000000000E+00 -0.11496058451E+04  0.11496058451E+04  0.00000000000E+00 0. -1.
         25    2    1    2    0    0 -0.50175421698E+02  0.24302655661E+03  0.12232796291E+03  0.30358992805E+03  0.12499293477E+03 0.  0.
          2    1    1    2  501    0  0.30126763023E+02  0.59429958223E+01 -0.98447151882E+03  0.98495030962E+03  0.00000000000E+00 0. -1.
          1    1    1    2  502    0  0.20048658676E+02 -0.24896955243E+03  0.13575648628E+03  0.28428438283E+03  0.00000000000E+00 0. -1.
         22    1    3    3    0    0 -0.10320545888E+02  0.18591355275E+03  0.31040133217E+02  0.18876931062E+03  0.00000000000E+00 0. -1.
         22    1    3    3    0    0 -0.39854875811E+02  0.57113003860E+02  0.91287829692E+02  0.11482061742E+03  0.00000000000E+00 0. -1.
</event>
<event>
 7    1  0.6294601E-006  0.1499194E+03  0.7818608E-02  0.1362785E+00
          2   -1    0    0  502    0  0.00000000000E+00  0.00000000000E+00  0.22643275798E+04  0.22643275798E+04  0.00000000000E+00 0. -1.
          1   -1    0    0  501    0 -0.00000000000E+00 -0.00000000000E+00 -0.81445020160E+03  0.81445020160E+03  0.00000000000E+00 0. -1.
         25    2    1    2    0    0 -0.10061935689E+03 -0.12201390016E+03  0.12524303204E+04  0.12685528847E+04  0.12503226370E+03 0.  0.
          2    1    1    2  501    0  0.70379314757E+02  0.13234114007E+03 -0.79916518348E+03  0.81310049551E+03  0.00000000000E+00 0. -1.
          1    1    1    2  502    0  0.30240042134E+02 -0.10327239905E+02  0.99661224129E+03  0.99712440122E+03  0.00000000000E+00 0. -1.
         22    1    3    3    0    0 -0.10839171338E+03 -0.46003816892E+02  0.58270267484E+03  0.59448088444E+03  0.00000000000E+00 0. -1.
         22    1    3    3    0    0  0.77723564897E+01 -0.76010083273E+02  0.66972764557E+03  0.67407200025E+03  0.00000000000E+00 0. -1.
</event>
<event>
 7    1  0.6294601E-006  0.5535224E+02  0.7818608E-02  0.1506302E+00
          2   -1    0    0  502    0  0.00000000000E+00  0.00000000000E+00  0.11731226804E+04  0.11731226804E+04  0.00000000000E+00 0. -1.
          1   -1    0    0  501    0 -0.00000000000E+00 -0.00000000000E+00 -0.87152768859E+03  0.87152768859E+03  0.00000000000E+00 0. -1.
         25    2    1    2    0    0  0.30523566509E+02  0.50009000711E+01  0.25868778832E+03  0.28896081998E+03  0.12498914569E+03 0.  0.
          2    1    1    2  501    0 -0.47210002576E+02 -0.29065336922E+02 -0.85525504758E+03  0.85705004204E+03  0.00000000000E+00 0. -1.
          1    1    1    2  502    0  0.16686436067E+02  0.24064436851E+02  0.89816225102E+03  0.89863950694E+03  0.00000000000E+00 0. -1.
         22    1    3    3    0    0  0.68548228663E+02  0.16513692786E+02  0.83325917851E+02  0.10915479966E+03  0.00000000000E+00 0. -1.
         22    1    3    3    0    0 -0.38024662154E+02 -0.11512792715E+02  0.17536187047E+03  0.17980602032E+03  0.00000000000E+00 0. -1.
</event>
<event>
 7    1  0.6294601E-006  0.4083141E+02  0.7818608E-02  0.1566263E+00
          2   -1    0    0  502    0  0.00000000000E+00  0.00000000000E+00  0.72735740895E+03  0.72735740895E+03  0.00000000000E+00 0. -1.
          1   -1    0    0  501    0 -0.00000000000E+00 -0.00000000000E+00 -0.33033388917E+03  0.33033388917E+03  0.00000000000E+00 0. -1.
         25    2    1    2    0    0  0.80254863176E+01 -0.12422907052E+02 -0.28182920191E+03  0.30866205559E+03  0.12500331381E+03 0.  0.
          2    1    1    2  501    0  0.22007444139E+02 -0.15317903507E+02 -0.29288537482E+02  0.39708742025E+02  0.00000000000E+00 0. -1.
          1    1    1    2  502    0 -0.30032930456E+02  0.27740810559E+02  0.70814125918E+03  0.70932050050E+03  0.00000000000E+00 0. -1.
         22    1    3    3    0    0  0.60153199951E+02 -0.13802360217E+02 -0.21621225726E+03  0.22484806603E+03  0.00000000000E+00 0. -1.
         22    1    3    3    0    0 -0.52127713634E+02  0.13794531648E+01 -0.65616944655E+02  0.83813989558E+02  0.00000000000E+00 0. -1.
</event>
<event>
 7    1  0.6294601E-006  0.5705829E+02  0.7818608E-02  0.1513842E+00
          2   -1    0    0  502    0  0.00000000000E+00  0.00000000000E+00  0.44928399314E+04  0.44928399314E+04  0.00000000000E+00 0. -1.
          1   -1    0    0  501    0 -0.00000000000E+00 -0.00000000000E+00 -0.10712615537E+03  0.10712615537E+03  0.00000000000E+00 0. -1.
         25    2    1    2    0    0 -0.68718441638E+02  0.34058977705E+02  0.26206444843E+04  0.26247447309E+04  0.12500060418E+03 0.  0.
          2    1    1    2  501    0  0.16623066250E+02 -0.21267137672E+02 -0.10295107950E+03  0.10643092711E+03  0.00000000000E+00 0. -1.
          1    1    1    2  502    0  0.52095375388E+02 -0.12791840033E+02  0.18680203712E+04  0.18687904287E+04  0.00000000000E+00 0. -1.
         22    1    3    3    0    0 -0.20011933089E+02  0.39376728603E+02  0.22959049780E+04  0.22963298266E+04  0.00000000000E+00 0. -1.
         22    1    3    3    0    0 -0.48706508549E+02 -0.53177508981E+01  0.32473950628E+03  0.32841490434E+03  0.00000000000E+00 0. -1.
</event>
<event>
 7    1  0.6294601E-006  0.1399894E+03  0.7818608E-02  0.1359411E+00
          2   -1    0    0  502    0  0.00000000000E+00  0.00000000000E+00  0.20815000918E+04  0.20815000918E+04  0.00000000000E+00 0. -1.
          1   -1    0    0  501    0 -0.00000000000E+00 -0.00000000000E+00 -0.10895665124E+03  0.10895665124E+03  0.00000000000E+00 0. -1.
         25    2    1    2    0    0 -0.37821301177E+02  0.99120806595E+02  0.47099372905E+01  0.16401746643E+03  0.12499664261E+03 0.  0.
          2    1    1    2  501    0 -0.80357287193E+01  0.34274520301E+02 -0.15235883872E+02  0.38359455618E+02  0.00000000000E+00 0. -1.
          1    1    1    2  502    0  0.45857029896E+02 -0.13339532690E+03  0.19830693872E+04  0.19880798210E+04  0.00000000000E+00 0. -1.
         22    1    3    3    0    0  0.10066282776E+02 -0.24149812633E+02 -0.15235330270E+02  0.30276373422E+02  0.00000000000E+00 0. -1.
         22    1    3    3    0    0 -0.47887583953E+02  0.12327061923E+03  0.19945267561E+02  0.13374109301E+03  0.00000000000E+00 0. -1.
</event>
<event>
 7    1  0.6294601E-006  0.8880108E+02  0.7818608E-02  0.1349157E+00
          2   -1    0    0  502    0  0.00000000000E+00  0.00000000000E+00  0.62864775179E+02  0.62864775179E+02  0.00000000000E+00 0. -1.
          1   -1    0    0  501    0 -0.00000000000E+00 -0.00000000000E+00 -0.10321275732E+04  0.10321275732E+04  0.00000000000E+00 0. -1.
         25    2    1    2    0    0  0.35572987871E+02 -0.16800377180E+02 -0.45768934723E+02  0.13880656504E+03  0.12499910789E+03 0.  0.
          2    1    1    2  501    0 -0.52874428727E+02  0.74811375225E+02 -0.87174562370E+03  0.87654599396E+03  0.00000000000E+00 0. -1.
          1    1    1    2  502    0  0.17301440856E+02 -0.58010998045E+02 -0.51748239573E+02  0.79639789357E+02  0.00000000000E+00 0. -1.
         22    1    3    3    0    0  0.13439568490E+02  0.22820761997E+01 -0.87115093468E+02  0.88175219778E+02  0.00000000000E+00 0.  1.
         22    1    3    3    0    0  0.22133419382E+02 -0.19082453379E+02  0.41346158745E+02  0.50631345266E+02  0.00000000000E+00 0.  1.
</event>
<event>
 7    1  0.6294601E-006  0.4572834E+02  0.7818608E-02  0.1563559E+00
          2   -1    0    0  502    0  0.00000000000E+00  0.00000000000E+00  0.17247439474E+04  0.17247439474E+04  0.00000000000E+00 0. -1.
          1   -1    0    0  501    0 -0.00000000000E+00 -0.00000000000E+00 -0.51948001769E+02  0.51948001769E+02  0.00000000000E+00 0. -1.
         25    2    1    2    0    0  0.83196663408E+01  0.32817839185E+02  0.10462951766E+04  0.10542789585E+04  0.12499719335E+03 0.  0.
          2    1    1    2  501    0 -0.32666360298E+02 -0.32250365428E+02 -0.36696257199E+02  0.58768975300E+02  0.00000000000E+00 0. -1.
          1    1    1    2  502    0  0.24346693957E+02 -0.56747375772E+00  0.66319702629E+03  0.66364401543E+03  0.00000000000E+00 0. -1.
         22    1    3    3    0    0  0.56159284883E+02 -0.13857781659E+02  0.34603611172E+03  0.35083741820E+03  0.00000000000E+00 0.  1.
         22    1    3    3    0    0 -0.47839618542E+02  0.46675620845E+02  0.70025906484E+03  0.70344154027E+03  0.00000000000E+00 0.  1.
</event>
<event>
 7    1  0.6294601E-006  0.9100607E+02  0.7818608E-02  0.1467211E+00
          2   -1    0    0  502    0  0.00000000000E+00  0.00000000000E+00  0.31376598492E+03  0.31376598492E+03  0.00000000000E+00 0. -1.
          1   -1    0    0  501    0 -0.00000000000E+00 -0.00000000000E+00 -0.12490848658E+04  0.12490848658E+04  0.00000000000E+00 0. -1.
         25    2    1    2    0    0 -0.95809373995E+02 -0.43593254795E+00 -0.27938826477E+03  0.32072388097E+03  0.12500551647E+03 0.  0.
          2    1    1    2  501    0  0.88144632665E+02 -0.21689999837E+02 -0.94638592079E+03  0.95072932185E+03  0.00000000000E+00 0. -1.
          1    1    1    2  502    0  0.76647413297E+01  0.22125932385E+02  0.29045530472E+03  0.29139764787E+03  0.00000000000E+00 0. -1.
         22    1    3    3    0    0 -0.12147283745E+03  0.99037512457E+01 -0.25935795295E+03  0.28656636629E+03  0.00000000000E+00 0.  1.
         22    1    3    3    0    0  0.25663463455E+02 -0.10339683794E+02 -0.20030311817E+02  0.34157514677E+02  0.00000000000E+00 0.  1.
</event>
<event>
 7    1  0.6294601E-006  0.5994557E+02  0.7818608E-02  0.1497053E+00
          2   -1    0    0  502    0  0.00000000000E+00  0.00000000000E+00  0.49368900169E+03  0.49368900169E+03  0.00000000000E+00 0. -1.
          1   -1    0    0  501    0 -0.00000000000E+00 -0.00000000000E+00 -0.10828190596E+04  0.10828190596E+04  0.00000000000E+00 0. -1.
         25    2    1    2    0    0  0.50727132802E+02 -0.71908900229E+02  0.44921194001E+02  0.15934114285E+03  0.12501021638E+03 0.  0.
          2    1    1    2  501    0 -0.30663352802E+02  0.51233780191E+02 -0.10242084806E+04  0.10259474417E+04  0.00000000000E+00 0. -1.
          1    1    1    2  502    0 -0.20063780000E+02  0.20675120039E+02  0.39015722870E+03  0.39121947671E+03  0.00000000000E+00 0. -1.
         22    1    3    3    0    0  0.59056475884E+02 -0.51705586385E+02  0.83751237859E+02  0.11478416637E+03  0.00000000000E+00 0. -1.
         22    1    3    3    0    0 -0.83293430822E+01 -0.20203313845E+02 -0.38830043858E+02  0.44556976474E+02  0.00000000000E+00 0. -1.
</event>
<event>
 7    1  0.6294601E-006  0.3928394E+02  0.7818608E-02  0.1556812E+00
          2   -1    0    0  502    0  0.00000000000E+00  0.00000000000E+00  0.54454943621E+03  0.54454943621E+03  0.00000000000E+00 0. -1.
          1   -1    0    0  501    0 -0.00000000000E+00 -0.00000000000E+00 -0.83049178185E+03  0.83049178185E+03  0.00000000000E+00 0. -1.
         25    2    1    2    0    0 -0.49465609804E+02  0.15734683356E+02 -0.20888691827E+02  0.13695445136E+03  0.12500302992E+03 0.  0.
          2    1    1    2  501    0  0.37573192203E+02  0.11356843992E+02 -0.75060710666E+03  0.75163272364E+03  0.00000000000E+00 0. -1.
          1    1    1    2  502    0  0.11892417601E+02 -0.27091527349E+02  0.48555345283E+03  0.48645404306E+03  0.00000000000E+00 0. -1.
         22    1    3    3    0    0 -0.58020291835E+01  0.23149895289E+02 -0.68136022169E+02  0.72194866242E+02  0.00000000000E+00 0.  1.
         22    1    3    3    0    0 -0.43663580620E+02 -0.74152119334E+01  0.47247330343E+02  0.64759585121E+02  0.00000000000E+00 0.  1.
</event>
<event>
 7    1  0.6294601E-006  0.8281253E+02  0.7818608E-02  0.1371581E+00
          2   -1    0    0  502    0  0.00000000000E+00  0.00000000000E+00  0.23907533514E+04  0.23907533514E+04  0.00000000000E+00 0. -1.
          1   -1    0    0  501    0 -0.00000000000E+00 -0.00000000000E+00 -0.11630879041E+03  0.11630879041E+03  0.00000000000E+00 0. -1.
         25    2    1    2    0    0  0.27234669235E+01 -0.13268324104E+03  0.10154133901E+04  0.10316500527E+04  0.12500087460E+03 0.  0.
          2    1    1    2  501    0  0.12519705490E+02  0.81119155064E+02 -0.92010748379E+02  0.12330060081E+03  0.00000000000E+00 0. -1.
          1    1    1    2  502    0 -0.15243172414E+02  0.51564085981E+02  0.13510419192E+04  0.13521114883E+04  0.00000000000E+00 0. -1.
         22    1    3    3    0    0  0.22662853439E+02 -0.82426959043E+02  0.24772508907E+03  0.26206016152E+03  0.00000000000E+00 0.  1.
         22    1    3    3    0    0 -0.19939386515E+02 -0.50256282002E+02  0.76768830102E+03  0.76958989113E+03  0.00000000000E+00 0.  1.
</event>
<event>
 7    1  0.6294601E-006  0.1891589E+03  0.7818608E-02  0.1196427E+00
          2   -1    0    0  502    0  0.00000000000E+00  0.00000000000E+00  0.21953811590E+04  0.21953811590E+04  0.00000000000E+00 0. -1.
          1   -1    0    0  501    0 -0.00000000000E+00 -0.00000000000E+00 -0.14648329681E+03  0.14648329681E+03  0.00000000000E+00 0. -1.
         25    2    1    2    0    0  0.35831608890E+02  0.24076184380E+03  0.17482660625E+04  0.17695506112E+04  0.12499988336E+03 0.  0.
          2    1    1    2  501    0  0.28885762144E+02 -0.12090213013E+03 -0.93346750536E+02  0.15545201240E+03  0.00000000000E+00 0. -1.
          1    1    1    2  502    0 -0.64717371034E+02 -0.11985971367E+03  0.39397855027E+03  0.41686183221E+03  0.00000000000E+00 0. -1.
         22    1    3    3    0    0  0.23725485965E+02  0.60190786786E+01  0.57066257027E+02  0.62094167870E+02  0.00000000000E+00 0.  1.
         22    1    3    3    0    0  0.12106122925E+02  0.23474276512E+03  0.16911998054E+04  0.17074564433E+04  0.00000000000E+00 0.  1.
</event>
<event>
 7    1  0.6294601E-006  0.8293922E+02  0.7818608E-02  0.1393133E+00
          2   -1    0    0  502    0  0.00000000000E+00  0.00000000000E+00  0.10726622270E+03  0.10726622270E+03  0.00000000000E+00 0. -1.
          1   -1    0    0  501    0 -0.00000000000E+00 -0.00000000000E+00 -0.22084764563E+04  0.22084764563E+04  0.00000000000E+00 0. -1.
         25    2    1    2    0    0  0.37885023787E+02 -0.14530396507E+02 -0.75944775201E+03  0.77073451818E+03  0.12499760809E+03 0.  0.
          2    1    1    2  501    0  0.32420086211E+02 -0.31296857828E+02 -0.14256422371E+04  0.14263542139E+04  0.00000000000E+00 0. -1.
          1    1    1    2  502    0 -0.70305109998E+02  0.45827254335E+02  0.83879755519E+02  0.11865394691E+03  0.00000000000E+00 0. -1.
         22    1    3    3    0    0 -0.13163932237E+02  0.48404673362E+02 -0.31232228189E+03  0.31632500578E+03  0.00000000000E+00 0.  1.
         22    1    3    3    0    0  0.51048956024E+02 -0.62935069868E+02 -0.44712547012E+03  0.45440951240E+03  0.00000000000E+00 0.  1.
</event>
<event>
 7    1  0.6294601E-006  0.5425678E+02  0.7818608E-02  0.1453234E+00
          2   -1    0    0  502    0  0.00000000000E+00  0.00000000000E+00  0.35167727868E+04  0.35167727868E+04  0.00000000000E+00 0. -1.
          1   -1    0    0  501    0 -0.00000000000E+00 -0.00000000000E+00 -0.42527879748E+02  0.42527879748E+02  0.00000000000E+00 0. -1.
         25    2    1    2    0    0  0.41341546766E+02  0.59943290093E+02  0.75755994880E+03  0.77124839634E+03  0.12499876522E+03 0.  0.
          2    1    1    2  501    0 -0.43068454339E+02 -0.59082739624E+01 -0.22077207414E+02  0.48756564149E+02  0.00000000000E+00 0. -1.
          1    1    1    2  502    0  0.17269075729E+01 -0.54035016130E+02  0.27387621656E+04  0.27392957060E+04  0.00000000000E+00 0. -1.
         22    1    3    3    0    0 -0.32330518282E+02  0.57564452394E+02  0.45899933669E+03  0.46372332233E+03  0.00000000000E+00 0. -1.
         22    1    3    3    0    0  0.73672065048E+02  0.23788376985E+01  0.29856061211E+03  0.30752507400E+03  0.00000000000E+00 0. -1.
</event>
<event>
 7    1  0.6294601E-006  0.8502595E+02  0.7818608E-02  0.1337844E+00
          2   -1    0    0  502    0  0.00000000000E+00  0.00000000000E+00  0.10773740333E+04  0.10773740333E+04  0.00000000000E+00 0. -1.
          1   -1    0    0  501    0 -0.00000000000E+00 -0.00000000000E+00 -0.33818801027E+03  0.33818801027E+03  0.00000000000E+00 0. -1.
         25    2    1    2    0    0  0.49108615823E+02 -0.13588461317E+03  0.98944133491E+02  0.21515430423E+03  0.12500059533E+03 0.  0.
          2    1    1    2  501    0  0.14410315407E+01  0.69682555561E+02 -0.27382379309E+03  0.28255478192E+03  0.00000000000E+00 0. -1.
          1    1    1    2  502    0 -0.50549647364E+02  0.66202057604E+02  0.91406568263E+03  0.91785295742E+03  0.00000000000E+00 0. -1.
         22    1    3    3    0    0 -0.37667663779E+02 -0.67675110294E+02  0.60483805297E+02  0.98270362526E+02  0.00000000000E+00 0.  1.
         22    1    3    3    0    0  0.86776279602E+02 -0.68209502871E+02  0.38460328194E+02  0.11688394170E+03  0.00000000000E+00 0.  1.
</event>
<event>
 7    1  0.6294601E-006  0.1366187E+03  0.7818608E-02  0.1315916E+00
          2   -1    0    0  502    0  0.00000000000E+00  0.00000000000E+00  0.28259831512E+03  0.28259831512E+03  0.00000000000E+00 0. -1.
          1   -1    0    0  501    0 -0.00000000000E+00 -0.00000000000E+00 -0.91735219191E+03  0.91735219191E+03  0.00000000000E+00 0. -1.
         25    2    1    2    0    0  0.70055900310E+02 -0.14604250786E+03 -0.25926673241E+03  0.33027489662E+03  0.12500410209E+03 0.  0.
          2    1    1    2  501    0 -0.90163004634E+02  0.97377599150E+02 -0.61258812053E+03  0.62679818892E+03  0.00000000000E+00 0. -1.
          1    1    1    2  502    0  0.20107104324E+02  0.48664908708E+02  0.23710097614E+03  0.24287742149E+03  0.00000000000E+00 0. -1.
         22    1    3    3    0    0 -0.31057251813E+02 -0.65642953408E+02 -0.68113788129E+02  0.99564242354E+02  0.00000000000E+00 0. -1.
         22    1    3    3    0    0  0.10111315212E+03 -0.80399554450E+02 -0.19115294428E+03  0.23071065427E+03  0.00000000000E+00 0. -1.
</event>
<event>
 7    1  0.6294601E-006  0.5119424E+02  0.7818608E-02  0.1454588E+00
          2   -1    0    0  502    0  0.00000000000E+00  0.00000000000E+00  0.26128983670E+03  0.26128983670E+03  0.00000000000E+00 0. -1.
          1   -1    0    0  501    0 -0.00000000000E+00 -0.00000000000E+00 -0.97596201258E+03  0.97596201258E+03  0.00000000000E+00 0. -1.
         25    2    1    2    0    0 -0.26626827864E+02  0.58572986404E+02 -0.29518271954E+03  0.32694549381E+03  0.12498294006E+03 0.  0.
          2    1    1    2  501    0  0.48091651797E+02 -0.18320804517E+02 -0.66177031703E+03  0.66376834163E+03  0.00000000000E+00 0. -1.
          1    1    1    2  502    0 -0.21464823933E+02 -0.40252181888E+02  0.24228086069E+03  0.24653801384E+03  0.00000000000E+00 0. -1.
         22    1    3    3    0    0 -0.40579868471E+02  0.88126713400E+02 -0.26596067434E+03  0.28310443945E+03  0.00000000000E+00 0. -1.
         22    1    3    3    0    0  0.13953040607E+02 -0.29553726996E+02 -0.29222045203E+02  0.43841054360E+02  0.00000000000E+00 0. -1.
</event>
<event>
 7    1  0.6294601E-006  0.1491734E+03  0.7818608E-02  0.1348055E+00
          2   -1    0    0  502    0  0.00000000000E+00  0.00000000000E+00  0.13763953091E+04  0.13763953091E+04  0.00000000000E+00 0. -1.
          1   -1    0    0  501    0 -0.00000000000E+00 -0.00000000000E+00 -0.67978859542E+02  0.67978859542E+02  0.00000000000E+00 0. -1.
         25    2    1    2    0    0 -0.65478025468E+02 -0.16656153152E+03  0.70258491106E+03  0.73571784354E+03  0.12500028983E+03 0.  0.
          2    1    1    2  501    0  0.42059572371E+02  0.13872442280E+03  0.52567009304E+02  0.15419715813E+03  0.00000000000E+00 0. -1.
          1    1    1    2  502    0  0.23418453097E+02  0.27837108715E+02  0.55326452918E+03  0.55445916695E+03  0.00000000000E+00 0. -1.
         22    1    3    3    0    0 -0.53047120076E+02 -0.42265830909E+01  0.13095601816E+03  0.14135536652E+03  0.00000000000E+00 0. -1.
         22    1    3    3    0    0 -0.12430905393E+02 -0.16233494842E+03  0.57162889290E+03  0.59436247702E+03  0.00000000000E+00 0. -1.
</event>
<event>
 7    1  0.6294601E-006  0.1313704E+03  0.7818608E-02  0.1264306E+00
          2   -1    0    0  502    0  0.00000000000E+00  0.00000000000E+00  0.79711283594E+03  0.79711283594E+03  0.00000000000E+00 0. -1.
          1   -1    0    0  501    0 -0.00000000000E+00 -0.00000000000E+00 -0.27231009006E+03  0.27231009006E+03  0.00000000000E+00 0. -1.
         25    2    1    2    0    0  0.65888709843E+02  0.42818923947E+02  0.40688610058E+01  0.14770432284E+03  0.12500091608E+03 0.  0.
          2    1    1    2  501    0 -0.84312274623E+02 -0.12968479317E+03 -0.16737380307E+03  0.22790501352E+03  0.00000000000E+00 0. -1.
          1    1    1    2  502    0  0.18423564780E+02  0.86865869224E+02  0.68810768794E+03  0.69381358964E+03  0.00000000000E+00 0. -1.
         22    1    3    3    0    0  0.25267315564E+02  0.24230576456E+02 -0.60078815732E+02  0.69534323689E+02  0.00000000000E+00 0.  1.
         22    1    3    3    0    0  0.40621394279E+02  0.18588347491E+02  0.64147676738E+02  0.78169999146E+02  0.00000000000E+00 0.  1.
</event>
<event>
 7    1  0.6294601E-006  0.4524831E+02  0.7818608E-02  0.1507589E+00
          2   -1    0    0  502    0  0.00000000000E+00  0.00000000000E+00  0.13589665727E+04  0.13589665727E+04  0.00000000000E+00 0. -1.
          1   -1    0    0  501    0 -0.00000000000E+00 -0.00000000000E+00 -0.97606844688E+03  0.97606844688E+03  0.00000000000E+00 0. -1.
         25    2    1    2    0    0 -0.58907259270E+02 -0.54772838893E+02 -0.12700843848E+02  0.14918797097E+03  0.12500244066E+03 0.  0.
          2    1    1    2  501    0  0.32164661460E+02  0.31410169076E+02 -0.89431504643E+03  0.89544434022E+03  0.00000000000E+00 0. -1.
          1    1    1    2  502    0  0.26742597810E+02  0.23362669817E+02  0.12899140161E+04  0.12904027083E+04  0.00000000000E+00 0. -1.
         22    1    3    3    0    0 -0.87217680702E+02 -0.81080413783E+01 -0.28926238926E+02  0.92246362858E+02  0.00000000000E+00 0.  1.
         22    1    3    3    0    0  0.28310421432E+02 -0.46664797515E+02  0.16225395078E+02  0.56941608110E+02  0.00000000000E+00 0.  1.
</event>
<event>
 7    1  0.6294601E-006  0.3838268E+03  0.7818608E-02  0.1259181E+00
          2   -1    0    0  502    0  0.00000000000E+00  0.00000000000E+00  0.24445946919E+04  0.24445946919E+04  0.00000000000E+00 0. -1.
          1   -1    0    0  501    0 -0.00000000000E+00 -0.00000000000E+00 -0.52439225255E+03  0.52439225255E+03  0.00000000000E+00 0. -1.
         25    2    1    2    0    0 -0.23582435794E+03  0.28479574605E+03 -0.22558110200E+01  0.39032394247E+03  0.12500378641E+03 0.  0.
          2    1    1    2  501    0  0.26769379602E+03 -0.28717059415E+03 -0.21050168803E+03  0.44546366770E+03  0.00000000000E+00 0. -1.
          1    1    1    2  502    0 -0.31869438085E+02  0.23748480964E+01  0.21329599384E+04  0.21331993343E+04  0.00000000000E+00 0. -1.
         22    1    3    3    0    0  0.13522359412E+02  0.29958276366E+02 -0.76612331336E+01  0.33749770666E+02  0.00000000000E+00 0.  1.
         22    1    3    3    0    0 -0.24934671735E+03  0.25483746968E+03  0.54054221137E+01  0.35657417180E+03  0.00000000000E+00 0.  1.
</event>
<event>
 7    1  0.6294601E-006  0.5726735E+02  0.7818608E-02  0.1420377E+00
          2   -1    0    0  502    0  0.00000000000E+00  0.00000000000E+00  0.58884276017E+03  0.58884276017E+03  0.00000000000E+00 0. -1.
          1   -1    0    0  501    0 -0.00000000000E+00 -0.00000000000E+00 -0.67229075184E+03  0.67229075184E+03  0.00000000000E+00 0. -1.
         25    2    1    2    0    0  0.57175178610E+02  0.98436766121E+01 -0.12016313968E+03  0.18283796989E+03  0.12499857630E+03 0.  0.
          2    1    1    2  501    0 -0.41983744429E+02  0.40629521102E+02 -0.51789813751E+03  0.52118314787E+03  0.00000000000E+00 0. -1.
          1    1    1    2  502    0 -0.15191434181E+02 -0.50473197714E+02  0.55461328552E+03  0.55711239425E+03  0.00000000000E+00 0. -1.
         22    1    3    3    0    0 -0.13481155286E+02  0.28251572214E+02  0.10618154755E+02  0.33055076627E+02  0.00000000000E+00 0. -1.
         22    1    3    3    0    0  0.70656333896E+02 -0.18407895601E+02 -0.13078129443E+03  0.14978289326E+03  0.00000000000E+00 0. -1.
</event>
<event>
 7    1  0.1060008E-005  0.8555132E+02  0.7818608E-02  0.1325047E+00
          2   -1    0    0  502    0  0.00000000000E+00  0.00000000000E+00  0.26898520443E+04  0.26898520443E+04  0.00000000000E+00 0. -1.
          1   -1    0    0  501    0 -0.00000000000E+00 -0.00000000000E+00 -0.11078940168E+04  0.11078940168E+04  0.00000000000E+00 0. -1.
         25    2    1    2    0    0  0.13635539532E+03  0.78524378898E+02 -0.31421230936E+03  0.37297927301E+03  0.12500116328E+03 0.  0.
          2    1    1    2  501    0 -0.54100185061E+02 -0.55497111400E+02 -0.76164554748E+03  0.76557866963E+03  0.00000000000E+00 0. -1.
          1    1    1    2  502    0 -0.82255210258E+02 -0.23027267499E+02  0.26578158843E+04  0.26591881185E+04  0.00000000000E+00 0. -1.
         22    1    3    3    0    0  0.22771825204E+02  0.47244361074E+02 -0.20130260086E+02  0.56176623675E+02  0.00000000000E+00 0.  1.
         22    1    3    3    0    0  0.11358357012E+03  0.31280017824E+02 -0.29408204928E+03  0.31680264933E+03  0.00000000000E+00 0.  1.
</event>
<event>
 7    1  0.6294601E-006  0.1426117E+03  0.7818608E-02  0.1243119E+00
          2   -1    0    0  502    0  0.00000000000E+00  0.00000000000E+00  0.78206107086E+03  0.78206107086E+03  0.00000000000E+00 0. -1.
          1   -1    0    0  501    0 -0.00000000000E+00 -0.00000000000E+00 -0.14073147569E+04  0.14073147569E+04  0.00000000000E+00 0. -1.
         25    2    1    2    0    0  0.24198023780E+03  0.12569399971E+02  0.24218408870E+03  0.36467783934E+03  0.12499747352E+03 0.  0.
          2    1    1    2  501    0 -0.14108383297E+03 -0.92573715443E+01 -0.13369754814E+04  0.13444306545E+04  0.00000000000E+00 0. -1.
          1    1    1    2  502    0 -0.10089640482E+03 -0.33120284271E+01  0.46953770668E+03  0.48026733392E+03  0.00000000000E+00 0. -1.
         22    1    3    3    0    0  0.53094554679E+02 -0.49877411697E+02  0.52440873634E+02  0.89759863868E+02  0.00000000000E+00 0. -1.
         22    1    3    3    0    0  0.18888568312E+03  0.62446811669E+02  0.18974321507E+03  0.27491797547E+03  0.00000000000E+00 0. -1.
</event>
<event>
 7    1  0.6294601E-006  0.6876993E+02  0.7818608E-02  0.1420910E+00
          2   -1    0    0  502    0  0.00000000000E+00  0.00000000000E+00  0.86115850593E+03  0.86115850593E+03  0.00000000000E+00 0. -1.
          1   -1    0    0  501    0 -0.00000000000E+00 -0.00000000000E+00 -0.65143519710E+03  0.65143519710E+03  0.00000000000E+00 0. -1.
         25    2    1    2    0    0 -0.52904607637E+02  0.21953260646E+01 -0.23199728045E+03  0.26878705089E+03  0.12498009290E+03 0.  0.
          2    1    1    2  501    0  0.60932499398E+02  0.40775196445E+02 -0.39711826558E+03  0.40382954694E+03  0.00000000000E+00 0. -1.
          1    1    1    2  502    0 -0.80278917611E+01 -0.42970522510E+02  0.83883885486E+03  0.83997710521E+03  0.00000000000E+00 0. -1.
         22    1    3    3    0    0 -0.78856841892E+02  0.11880364015E+02 -0.75365415346E+02  0.10972461161E+03  0.00000000000E+00 0.  1.
         22    1    3    3    0    0  0.25952234255E+02 -0.96850379507E+01 -0.15663186510E+03  0.15906243928E+03  0.00000000000E+00 0.  1.
</event>
<event>
 7    1  0.6294601E-006  0.4800969E+02  0.7818608E-02  0.1465647E+00
          2   -1    0    0  502    0  0.00000000000E+00  0.00000000000E+00  0.30652651330E+03  0.30652651330E+03  0.00000000000E+00 0. -1.
          1   -1    0    0  501    0 -0.00000000000E+00 -0.00000000000E+00 -0.23275837623E+04  0.23275837623E+04  0.00000000000E+00 0. -1.
         25    2    1    2    0    0 -0.83602180997E+02  0.28479290713E+02 -0.46441644886E+03  0.48898732048E+03  0.12500226778E+03 0.  0.
          2    1    1    2  501    0  0.47040947575E+02 -0.24345351892E+01 -0.18488680841E+04  0.18494680235E+04  0.00000000000E+00 0. -1.
          1    1    1    2  502    0  0.36561233422E+02 -0.26044755524E+02  0.29222728396E+03  0.29565493158E+03  0.00000000000E+00 0. -1.
         22    1    3    3    0    0 -0.81843680661E+02 -0.35384694447E+02 -0.27174303109E+03  0.28599779652E+03  0.00000000000E+00 0. -1.
         22    1    3    3    0    0 -0.17585003366E+01  0.63863985160E+02 -0.19267341777E+03  0.20298952396E+03  0.00000000000E+00 0. -1.
</event>
<event>
 7    1  0.6294601E-006  0.3515034E+02  0.7818608E-02  0.1548441E+00
          2   -1    0    0  502    0  0.00000000000E+00  0.00000000000E+00  0.14345651472E+04  0.14345651472E+04  0.00000000000E+00 0. -1.
          1   -1    0    0  501    0 -0.00000000000E+00 -0.00000000000E+00 -0.31951528695E+02  0.31951528695E+02  0.00000000000E+00 0. -1.
         25    2    1    2    0    0  0.29119258567E+02 -0.37046953906E+02  0.73409249030E+03  0.74614940079E+03  0.12500694366E+03 0.  0.
          2    1    1    2  501    0 -0.34816555310E+02  0.22018217725E+01 -0.13518925079E+02  0.37413926259E+02  0.00000000000E+00 0. -1.
          1    1    1    2  502    0  0.56972967438E+01  0.34845132134E+02  0.68204005330E+03  0.68295334886E+03  0.00000000000E+00 0. -1.
         22    1    3    3    0    0 -0.27497287831E+02  0.25944828440E+02  0.38828087073E+03  0.39011699468E+03  0.00000000000E+00 0.  1.
         22    1    3    3    0    0  0.56616546397E+02 -0.62991782346E+02  0.34581161957E+03  0.35603240611E+03  0.00000000000E+00 0.  1.
</event>
<event>
 7    1  0.6294601E-006  0.1643931E+03  0.7818608E-02  0.1220112E+00
          2   -1    0    0  502    0  0.00000000000E+00  0.00000000000E+00  0.55661249301E+03  0.55661249301E+03  0.00000000000E+00 0. -1.
          1   -1    0    0  501    0 -0.00000000000E+00 -0.00000000000E+00 -0.85315358259E+03  0.85315358259E+03  0.00000000000E+00 0. -1.
         25    2    1    2    0    0 -0.11516691677E+03 -0.11073070492E+03  0.79222068306E+02  0.21777369632E+03  0.12499815588E+03 0.  0.
          2    1    1    2  501    0  0.18761083781E+02  0.16572437627E+03 -0.76720283609E+03  0.78512211717E+03  0.00000000000E+00 0. -1.
          1    1    1    2  502    0  0.96405832991E+02 -0.54993671347E+02  0.39143967820E+03  0.40687026212E+03  0.00000000000E+00 0. -1.
         22    1    3    3    0    0 -0.17926546631E+02 -0.28741132305E+02 -0.33630951437E+02  0.47733160956E+02  0.00000000000E+00 0. -1.
         22    1    3    3    0    0 -0.97240370140E+02 -0.81989572614E+02  0.11285301974E+03  0.17004053537E+03  0.00000000000E+00 0. -1.
</event>
<event>
 7    1  0.6294601E-006  0.4143809E+02  0.7818608E-02  0.1514748E+00
          2   -1    0    0  502    0  0.00000000000E+00  0.00000000000E+00  0.42561233283E+03  0.42561233283E+03  0.00000000000E+00 0. -1.
          1   -1    0    0  501    0 -0.00000000000E+00 -0.00000000000E+00 -0.16616856372E+03  0.16616856372E+03  0.00000000000E+00 0. -1.
         25    2    1    2    0    0 -0.67174937068E+02  0.30467348297E+02  0.13706997946E+03  0.19963531385E+03  0.12500139112E+03 0.  0.
          2    1    1    2  501    0  0.27682074050E+02 -0.24462204235E+02 -0.13076052895E+03  0.13587866864E+03  0.00000000000E+00 0. -1.
          1    1    1    2  502    0  0.39492863018E+02 -0.60051440624E+01  0.25313431860E+03  0.25626691406E+03  0.00000000000E+00 0. -1.
         22    1    3    3    0    0 -0.20510610346E+02  0.40267373483E+02 -0.89145135747E+01  0.46060992784E+02  0.00000000000E+00 0.  1.
         22    1    3    3    0    0 -0.46664326722E+02 -0.98000251861E+01  0.14598449304E+03  0.15357432106E+03  0.00000000000E+00 0.  1.
</event>
<event>
 7    1  0.6294601E-006  0.5518077E+02  0.7818608E-02  0.1471055E+00
          2   -1    0    0  502    0  0.00000000000E+00  0.00000000000E+00  0.77128633825E+03  0.77128633825E+03  0.00000000000E+00 0. -1.
          1   -1    0    0  501    0 -0.00000000000E+00 -0.00000000000E+00 -0.32380045302E+03  0.32380045302E+03  0.00000000000E+00 0. -1.
         25    2    1    2    0    0 -0.29887275697E+02  0.24197712543E+02  0.40161809098E+03  0.42236492421E+03  0.12496503375E+03 0.  0.
          2    1    1    2  501    0  0.14265722504E+02  0.34754584371E+02 -0.30969566658E+03  0.31196602038E+03  0.00000000000E+00 0. -1.
          1    1    1    2  502    0  0.15621553193E+02 -0.58952296914E+02  0.35556346083E+03  0.36075584667E+03  0.00000000000E+00 0. -1.
         22    1    3    3    0    0 -0.65095899123E+01  0.52248160598E+02  0.64438854142E+02  0.83214247397E+02  0.00000000000E+00 0. -1.
         22    1    3    3    0    0 -0.23377685785E+02 -0.28050448056E+02  0.33717923684E+03  0.33915067681E+03  0.00000000000E+00 0. -1.
</event>
<event>
 7    1  0.6294601E-006  0.6450866E+02  0.7818608E-02  0.1432699E+00
          2   -1    0    0  502    0  0.00000000000E+00  0.00000000000E+00  0.50449442216E+02  0.50449442216E+02  0.00000000000E+00 0. -1.
          1   -1    0    0  501    0 -0.00000000000E+00 -0.00000000000E+00 -0.10704221166E+04  0.10704221166E+04  0.00000000000E+00 0. -1.
         25    2    1    2    0    0  0.99599431286E+02 -0.17954764594E+02 -0.31165896225E+03  0.35071261266E+03  0.12500243056E+03 0.  0.
          2    1    1    2  501    0 -0.57403585195E+02  0.23808968833E+02 -0.72256942974E+03  0.72523694017E+03  0.00000000000E+00 0. -1.
          1    1    1    2  502    0 -0.42195846091E+02 -0.58542042388E+01  0.14255717628E+02  0.44922005962E+02  0.00000000000E+00 0. -1.
         22    1    3    3    0    0  0.93066421355E+01 -0.11786289674E+02 -0.22470514193E+03  0.22520641870E+03  0.00000000000E+00 0.  1.
         22    1    3    3    0    0  0.90292789150E+02 -0.61684749196E+01 -0.86953820311E+02  0.12550619396E+03  0.00000000000E+00 0.  1.
</event>
<event>
 7    1  0.6294601E-006  0.9660763E+02  0.7818608E-02  0.1338983E+00
          2   -1    0    0  502    0  0.00000000000E+00  0.00000000000E+00  0.22787506944E+03  0.22787506944E+03  0.00000000000E+00 0. -1.
          1   -1    0    0  501    0 -0.00000000000E+00 -0.00000000000E+00 -0.32104709156E+03  0.32104709156E+03  0.00000000000E+00 0. -1.
         25    2    1    2    0    0  0.14653169474E+03 -0.90841154870E+01  0.83752677941E+01  0.19303495636E+03  0.12505315090E+03 0.  0.
          2    1    1    2  501    0 -0.60128334040E+02 -0.85849142314E+01 -0.20855573013E+03  0.21722018754E+03  0.00000000000E+00 0. -1.
          1    1    1    2  502    0 -0.86403360696E+02  0.17669029718E+02  0.10700844022E+03  0.13866701709E+03  0.00000000000E+00 0. -1.
         22    1    3    3    0    0 -0.19092928322E+02 -0.11925371860E+02  0.15337770171E+02  0.27239706307E+02  0.00000000000E+00 0.  1.
         22    1    3    3    0    0  0.16562462306E+03  0.28412563727E+01 -0.69625023769E+01  0.16579525005E+03  0.00000000000E+00 0.  1.
</event>
<event>
 7    1  0.6294601E-006  0.4608230E+02  0.7818608E-02  0.1504788E+00
          2   -1    0    0  502    0  0.00000000000E+00  0.00000000000E+00  0.29662708924E+03  0.29662708924E+03  0.00000000000E+00 0. -1.
          1   -1    0    0  501    0 -0.00000000000E+00 -0.00000000000E+00 -0.16262156721E+04  0.16262156721E+04  0.00000000000E+00 0. -1.
         25    2    1    2    0    0 -0.53105314506E+02 -0.48261029198E+01 -0.19551049003E+03  0.23810082215E+03  0.12499673635E+03 0.  0.
          2    1    1    2  501    0  0.31928894110E+02  0.33367488792E+02 -0.14078829618E+04  0.14086402229E+04  0.00000000000E+00 0. -1.
          1    1    1    2  502    0  0.21176420396E+02 -0.28541385873E+02  0.27380486892E+03  0.27610171628E+03  0.00000000000E+00 0. -1.
         22    1    3    3    0    0 -0.32173573036E+02 -0.58488329752E+02 -0.55875887176E+02  0.87052503048E+02  0.00000000000E+00 0.  1.
         22    1    3    3    0    0 -0.20931741470E+02  0.53662226833E+02 -0.13963460285E+03  0.15104831910E+03  0.00000000000E+00 0.  1.
</event>
<event>
 7    1  0.6294601E-006  0.6266211E+02  0.7818608E-02  0.1477175E+00
          2   -1    0    0  502    0  0.00000000000E+00  0.00000000000E+00  0.37094571490E+03  0.37094571490E+03  0.00000000000E+00 0. -1.
          1   -1    0    0  501    0 -0.00000000000E+00 -0.00000000000E+00 -0.18593105069E+03  0.18593105069E+03  0.00000000000E+00 0. -1.
         25    2    1    2    0    0 -0.82650916397E+02 -0.21032546970E+02  0.13123131264E+03  0.20029709956E+03  0.12499491453E+03 0.  0.
          2    1    1    2  501    0  0.61859817346E+02 -0.28598450253E+01 -0.14375112607E+03  0.15652220916E+03  0.00000000000E+00 0. -1.
          1    1    1    2  502    0  0.20791099050E+02  0.23892391996E+02  0.19753447763E+03  0.20005745687E+03  0.00000000000E+00 0. -1.
         22    1    3    3    0    0  0.87673292382E+01 -0.13191587881E+01 -0.20344698862E+02  0.22192634221E+02  0.00000000000E+00 0.  1.
         22    1    3    3    0    0 -0.91418245635E+02 -0.19713388182E+02  0.15157601150E+03  0.17810446534E+03  0.00000000000E+00 0.  1.
</event>
<event>
 7    1  0.6294601E-006  0.1154984E+03  0.7818608E-02  0.1392901E+00
          2   -1    0    0  502    0  0.00000000000E+00  0.00000000000E+00  0.15213081681E+04  0.15213081681E+04  0.00000000000E+00 0. -1.
          1   -1    0    0  501    0 -0.00000000000E+00 -0.00000000000E+00 -0.65247113971E+03  0.65247113971E+03  0.00000000000E+00 0. -1.
         25    2    1    2    0    0  0.79276175480E+02  0.10307582630E+03 -0.13074171655E+03  0.22277272299E+03  0.12499980679E+03 0.  0.
          2    1    1    2  501    0 -0.46863138780E+02 -0.10368778316E+03 -0.46872829036E+03  0.48234170495E+03  0.00000000000E+00 0. -1.
          1    1    1    2  502    0 -0.32413036700E+02  0.61195686290E+00  0.14683070353E+04  0.14686648799E+04  0.00000000000E+00 0. -1.
         22    1    3    3    0    0  0.49916886499E+02  0.48963650071E+02 -0.14374637744E+03  0.15985041637E+03  0.00000000000E+00 0.  1.
         22    1    3    3    0    0  0.29359288981E+02  0.54112176228E+02  0.13004660897E+02  0.62922306622E+02  0.00000000000E+00 0.  1.
</event>
<event>
 7    1  0.6294601E-006  0.9627249E+02  0.7818608E-02  0.1301055E+00
          2   -1    0    0  502    0  0.00000000000E+00  0.00000000000E+00  0.21032036293E+04  0.21032036293E+04  0.00000000000E+00 0. -1.
          1   -1    0    0  501    0 -0.00000000000E+00 -0.00000000000E+00 -0.43340095549E+03  0.43340095549E+03  0.00000000000E+00 0. -1.
         25    2    1    2    0    0  0.92910717131E+02  0.74802246603E+02 -0.30116938975E+02  0.17538775250E+03  0.12500422496E+03 0.  0.
          2    1    1    2  501    0 -0.82898365968E+02  0.21080824680E+02 -0.32395001168E+03  0.33505245905E+03  0.00000000000E+00 0. -1.
          1    1    1    2  502    0 -0.10012351163E+02 -0.95883071284E+02  0.20238696245E+04  0.20261643733E+04  0.00000000000E+00 0. -1.
         22    1    3    3    0    0  0.12357359350E+03  0.60044243826E+02 -0.15182745365E+02  0.13822539558E+03  0.00000000000E+00 0.  1.
         22    1    3    3    0    0 -0.30662876366E+02  0.14758002777E+02 -0.14934193610E+02  0.37162356919E+02  0.00000000000E+00 0.  1.
</event>
<event>
 7    1  0.6294601E-006  0.1224111E+03  0.7818608E-02  0.1336037E+00
          2   -1    0    0  502    0  0.00000000000E+00  0.00000000000E+00  0.23466437829E+04  0.23466437829E+04  0.00000000000E+00 0. -1.
          1   -1    0    0  501    0 -0.00000000000E+00 -0.00000000000E+00 -0.37363229179E+03  0.37363229179E+03  0.00000000000E+00 0. -1.
         25    2    1    2    0    0  0.11005044068E+03  0.30624805762E+02 -0.10585397501E+03  0.19969876569E+03  0.12500221907E+03 0.  0.
          2    1    1    2  501    0  0.11333044982E+02 -0.47854860418E+02 -0.21646187257E+03  0.22197807966E+03  0.00000000000E+00 0. -1.
          1    1    1    2  502    0 -0.12138348566E+03  0.17230054655E+02  0.22953273387E+04  0.22985992294E+04  0.00000000000E+00 0. -1.
         22    1    3    3    0    0  0.10413049626E+03  0.40319271740E+02 -0.13098390060E+03  0.17212084749E+03  0.00000000000E+00 0. -1.
         22    1    3    3    0    0  0.59199444190E+01 -0.96944659777E+01  0.25129925587E+02  0.27577918205E+02  0.00000000000E+00 0. -1.
</event>
<event>
 7    1  0.6294601E-006  0.5027113E+02  0.7818608E-02  0.1520044E+00
          2   -1    0    0  502    0  0.00000000000E+00  0.00000000000E+00  0.82916428973E+03  0.82916428973E+03  0.00000000000E+00 0. -1.
          1   -1    0    0  501    0 -0.00000000000E+00 -0.00000000000E+00 -0.52450557890E+03  0.52450557890E+03  0.00000000000E+00 0. -1.
         25    2    1    2    0    0 -0.28507584071E+02 -0.71739332913E+01 -0.18091643667E+01  0.12841646049E+03  0.12499346615E+03 0.  0.
          2    1    1    2  501    0  0.48844371521E+02 -0.14040445823E+02 -0.45770385748E+03  0.46051680523E+03  0.00000000000E+00 0. -1.
          1    1    1    2  502    0 -0.20336787450E+02  0.21214379114E+02  0.76417173268E+03  0.76473660291E+03  0.00000000000E+00 0. -1.
         22    1    3    3    0    0 -0.26640959408E+02 -0.45189854914E+02 -0.46228222595E+02  0.69920757073E+02  0.00000000000E+00 0.  1.
         22    1    3    3    0    0 -0.18666246631E+01  0.38015921622E+02  0.44419058228E+02  0.58495703418E+02  0.00000000000E+00 0.  1.
</event>
<event>
 7    1  0.6294601E-006  0.9422363E+02  0.7818608E-02  0.1366117E+00
          2   -1    0    0  502    0  0.00000000000E+00  0.00000000000E+00  0.17458099350E+04  0.17458099350E+04  0.00000000000E+00 0. -1.
          1   -1    0    0  501    0 -0.00000000000E+00 -0.00000000000E+00 -0.18624772481E+03  0.18624772481E+03  0.00000000000E+00 0. -1.
         25    2    1    2    0    0 -0.17969523373E+02 -0.13625585109E+03  0.16656575645E+03  0.24951248288E+03  0.12499506856E+03 0.  0.
          2    1    1    2  501    0  0.23375845713E+02  0.43574487287E+02 -0.13910548218E+03  0.14763299522E+03  0.00000000000E+00 0. -1.
          1    1    1    2  502    0 -0.54063223402E+01  0.92681363802E+02  0.15321019359E+04  0.15349121817E+04  0.00000000000E+00 0. -1.
         22    1    3    3    0    0 -0.17640377002E+02  0.12435939470E+02 -0.53279858993E+01  0.22231125140E+02  0.00000000000E+00 0. -1.
         22    1    3    3    0    0 -0.32914637133E+00 -0.14869179056E+03  0.17189374235E+03  0.22728135774E+03  0.00000000000E+00 0. -1.
</event>
<event>
 7    1  0.6294601E-006  0.1491038E+03  0.7818608E-02  0.1219266E+00
          2   -1    0    0  502    0  0.00000000000E+00  0.00000000000E+00  0.10836191345E+04  0.10836191345E+04  0.00000000000E+00 0. -1.
          1   -1    0    0  501    0 -0.00000000000E+00 -0.00000000000E+00 -0.47564082481E+03  0.47564082481E+03  0.00000000000E+00 0. -1.
         25    2    1    2    0    0 -0.10910122217E+03 -0.16362114693E+03  0.19104587093E+03  0.30132718127E+03  0.12499835587E+03 0.  0.
          2    1    1    2  501    0 -0.32044197314E+02  0.11923009815E+03 -0.40468498689E+03  0.42309878929E+03  0.00000000000E+00 0. -1.
          1    1    1    2  502    0  0.14114541948E+03  0.44391048772E+02  0.82161742568E+03  0.83483398878E+03  0.00000000000E+00 0. -1.
         22    1    3    3    0    0 -0.12589378423E+03 -0.17220771867E+03  0.16789045211E+03  0.27146260735E+03  0.00000000000E+00 0. -1.
         22    1    3    3    0    0  0.16792562056E+02  0.85865717467E+01  0.23155418822E+02  0.29864573923E+02  0.00000000000E+00 0. -1.
</event>
<event>
 7    1  0.6294601E-006  0.4230037E+02  0.7818608E-02  0.1499664E+00
          2   -1    0    0  502    0  0.00000000000E+00  0.00000000000E+00  0.83927774159E+03  0.83927774159E+03  0.00000000000E+00 0. -1.
          1   -1    0    0  501    0 -0.00000000000E+00 -0.00000000000E+00 -0.15431366062E+03  0.15431366062E+03  0.00000000000E+00 0. -1.
         25    2    1    2    0    0 -0.11750663579E+02  0.85912770880E+01  0.33419453486E+03  0.35710482400E+03  0.12500392016E+03 0.  0.
          2    1    1    2  501    0 -0.30054131338E+02 -0.26547508986E+02 -0.13896913145E+03  0.14463900076E+03  0.00000000000E+00 0. -1.
          1    1    1    2  502    0  0.41804794918E+02  0.17956231898E+02  0.48973867757E+03  0.49184757746E+03  0.00000000000E+00 0. -1.
         22    1    3    3    0    0 -0.26464213409E+02  0.21009157497E+02  0.14398106884E+02  0.36729344834E+02  0.00000000000E+00 0. -1.
         22    1    3    3    0    0  0.14713549830E+02 -0.12417880409E+02  0.31979642797E+03  0.32037547916E+03  0.00000000000E+00 0. -1.
</event>
<event>
 7    1  0.6294601E-006  0.9174183E+02  0.7818608E-02  0.1397282E+00
          2   -1    0    0  502    0  0.00000000000E+00  0.00000000000E+00  0.24549407090E+04  0.24549407090E+04  0.00000000000E+00 0. -1.
          1   -1    0    0  501    0 -0.00000000000E+00 -0.00000000000E+00 -0.79195218865E+02  0.79195218865E+02  0.00000000000E+00 0. -1.
         25    2    1    2    0    0 -0.92934128873E+02 -0.41646836812E+02  0.65240727285E+03  0.67203500072E+03  0.12499832479E+03 0.  0.
          2    1    1    2  501    0  0.62644625558E+02  0.66863331881E+02 -0.38814957491E+02  0.99507060988E+02  0.00000000000E+00 0. -1.
          1    1    1    2  502    0  0.30289503314E+02 -0.25216495069E+02  0.17621531748E+04  0.17625938662E+04  0.00000000000E+00 0. -1.
         22    1    3    3    0    0  0.28830324871E+02 -0.50006694508E+01  0.19878627675E+03  0.20092829107E+03  0.00000000000E+00 0. -1.
         22    1    3    3    0    0 -0.12176445374E+03 -0.36646167361E+02  0.45362099609E+03  0.47110670965E+03  0.00000000000E+00 0. -1.
</event>
<event>
 7    1  0.6294601E-006  0.8989469E+02  0.7818608E-02  0.1402867E+00
          2   -1    0    0  502    0  0.00000000000E+00  0.00000000000E+00  0.21357193021E+03  0.21357193021E+03  0.00000000000E+00 0. -1.
          1   -1    0    0  501    0 -0.00000000000E+00 -0.00000000000E+00 -0.39801071934E+03  0.39801071934E+03  0.00000000000E+00 0. -1.
         25    2    1    2    0    0  0.93401659192E+02  0.81879135876E+02 -0.29694566723E+02  0.17869924127E+03  0.12499435470E+03 0.  0.
          2    1    1    2  501    0 -0.59810018212E+02 -0.63104352333E+02 -0.28452742499E+03  0.29751513093E+03  0.00000000000E+00 0. -1.
          1    1    1    2  502    0 -0.33591640979E+02 -0.18774783543E+02  0.12978320258E+03  0.13536827735E+03  0.00000000000E+00 0. -1.
         22    1    3    3    0    0  0.38205047640E+02  0.72843977045E+02  0.38234443975E+02  0.90706909125E+02  0.00000000000E+00 0.  1.
         22    1    3    3    0    0  0.55196611552E+02  0.90351588310E+01 -0.67929010698E+02  0.87992332145E+02  0.00000000000E+00 0.  1.
</event>
<event>
 7    1  0.6294601E-006  0.6308332E+02  0.7818608E-02  0.1436292E+00
          2   -1    0    0  502    0  0.00000000000E+00  0.00000000000E+00  0.49481649432E+03  0.49481649432E+03  0.00000000000E+00 0. -1.
          1   -1    0    0  501    0 -0.00000000000E+00 -0.00000000000E+00 -0.15361903312E+04  0.15361903312E+04  0.00000000000E+00 0. -1.
         25    2    1    2    0    0 -0.78328138879E+02 -0.57891704982E+02  0.11828915234E+03  0.19774820129E+03  0.12500112282E+03 0.  0.
          2    1    1    2  501    0  0.59776288722E+02  0.19766383719E+02 -0.14944609540E+04  0.14957865682E+04  0.00000000000E+00 0. -1.
          1    1    1    2  502    0  0.18551850156E+02  0.38125321263E+02  0.33479796486E+03  0.33747205594E+03  0.00000000000E+00 0. -1.
         22    1    3    3    0    0 -0.51772912523E+02 -0.22261032933E+02 -0.14105891233E+02  0.58094442297E+02  0.00000000000E+00 0. -1.
         22    1    3    3    0    0 -0.26555226356E+02 -0.35630672050E+02  0.13239504358E+03  0.13965375899E+03  0.00000000000E+00 0. -1.
</event>
<event>
 7    1  0.6294601E-006  0.9639473E+02  0.7818608E-02  0.1392517E+00
          2   -1    0    0  502    0  0.00000000000E+00  0.00000000000E+00  0.90235208008E+03  0.90235208008E+03  0.00000000000E+00 0. -1.
          1   -1    0    0  501    0 -0.00000000000E+00 -0.00000000000E+00 -0.38527048802E+02  0.38527048802E+02  0.00000000000E+00 0. -1.
         25    2    1    2    0    0 -0.54705150213E+02  0.32634517344E+02  0.69188448610E+03  0.70596751982E+03  0.12501332632E+03 0.  0.
          2    1    1    2  501    0  0.93320066314E+02 -0.37833827659E+02  0.61959992356E+02  0.11823313387E+03  0.00000000000E+00 0. -1.
          1    1    1    2  502    0 -0.38614916100E+02  0.51993103157E+01  0.10998055282E+03  0.11667847519E+03  0.00000000000E+00 0. -1.
         22    1    3    3    0    0 -0.92568771057E+02  0.12618487176E+02  0.38852505289E+03  0.39959970009E+03  0.00000000000E+00 0. -1.
         22    1    3    3    0    0  0.37863620844E+02  0.20016030168E+02  0.30335943321E+03  0.30636781973E+03  0.00000000000E+00 0. -1.
</event>
<event>
 7    1  0.6294601E-006  0.4864789E+02  0.7818608E-02  0.1574319E+00
          2   -1    0    0  502    0  0.00000000000E+00  0.00000000000E+00  0.47960371284E+02  0.47960371284E+02  0.00000000000E+00 0. -1.
          1   -1    0    0  501    0 -0.00000000000E+00 -0.00000000000E+00 -0.42695139106E+03  0.42695139106E+03  0.00000000000E+00 0. -1.
         25    2    1    2    0    0 -0.20941150690E+02 -0.24941753531E+02 -0.36683741735E+03  0.38891604629E+03  0.12500150975E+03 0.  0.
          2    1    1    2  501    0 -0.21386456289E+02 -0.75228230477E+00 -0.26859716099E+02  0.34342259538E+02  0.00000000000E+00 0. -1.
          1    1    1    2  502    0  0.42327606979E+02  0.25694035835E+02  0.14706113670E+02  0.51653456510E+02  0.00000000000E+00 0. -1.
         22    1    3    3    0    0 -0.31671705811E+01  0.39462638573E+02 -0.43794140568E+02  0.59036069997E+02  0.00000000000E+00 0. -1.
         22    1    3    3    0    0 -0.17773980109E+02 -0.64404392103E+02 -0.32304327678E+03  0.32987997630E+03  0.00000000000E+00 0. -1.
</event>
<event>
 7    1  0.6294601E-006  0.8440376E+02  0.7818608E-02  0.1369696E+00
          2   -1    0    0  502    0  0.00000000000E+00  0.00000000000E+00  0.18671527582E+04  0.18671527582E+04  0.00000000000E+00 0. -1.
          1   -1    0    0  501    0 -0.00000000000E+00 -0.00000000000E+00 -0.64612489137E+03  0.64612489137E+03  0.00000000000E+00 0. -1.
         25    2    1    2    0    0  0.10982594340E+03 -0.43789502644E+02 -0.14128931781E+03  0.22264097075E+03  0.12500828830E+03 0.  0.
          2    1    1    2  501    0 -0.58159830063E+02  0.58001278423E+02 -0.46012902614E+03  0.46740286139E+03  0.00000000000E+00 0. -1.
          1    1    1    2  502    0 -0.51666113333E+02 -0.14211775779E+02  0.18224462108E+04  0.18232338174E+04  0.00000000000E+00 0. -1.
         22    1    3    3    0    0  0.55988514018E+02  0.16579876968E+02  0.16349009054E+01  0.58414714955E+02  0.00000000000E+00 0.  1.
         22    1    3    3    0    0  0.53837429377E+02 -0.60369379612E+02 -0.14292421871E+03  0.16422625579E+03  0.00000000000E+00 0.  1.
</event>
<event>
 7    1  0.6294601E-006  0.1022243E+03  0.7818608E-02  0.1278051E+00
          2   -1    0    0  502    0  0.00000000000E+00  0.00000000000E+00  0.29625948260E+03  0.29625948260E+03  0.00000000000E+00 0. -1.
          1   -1    0    0  501    0 -0.00000000000E+00 -0.00000000000E+00 -0.47095841682E+03  0.47095841682E+03  0.00000000000E+00 0. -1.
         25    2    1    2    0    0  0.16031557072E+02  0.20875129060E+02  0.13292581412E+03  0.18435600896E+03  0.12500033658E+03 0.  0.
          2    1    1    2  501    0  0.56111247914E+02 -0.90035851032E+02 -0.41958290681E+03  0.43278717900E+03  0.00000000000E+00 0. -1.
          1    1    1    2  502    0 -0.72142804986E+02  0.69160721972E+02  0.11195815846E+03  0.15007471147E+03  0.00000000000E+00 0. -1.
         22    1    3    3    0    0 -0.46100409933E+02  0.31114666101E+02  0.28704314773E+02  0.62588400915E+02  0.00000000000E+00 0.  1.
         22    1    3    3    0    0  0.62131967004E+02 -0.10239537041E+02  0.10422149935E+03  0.12176760805E+03  0.00000000000E+00 0.  1.
</event>
<event>
 7    1  0.6294601E-006  0.1579329E+03  0.7818608E-02  0.1200854E+00
          2   -1    0    0  502    0  0.00000000000E+00  0.00000000000E+00  0.96975984202E+03  0.96975984202E+03  0.00000000000E+00 0. -1.
          1   -1    0    0  501    0 -0.00000000000E+00 -0.00000000000E+00 -0.21557474292E+03  0.21557474292E+03  0.00000000000E+00 0. -1.
         25    2    1    2    0    0 -0.11949307226E+03 -0.10284242578E+03  0.31154440443E+03  0.37086419252E+03  0.12500069803E+03 0.  0.
          2    1    1    2  501    0 -0.54623936745E+02  0.13094050885E+03 -0.14384403485E+03  0.20204033678E+03  0.00000000000E+00 0. -1.
          1    1    1    2  502    0  0.17411700900E+03 -0.28098083070E+02  0.58648472952E+03  0.61243005565E+03  0.00000000000E+00 0. -1.
         22    1    3    3    0    0 -0.12870570967E+03 -0.11939854288E+03  0.30276421709E+03  0.34998191795E+03  0.00000000000E+00 0. -1.
         22    1    3    3    0    0  0.92126374129E+01  0.16556117100E+02  0.87801873379E+01  0.20882274570E+02  0.00000000000E+00 0. -1.
</event>
<event>
 7    1  0.6294601E-006  0.1032520E+03  0.7818608E-02  0.1424594E+00
          2   -1    0    0  502    0  0.00000000000E+00  0.00000000000E+00  0.11027603354E+04  0.11027603354E+04  0.00000000000E+00 0. -1.
          1   -1    0    0  501    0 -0.00000000000E+00 -0.00000000000E+00 -0.48031916590E+03  0.48031916590E+03  0.00000000000E+00 0. -1.
         25    2    1    2    0    0 -0.11364548817E+03  0.20186113828E+02 -0.12272833785E+03  0.20978394829E+03  0.12499713547E+03 0.  0.
          2    1    1    2  501    0  0.19074844745E+02  0.20912449006E+02 -0.31090907536E+03  0.31219486441E+03  0.00000000000E+00 0. -1.
          1    1    1    2  502    0  0.94570643422E+02 -0.41098562834E+02  0.10560785827E+04  0.10611006885E+04  0.00000000000E+00 0. -1.
         22    1    3    3    0    0 -0.51487975483E+02 -0.41301506770E+01  0.17454440022E+02  0.54522722239E+02  0.00000000000E+00 0.  1.
         22    1    3    3    0    0 -0.62157512685E+02  0.24316264505E+02 -0.14018277787E+03  0.15526122605E+03  0.00000000000E+00 0.  1.
</event>
<event>
 7    1  0.6294601E-006  0.5395170E+02  0.7818608E-02  0.1504181E+00
          2   -1    0    0  502    0  0.00000000000E+00  0.00000000000E+00  0.95118080631E+03  0.95118080631E+03  0.00000000000E+00 0. -1.
          1   -1    0    0  501    0 -0.00000000000E+00 -0.00000000000E+00 -0.13930220861E+04  0.13930220861E+04  0.00000000000E+00 0. -1.
         25    2    1    2    0    0  0.72517108759E+02  0.34948974995E+02  0.52979849807E+03  0.55026541371E+03  0.12500166023E+03 0.  0.
          2    1    1    2  501    0 -0.42058704894E+02 -0.33753207397E+02 -0.13816969333E+04  0.13827489393E+04  0.00000000000E+00 0. -1.
          1    1    1    2  502    0 -0.30458403866E+02 -0.11957675976E+01  0.41005715542E+03  0.41118853941E+03  0.00000000000E+00 0. -1.
         22    1    3    3    0    0 -0.35041592168E+02 -0.13736024155E+01  0.13308052075E+03  0.13762348989E+03  0.00000000000E+00 0. -1.
         22    1    3    3    0    0  0.10755870093E+03  0.36322577410E+02  0.39671797731E+03  0.41264192383E+03  0.00000000000E+00 0. -1.
</event>
<event>
 7    1  0.7610980E-006  0.1568884E+03  0.7818608E-02  0.1217639E+00
          2   -1    0    0  502    0  0.00000000000E+00  0.00000000000E+00  0.25514772323E+04  0.25514772323E+04  0.00000000000E+00 0. -1.
          1   -1    0    0  501    0 -0.00000000000E+00 -0.00000000000E+00 -0.97190548805E+03  0.97190548805E+03  0.00000000000E+00 0. -1.
         25    2    1    2    0    0 -0.12041836305E+03  0.10602214195E+03 -0.10529844024E+03  0.22902750198E+03  0.12499823359E+03 0.  0.
          2    1    1    2  501    0 -0.36904883428E+02 -0.11351259401E+03 -0.79780730375E+03  0.80668678763E+03  0.00000000000E+00 0. -1.
          1    1    1    2  502    0  0.15732324648E+03  0.74904520599E+01  0.24826774882E+04  0.24876684307E+04  0.00000000000E+00 0. -1.
         22    1    3    3    0    0 -0.12645521054E+03  0.85547320505E+02 -0.12699732364E+03  0.19858898391E+03  0.00000000000E+00 0. -1.
         22    1    3    3    0    0  0.60368474928E+01  0.20474821450E+02  0.21698883404E+02  0.30438518065E+02  0.00000000000E+00 0. -1.
</event>
<event>
 7    1  0.6294601E-006  0.4192226E+02  0.7818608E-02  0.1518093E+00
          2   -1    0    0  502    0  0.00000000000E+00  0.00000000000E+00  0.64214569502E+02  0.64214569502E+02  0.00000000000E+00 0. -1.
          1   -1    0    0  501    0 -0.00000000000E+00 -0.00000000000E+00 -0.49342946704E+03  0.49342946704E+03  0.00000000000E+00 0. -1.
         25    2    1    2    0    0 -0.39279187681E+02 -0.92595321179E+01 -0.35430852602E+03  0.37787219725E+03  0.12499708926E+03 0.  0.
          2    1    1    2  501    0  0.38189106414E+02 -0.26427447905E+02 -0.11622747960E+03  0.12516247387E+03  0.00000000000E+00 0. -1.
          1    1    1    2  502    0  0.10900812669E+01  0.35686980023E+02  0.41321108074E+02  0.54609365431E+02  0.00000000000E+00 0. -1.
         22    1    3    3    0    0 -0.77258554791E+02 -0.27090161131E+02 -0.28794672005E+03  0.29935944065E+03  0.00000000000E+00 0.  1.
         22    1    3    3    0    0  0.37979367110E+02  0.17830629013E+02 -0.66361805966E+02  0.78512756595E+02  0.00000000000E+00 0.  1.
</event>
<event>
 7    1  0.6294601E-006  0.4685976E+02  0.7818608E-02  0.1543259E+00
          2   -1    0    0  502    0  0.00000000000E+00  0.00000000000E+00  0.22209176869E+03  0.22209176869E+03  0.00000000000E+00 0. -1.
          1   -1    0    0  501    0 -0.00000000000E+00 -0.00000000000E+00 -0.16181466128E+03  0.16181466128E+03  0.00000000000E+00 0. -1.
         25    2    1    2    0    0 -0.38225493758E+02 -0.60449128489E+02  0.14356208271E+02  0.14472348423E+03  0.12499400251E+03 0.  0.
          2    1    1    2  501    0  0.91240653366E+01  0.25474741763E+02 -0.90980358993E+02  0.94919106394E+02  0.00000000000E+00 0. -1.
          1    1    1    2  502    0  0.29101428422E+02  0.34974386726E+02  0.13690125814E+03  0.14426383934E+03  0.00000000000E+00 0. -1.
         22    1    3    3    0    0 -0.31035010558E+02 -0.49523119130E+02 -0.51307352392E+02  0.77769888891E+02  0.00000000000E+00 0. -1.
         22    1    3    3    0    0 -0.71904832002E+01 -0.10926009359E+02  0.65663560664E+02  0.66953595334E+02  0.00000000000E+00 0. -1.
</event>
<event>
 7    1  0.6294601E-006  0.6955447E+02  0.7818608E-02  0.1417172E+00
          2   -1    0    0  502    0  0.00000000000E+00  0.00000000000E+00  0.94456714045E+03  0.94456714045E+03  0.00000000000E+00 0. -1.
          1   -1    0    0  501    0 -0.00000000000E+00 -0.00000000000E+00 -0.68833135713E+03  0.68833135713E+03  0.00000000000E+00 0. -1.
         25    2    1    2    0    0 -0.97471280235E+01  0.70097182407E+02 -0.40537365729E+03  0.43007144422E+03  0.12500009448E+03 0.  0.
          2    1    1    2  501    0  0.50653483340E+02 -0.52621223155E+02 -0.26513710424E+03  0.27501354975E+03  0.00000000000E+00 0. -1.
          1    1    1    2  502    0 -0.40906355316E+02 -0.17475959252E+02  0.92674654486E+03  0.92781350360E+03  0.00000000000E+00 0. -1.
         22    1    3    3    0    0 -0.22807280056E+02  0.99406382201E+02 -0.22733799398E+03  0.24916734206E+03  0.00000000000E+00 0. -1.
         22    1    3    3    0    0  0.13060152033E+02 -0.29309199794E+02 -0.17803566332E+03  0.18090410216E+03  0.00000000000E+00 0. -1.
</event>
<event>
 7    1  0.6294601E-006  0.2697200E+02  0.7818608E-02  0.1645357E+00
          2   -1    0    0  502    0  0.00000000000E+00  0.00000000000E+00  0.27048204044E+03  0.27048204044E+03  0.00000000000E+00 0. -1.
          1   -1    0    0  501    0 -0.00000000000E+00 -0.00000000000E+00 -0.51509402912E+02  0.51509402912E+02  0.00000000000E+00 0. -1.
         25    2    1    2    0    0 -0.14255487115E+02 -0.56451111600E+01  0.69795091536E+02  0.14398371616E+03  0.12499947809E+03 0.  0.
          2    1    1    2  501    0  0.18591880828E+02 -0.20976021797E+02  0.16967001816E+01  0.28080781945E+02  0.00000000000E+00 0. -1.
          1    1    1    2  502    0 -0.43363937126E+01  0.26621132957E+02  0.14748084581E+03  0.14992694524E+03  0.00000000000E+00 0. -1.
         22    1    3    3    0    0 -0.28533442870E+00 -0.24923865943E+02  0.10139781480E+03  0.10441646114E+03  0.00000000000E+00 0.  1.
         22    1    3    3    0    0 -0.13970152686E+02  0.19278754783E+02 -0.31602723268E+02  0.39567255023E+02  0.00000000000E+00 0.  1.
</event>
<event>
 7    1  0.6294601E-006  0.3742521E+03  0.7818608E-02  0.1106262E+00
          2   -1    0    0  502    0  0.00000000000E+00  0.00000000000E+00  0.15910684256E+04  0.15910684256E+04  0.00000000000E+00 0. -1.
          1   -1    0    0  501    0 -0.00000000000E+00 -0.00000000000E+00 -0.33289373457E+03  0.33289373457E+03  0.00000000000E+00 0. -1.
         25    2    1    2    0    0  0.47661136660E+03 -0.15516213902E+03  0.52512450604E+03  0.73662495976E+03  0.12500760116E+03 0.  0.
          2    1    1    2  501    0 -0.13988888689E+03  0.11748519775E+03 -0.15327070854E+03  0.23846086149E+03  0.00000000000E+00 0. -1.
          1    1    1    2  502    0 -0.33672247970E+03  0.37676941271E+02  0.88632089357E+03  0.94887633895E+03  0.00000000000E+00 0. -1.
         22    1    3    3    0    0  0.37553060412E+03 -0.70850058963E+02  0.35570257731E+03  0.52207977264E+03  0.00000000000E+00 0.  1.
         22    1    3    3    0    0  0.10108076247E+03 -0.84312080059E+02  0.16942192873E+03  0.21454518713E+03  0.00000000000E+00 0.  1.
</event>
<event>
 7    1  0.6294601E-006  0.4359622E+02  0.7818608E-02  0.1502380E+00
          2   -1    0    0  502    0  0.00000000000E+00  0.00000000000E+00  0.41913197629E+02  0.41913197629E+02  0.00000000000E+00 0. -1.
          1   -1    0    0  501    0 -0.00000000000E+00 -0.00000000000E+00 -0.22251982583E+04  0.22251982583E+04  0.00000000000E+00 0. -1.
         25    2    1    2    0    0  0.29646778685E+02 -0.54916489818E+01 -0.25620750259E+03  0.28666046628E+03  0.12499139511E+03 0.  0.
          2    1    1    2  501    0 -0.29518079828E+02 -0.32698057628E+02 -0.19397220843E+04  0.19402222152E+04  0.00000000000E+00 0. -1.
          1    1    1    2  502    0 -0.12869885703E+00  0.38189706610E+02  0.12644526182E+02  0.40228774487E+02  0.00000000000E+00 0. -1.
         22    1    3    3    0    0  0.52129329993E+01 -0.38787748441E+01  0.13953395799E+02  0.15392102490E+02  0.00000000000E+00 0.  1.
         22    1    3    3    0    0  0.24433845686E+02 -0.16128741377E+01 -0.27016089839E+03  0.27126836379E+03  0.00000000000E+00 0.  1.
</event>
<event>
 7    1  0.6294601E-006  0.1405502E+03  0.7818608E-02  0.1420081E+00
          2   -1    0    0  502    0  0.00000000000E+00  0.00000000000E+00  0.19234805834E+04  0.19234805834E+04  0.00000000000E+00 0. -1.
          1   -1    0    0  501    0 -0.00000000000E+00 -0.00000000000E+00 -0.27134830405E+03  0.27134830405E+03  0.00000000000E+00 0. -1.
         25    2    1    2    0    0  0.53143964495E+02 -0.15142344294E+03  0.19816744238E+03  0.28398427587E+03  0.12499357458E+03 0.  0.
          2    1    1    2  501    0 -0.41116130332E+01  0.21129230769E+02 -0.22504553260E+03  0.22607264651E+03  0.00000000000E+00 0. -1.
          1    1    1    2  502    0 -0.49032351462E+02  0.13029421217E+03  0.16790103696E+04  0.16847719651E+04  0.00000000000E+00 0. -1.
         22    1    3    3    0    0  0.58340341468E+02 -0.97100207104E+02  0.45884712463E+02  0.12221887129E+03  0.00000000000E+00 0.  1.
         22    1    3    3    0    0 -0.51963769728E+01 -0.54323235836E+02  0.15228272992E+03  0.16176540458E+03  0.00000000000E+00 0.  1.
</event>
<event>
 7    1  0.6294601E-006  0.6607257E+02  0.7818608E-02  0.1406095E+00
          2   -1    0    0  502    0  0.00000000000E+00  0.00000000000E+00  0.82994129451E+03  0.82994129451E+03  0.00000000000E+00 0. -1.
          1   -1    0    0  501    0 -0.00000000000E+00 -0.00000000000E+00 -0.52004001014E+02  0.52004001014E+02  0.00000000000E+00 0. -1.
         25    2    1    2    0    0  0.29791846969E+02  0.45701832451E+01  0.15268454984E+03  0.19959098216E+03  0.12496218499E+03 0.  0.
          2    1    1    2  501    0 -0.67458223987E+02 -0.39019861688E+02  0.27823583528E+02  0.82748494789E+02  0.00000000000E+00 0. -1.
          1    1    1    2  502    0  0.37666377017E+02  0.34449678442E+02  0.59742916012E+03  0.59960581857E+03  0.00000000000E+00 0. -1.
         22    1    3    3    0    0 -0.87947554285E+01  0.28024340652E+02 -0.97881945874E+01  0.30959976507E+02  0.00000000000E+00 0.  1.
         22    1    3    3    0    0  0.38586602398E+02 -0.23454157407E+02  0.16247274443E+03  0.16863100565E+03  0.00000000000E+00 0.  1.
</event>
<event>
 7    1  0.6294601E-006  0.8894307E+02  0.7818608E-02  0.1312179E+00
          2   -1    0    0  502    0  0.00000000000E+00  0.00000000000E+00  0.10928418636E+04  0.10928418636E+04  0.00000000000E+00 0. -1.
          1   -1    0    0  501    0 -0.00000000000E+00 -0.00000000000E+00 -0.14943474519E+03  0.14943474519E+03  0.00000000000E+00 0. -1.
         25    2    1    2    0    0  0.14415927049E+03  0.65963956039E+02  0.59847768878E+03  0.63161028062E+03  0.12499145510E+03 0.  0.
          2    1    1    2  501    0 -0.60553833960E+02 -0.63194158866E+02 -0.11425461791E+03  0.14392493264E+03  0.00000000000E+00 0. -1.
          1    1    1    2  502    0 -0.83605436525E+02 -0.27697971730E+01  0.45918404754E+03  0.46674139554E+03  0.00000000000E+00 0. -1.
         22    1    3    3    0    0 -0.41814919008E+01 -0.24334394587E+02  0.42615624402E+02  0.49251792633E+02  0.00000000000E+00 0. -1.
         22    1    3    3    0    0  0.14834076239E+03  0.90298350626E+02  0.55586206438E+03  0.58235848799E+03  0.00000000000E+00 0. -1.
</event>
<event>
 7    1  0.6294601E-006  0.1444099E+03  0.7818608E-02  0.1224665E+00
          2   -1    0    0  502    0  0.00000000000E+00  0.00000000000E+00  0.16541085036E+04  0.16541085036E+04  0.00000000000E+00 0. -1.
          1   -1    0    0  501    0 -0.00000000000E+00 -0.00000000000E+00 -0.40687453689E+03  0.40687453689E+03  0.00000000000E+00 0. -1.
         25    2    1    2    0    0 -0.16480077389E+03 -0.17882148354E+03  0.14712120445E+03  0.31049598424E+03  0.12500675735E+03 0.  0.
          2    1    1    2  501    0  0.10997032331E+03  0.49194391618E+02 -0.31040546709E+03  0.33296413347E+03  0.00000000000E+00 0. -1.
          1    1    1    2  502    0  0.54830450575E+02  0.12962709192E+03  0.14105182293E+04  0.14175229228E+04  0.00000000000E+00 0. -1.
         22    1    3    3    0    0 -0.16484721792E+02 -0.51255861138E+01 -0.20783331232E+02  0.27017855997E+02  0.00000000000E+00 0. -1.
         22    1    3    3    0    0 -0.14831605210E+03 -0.17369589743E+03  0.16790453568E+03  0.28347812825E+03  0.00000000000E+00 0. -1.
</event>
<event>
 7    1  0.6294601E-006  0.9953256E+02  0.7818608E-02  0.1351207E+00
          2   -1    0    0  502    0  0.00000000000E+00  0.00000000000E+00  0.14569047972E+04  0.14569047972E+04  0.00000000000E+00 0. -1.
          1   -1    0    0  501    0 -0.00000000000E+00 -0.00000000000E+00 -0.17027901529E+03  0.17027901529E+03  0.00000000000E+00 0. -1.
         25    2    1    2    0    0  0.40834080060E+02 -0.47762100906E+02  0.16546787154E+03  0.21668800353E+03  0.12500173593E+03 0.  0.
          2    1    1    2  501    0 -0.13085988073E+02 -0.51434659734E+02 -0.13762584713E+03  0.14750471553E+03  0.00000000000E+00 0. -1.
          1    1    1    2  502    0 -0.27748091986E+02  0.99196760640E+02  0.12587837575E+04  0.12629910934E+04  0.00000000000E+00 0. -1.
         22    1    3    3    0    0 -0.44314271658E+02 -0.17880510752E+02  0.74844168517E+02  0.88798180715E+02  0.00000000000E+00 0. -1.
         22    1    3    3    0    0  0.85148351718E+02 -0.29881590153E+02  0.90623703023E+02  0.12788982282E+03  0.00000000000E+00 0. -1.
</event>
<event>
 7    1  0.6294601E-006  0.8806997E+02  0.7818608E-02  0.1440987E+00
          2   -1    0    0  502    0  0.00000000000E+00  0.00000000000E+00  0.15664581060E+03  0.15664581060E+03  0.00000000000E+00 0. -1.
          1   -1    0    0  501    0 -0.00000000000E+00 -0.00000000000E+00 -0.12844589480E+04  0.12844589480E+04  0.00000000000E+00 0. -1.
         25    2    1    2    0    0  0.10131065180E+03 -0.36509994326E+02  0.10183599944E+02  0.16529882633E+03  0.12499267348E+03 0.  0.
          2    1    1    2  501    0 -0.87083301239E+02  0.10871815148E+02 -0.12021083335E+04  0.12053074890E+04  0.00000000000E+00 0. -1.
          1    1    1    2  502    0 -0.14227350564E+02  0.25638179178E+02  0.64111596143E+02  0.70498443214E+02  0.00000000000E+00 0. -1.
         22    1    3    3    0    0  0.14482638002E+01 -0.48856764033E+02  0.36838080031E+02  0.61205596150E+02  0.00000000000E+00 0.  1.
         22    1    3    3    0    0  0.99862388004E+02  0.12346769707E+02 -0.26654480087E+02  0.10409323018E+03  0.00000000000E+00 0.  1.
</event>
<event>
 7    1  0.6294601E-006  0.1140135E+03  0.7818608E-02  0.1323226E+00
          2   -1    0    0  502    0  0.00000000000E+00  0.00000000000E+00  0.35473497270E+03  0.35473497270E+03  0.00000000000E+00 0. -1.
          1   -1    0    0  501    0 -0.00000000000E+00 -0.00000000000E+00 -0.13320070493E+04  0.13320070493E+04  0.00000000000E+00 0. -1.
         25    2    1    2    0    0  0.80590435455E+02  0.14843592383E+03 -0.18722265330E+03  0.28143432589E+03  0.12499966444E+03 0.  0.
          2    1    1    2  501    0 -0.38150301389E+02 -0.45141624630E+02 -0.10867143424E+04  0.10883203912E+04  0.00000000000E+00 0. -1.
          1    1    1    2  502    0 -0.42440134066E+02 -0.10329429920E+03  0.29666491915E+03  0.31698730492E+03  0.00000000000E+00 0. -1.
         22    1    3    3    0    0 -0.26712333592E+02  0.75277397210E+02 -0.79599061803E+02  0.11276633335E+03  0.00000000000E+00 0.  1.
         22    1    3    3    0    0  0.10730276905E+03  0.73158526625E+02 -0.10762359149E+03  0.16866799254E+03  0.00000000000E+00 0.  1.
</event>
<event>
 7    1  0.6294601E-006  0.8173092E+02  0.7818608E-02  0.1365940E+00
          2   -1    0    0  502    0  0.00000000000E+00  0.00000000000E+00  0.41187965216E+03  0.41187965216E+03  0.00000000000E+00 0. -1.
          1   -1    0    0  501    0 -0.00000000000E+00 -0.00000000000E+00 -0.13471256027E+04  0.13471256027E+04  0.00000000000E+00 0. -1.
         25    2    1    2    0    0 -0.28767555399E+02  0.11329851163E+03  0.31866545483E+03  0.36171085552E+03  0.12499178340E+03 0.  0.
          2    1    1    2  501    0  0.66553855328E+01 -0.56702017667E+02 -0.13119946595E+04  0.13132362314E+04  0.00000000000E+00 0. -1.
          1    1    1    2  502    0  0.22112169866E+02 -0.56596493963E+02  0.58083254121E+02  0.84058167922E+02  0.00000000000E+00 0. -1.
         22    1    3    3    0    0 -0.52773056593E+02  0.25862640391E+02  0.21998162583E+03  0.22769670040E+03  0.00000000000E+00 0.  1.
         22    1    3    3    0    0  0.24005501194E+02  0.87435871239E+02  0.98683829004E+02  0.13401415512E+03  0.00000000000E+00 0.  1.
</event>
<event>
 7    1  0.6294601E-006  0.5652131E+02  0.7818608E-02  0.1551705E+00
          2   -1    0    0  502    0  0.00000000000E+00  0.00000000000E+00  0.65016802331E+03  0.65016802331E+03  0.00000000000E+00 0. -1.
          1   -1    0    0  501    0 -0.00000000000E+00 -0.00000000000E+00 -0.84922935701E+02  0.84922935701E+02  0.00000000000E+00 0. -1.
         25    2    1    2    0    0  0.67619621145E+01  0.46004132669E+02  0.99283774965E+02  0.16626810857E+03  0.12500284638E+03 0.  0.
          2    1    1    2  501    0  0.11457685784E+02 -0.56931758927E+02 -0.34739968054E+02  0.67671036038E+02  0.00000000000E+00 0. -1.
          1    1    1    2  502    0 -0.18219647898E+02  0.10927626258E+02  0.50070128070E+03  0.50115181440E+03  0.00000000000E+00 0. -1.
         22    1    3    3    0    0 -0.51059843891E+02  0.19920816273E+02  0.85174968889E+02  0.10128534891E+03  0.00000000000E+00 0.  1.
         22    1    3    3    0    0  0.57821806006E+02  0.26083316396E+02  0.14108806076E+02  0.64982759659E+02  0.00000000000E+00 0.  1.
</event>
<event>
 7    1  0.6294601E-006  0.3440486E+03  0.7818608E-02  0.1197415E+00
          2   -1    0    0  502    0  0.00000000000E+00  0.00000000000E+00  0.45970977543E+03  0.45970977543E+03  0.00000000000E+00 0. -1.
          1   -1    0    0  501    0 -0.00000000000E+00 -0.00000000000E+00 -0.83664949802E+03  0.83664949802E+03  0.00000000000E+00 0. -1.
         25    2    1    2    0    0  0.15700271581E+03  0.34257929470E+03 -0.22225496339E+03  0.45500763338E+03  0.12499700698E+03 0.  0.
          2    1    1    2  501    0 -0.94980784915E+02 -0.31566543198E+03 -0.43906822412E+03  0.54904181979E+03  0.00000000000E+00 0. -1.
          1    1    1    2  502    0 -0.62021930891E+02 -0.26913862716E+02  0.28438346491E+03  0.29230982028E+03  0.00000000000E+00 0. -1.
         22    1    3    3    0    0  0.64035670795E+02  0.22788517205E+03 -0.19084673625E+03  0.30406363728E+03  0.00000000000E+00 0. -1.
         22    1    3    3    0    0  0.92967045011E+02  0.11469412265E+03 -0.31408227137E+02  0.15094399610E+03  0.00000000000E+00 0. -1.
</event>
<event>
 7    1  0.6294601E-006  0.4347315E+02  0.7818608E-02  0.1497745E+00
          2   -1    0    0  502    0  0.00000000000E+00  0.00000000000E+00  0.59461862430E+03  0.59461862430E+03  0.00000000000E+00 0. -1.
          1   -1    0    0  501    0 -0.00000000000E+00 -0.00000000000E+00 -0.55766644421E+02  0.55766644421E+02  0.00000000000E+00 0. -1.
         25    2    1    2    0    0 -0.28735660214E+02  0.51880860418E+02  0.18379636549E+03  0.23005168571E+03  0.12500124912E+03 0.  0.
          2    1    1    2  501    0  0.40917313808E+02 -0.14267147197E+02 -0.16730647102E+02  0.46450969967E+02  0.00000000000E+00 0. -1.
          1    1    1    2  502    0 -0.12181653594E+02 -0.37613713221E+02  0.37178626149E+03  0.37388261305E+03  0.00000000000E+00 0. -1.
         22    1    3    3    0    0  0.12950715487E+02 -0.18854435537E+02  0.12975957062E+03  0.13176022518E+03  0.00000000000E+00 0.  1.
         22    1    3    3    0    0 -0.41686375701E+02  0.70735295955E+02  0.54036794870E+02  0.98291460528E+02  0.00000000000E+00 0.  1.
</event>
<event>
 7    1  0.6294601E-006  0.5614457E+02  0.7818608E-02  0.1458632E+00
          2   -1    0    0  502    0  0.00000000000E+00  0.00000000000E+00  0.99232817794E+02  0.99232817794E+02  0.00000000000E+00 0. -1.
          1   -1    0    0  501    0 -0.00000000000E+00 -0.00000000000E+00 -0.33166027658E+03  0.33166027658E+03  0.00000000000E+00 0. -1.
         25    2    1    2    0    0 -0.30789633984E+01 -0.25850537472E+01  0.28132616665E+01  0.12509827542E+03  0.12500200620E+03 0.  0.
          2    1    1    2  501    0  0.32423850196E+02 -0.45835648457E+02 -0.24231632480E+03  0.24873563073E+03  0.00000000000E+00 0. -1.
          1    1    1    2  502    0 -0.29344886798E+02  0.48420702204E+02  0.70756043515E+01  0.57059188217E+02  0.00000000000E+00 0. -1.
         22    1    3    3    0    0 -0.10844934895E+02 -0.22026029126E+02 -0.56819916856E+02  0.61897185101E+02  0.00000000000E+00 0. -1.
         22    1    3    3    0    0  0.77659714969E+01  0.19440975379E+02  0.59633178522E+02  0.63201090320E+02  0.00000000000E+00 0. -1.
</event>
<event>
 7    1  0.6294601E-006  0.1715335E+03  0.7818608E-02  0.1390244E+00
          2   -1    0    0  502    0  0.00000000000E+00  0.00000000000E+00  0.54567742738E+03  0.54567742738E+03  0.00000000000E+00 0. -1.
          1   -1    0    0  501    0 -0.00000000000E+00 -0.00000000000E+00 -0.21772459362E+04  0.21772459362E+04  0.00000000000E+00 0. -1.
         25    2    1    2    0    0  0.18771501085E+02  0.14887239492E+03 -0.11721457824E+04  0.11883040919E+04  0.12500208184E+03 0.  0.
          2    1    1    2  501    0 -0.25876756147E+01  0.22147755207E+02 -0.98316837174E+03  0.98342120493E+03  0.00000000000E+00 0. -1.
          1    1    1    2  502    0 -0.16183825470E+02 -0.17102015013E+03  0.52374564523E+03  0.55119806681E+03  0.00000000000E+00 0. -1.
         22    1    3    3    0    0  0.27549549024E+02  0.10834825094E+02 -0.55759153292E+03  0.55837683393E+03  0.00000000000E+00 0.  1.
         22    1    3    3    0    0 -0.87780479394E+01  0.13803756983E+03 -0.61455424944E+03  0.62992725795E+03  0.00000000000E+00 0.  1.
</event>
<event>
 7    1  0.6294601E-006  0.6278491E+02  0.7818608E-02  0.1403318E+00
          2   -1    0    0  502    0  0.00000000000E+00  0.00000000000E+00  0.15615921443E+04  0.15615921443E+04  0.00000000000E+00 0. -1.
          1   -1    0    0  501    0 -0.00000000000E+00 -0.00000000000E+00 -0.12005536637E+03  0.12005536637E+03  0.00000000000E+00 0. -1.
         25    2    1    2    0    0 -0.66053517477E+02  0.36003984267E+02  0.53191774805E+02  0.15528188873E+03  0.12499498392E+03 0.  0.
          2    1    1    2  501    0  0.49090870465E+02  0.24585333384E+02 -0.57296726984E+02  0.79355321836E+02  0.00000000000E+00 0. -1.
          1    1    1    2  502    0  0.16962647012E+02 -0.60589317651E+02  0.14456417301E+04  0.14470103001E+04  0.00000000000E+00 0. -1.
         22    1    3    3    0    0 -0.59224017503E+02  0.78342800661E+02  0.54611830306E+02  0.11237228606E+03  0.00000000000E+00 0. -1.
         22    1    3    3    0    0 -0.68294999739E+01 -0.42338816394E+02 -0.14200555016E+01  0.42909602668E+02  0.00000000000E+00 0. -1.
</event>
<event>
 7    1  0.6294601E-006  0.8902022E+02  0.7818608E-02  0.1389153E+00
          2   -1    0    0  502    0  0.00000000000E+00  0.00000000000E+00  0.15231303180E+03  0.15231303180E+03  0.00000000000E+00 0. -1.
          1   -1    0    0  501    0 -0.00000000000E+00 -0.00000000000E+00 -0.69093670379E+03  0.69093670379E+03  0.00000000000E+00 0. -1.
         25    2    1    2    0    0  0.11666204969E+03  0.51461231999E+01 -0.41397953275E+03  0.44792928160E+03  0.12500028542E+03 0.  0.
          2    1    1    2  501    0 -0.31799298533E+02 -0.29455719598E+02 -0.24346681354E+03  0.24729521649E+03  0.00000000000E+00 0. -1.
          1    1    1    2  502    0 -0.84862751154E+02  0.24309596399E+02  0.11882267430E+03  0.14802523750E+03  0.00000000000E+00 0. -1.
         22    1    3    3    0    0 -0.17336202353E+02  0.12726879908E+02 -0.15257772230E+03  0.15408594591E+03  0.00000000000E+00 0.  1.
         22    1    3    3    0    0  0.13399825204E+03 -0.75807567083E+01 -0.26140181046E+03  0.29384333570E+03  0.00000000000E+00 0.  1.
</event>
<event>
 7    1  0.6294601E-006  0.1151425E+03  0.7818608E-02  0.1438122E+00
          2   -1    0    0  502    0  0.00000000000E+00  0.00000000000E+00  0.24625529768E+03  0.24625529768E+03  0.00000000000E+00 0. -1.
          1   -1    0    0  501    0 -0.00000000000E+00 -0.00000000000E+00 -0.29285510979E+03  0.29285510979E+03  0.00000000000E+00 0. -1.
         25    2    1    2    0    0 -0.59697895597E+01  0.11787552338E+03  0.50660213390E+02  0.17920657483E+03  0.12497304447E+03 0.  0.
          2    1    1    2  501    0 -0.16582443487E+02 -0.11382751894E+03 -0.21291504065E+03  0.24200102486E+03  0.00000000000E+00 0. -1.
          1    1    1    2  502    0  0.22552233047E+02 -0.40480044398E+01  0.11565501514E+03  0.11790280778E+03  0.00000000000E+00 0. -1.
         22    1    3    3    0    0 -0.55855370285E+02  0.20418425900E+02  0.33883979279E+02  0.68446026603E+02  0.00000000000E+00 0.  1.
         22    1    3    3    0    0  0.49885580725E+02  0.97457097476E+02  0.16776234111E+02  0.11076054823E+03  0.00000000000E+00 0.  1.
</event>
<event>
 7    1  0.6294601E-006  0.4763071E+02  0.7818608E-02  0.1559928E+00
          2   -1    0    0  502    0  0.00000000000E+00  0.00000000000E+00  0.24419521087E+03  0.24419521087E+03  0.00000000000E+00 0. -1.
          1   -1    0    0  501    0 -0.00000000000E+00 -0.00000000000E+00 -0.11864774147E+04  0.11864774147E+04  0.00000000000E+00 0. -1.
         25    2    1    2    0    0 -0.22762797496E+02 -0.16697863562E+02 -0.10475806989E+03  0.16548280704E+03  0.12495336179E+03 0.  0.
          2    1    1    2  501    0 -0.32626206052E+01 -0.23700251397E+02 -0.10485188801E+04  0.10487917756E+04  0.00000000000E+00 0. -1.
          1    1    1    2  502    0  0.26025418101E+02  0.40398114959E+02  0.21099474616E+03  0.21639804294E+03  0.00000000000E+00 0. -1.
         22    1    3    3    0    0 -0.20968647642E+02 -0.46419105978E+02 -0.12120097250E+03  0.13146898234E+03  0.00000000000E+00 0.  1.
         22    1    3    3    0    0 -0.17941498538E+01  0.29721242416E+02  0.16442902609E+02  0.34013824699E+02  0.00000000000E+00 0.  1.
</event>
<event>
 7    1  0.6294601E-006  0.2077536E+03  0.7818608E-02  0.1280483E+00
          2   -1    0    0  502    0  0.00000000000E+00  0.00000000000E+00  0.70869994015E+03  0.70869994015E+03  0.00000000000E+00 0. -1.
          1   -1    0    0  501    0 -0.00000000000E+00 -0.00000000000E+00 -0.39692603228E+03  0.39692603228E+03  0.00000000000E+00 0. -1.
         25    2    1    2    0    0 -0.19819965480E+03 -0.63527409798E+02 -0.16892324738E+03  0.29577915466E+03  0.12502563686E+03 0.  0.
          2    1    1    2  501    0  0.18027115800E+03  0.10810582887E+03 -0.96046657229E+02  0.23110499996E+03  0.00000000000E+00 0. -1.
          1    1    1    2  502    0  0.17928496795E+02 -0.44578419069E+02  0.57674381247E+03  0.57874181780E+03  0.00000000000E+00 0. -1.
         22    1    3    3    0    0 -0.13062699459E+03 -0.98964771472E+02 -0.94418252475E+02  0.18913551784E+03  0.00000000000E+00 0. -1.
         22    1    3    3    0    0 -0.67572660211E+02  0.35437361674E+02 -0.74504994900E+02  0.10664363683E+03  0.00000000000E+00 0. -1.
</event>
<event>
 7    1  0.6294601E-006  0.6205048E+02  0.7818608E-02  0.1525630E+00
          2   -1    0    0  502    0  0.00000000000E+00  0.00000000000E+00  0.66533870043E+03  0.66533870043E+03  0.00000000000E+00 0. -1.
          1   -1    0    0  501    0 -0.00000000000E+00 -0.00000000000E+00 -0.92110900569E+02  0.92110900569E+02  0.00000000000E+00 0. -1.
         25    2    1    2    0    0  0.30039240097E+02  0.30088274204E+02  0.21995485126E+03  0.25654208391E+03  0.12500417606E+03 0.  0.
          2    1    1    2  501    0  0.20455244374E+02  0.10382262899E+02 -0.69511826872E+02  0.73199060652E+02  0.00000000000E+00 0. -1.
          1    1    1    2  502    0 -0.50494484471E+02 -0.40470537104E+02  0.42278477547E+03  0.42770845644E+03  0.00000000000E+00 0. -1.
         22    1    3    3    0    0  0.26720687790E+01  0.65420856045E+02  0.54598739750E+02  0.85252863527E+02  0.00000000000E+00 0. -1.
         22    1    3    3    0    0  0.27367171318E+02 -0.35332581841E+02  0.16535611151E+03  0.17128922038E+03  0.00000000000E+00 0. -1.
</event>
<event>
 7    1  0.6294601E-006  0.6906523E+02  0.7818608E-02  0.1380853E+00
          2   -1    0    0  502    0  0.00000000000E+00  0.00000000000E+00  0.62145230937E+02  0.62145230937E+02  0.00000000000E+00 0. -1.
          1   -1    0    0  501    0 -0.00000000000E+00 -0.00000000000E+00 -0.87351493383E+03  0.87351493383E+03  0.00000000000E+00 0. -1.
         25    2    1    2    0    0 -0.10437009940E+03 -0.59378478265E+01 -0.32091098151E+03  0.35991169425E+03  0.12499677561E+03 0.  0.
          2    1    1    2  501    0  0.54332738593E+02  0.38596616788E+02 -0.50887641252E+03  0.51322212396E+03  0.00000000000E+00 0. -1.
          1    1    1    2  502    0  0.50037360809E+02 -0.32658768961E+02  0.18417691137E+02  0.62526346556E+02  0.00000000000E+00 0. -1.
         22    1    3    3    0    0 -0.71599959749E+02  0.57311996208E+02 -0.18148077037E+03  0.20333836126E+03  0.00000000000E+00 0.  1.
         22    1    3    3    0    0 -0.32770139652E+02 -0.63249844034E+02 -0.13943021115E+03  0.15657333299E+03  0.00000000000E+00 0.  1.
</event>
<event>
 7    1  0.6294601E-006  0.5431526E+02  0.7818608E-02  0.1522327E+00
          2   -1    0    0  502    0  0.00000000000E+00  0.00000000000E+00  0.19194184980E+04  0.19194184980E+04  0.00000000000E+00 0. -1.
          1   -1    0    0  501    0 -0.00000000000E+00 -0.00000000000E+00 -0.17875462336E+03  0.17875462336E+03  0.00000000000E+00 0. -1.
         25    2    1    2    0    0  0.31546431201E+02  0.58635993621E+01  0.23000850087E+03  0.26373755254E+03  0.12499610804E+03 0.  0.
          2    1    1    2  501    0 -0.47377710874E+02 -0.27473324835E+02 -0.15714756286E+03  0.16641750983E+03  0.00000000000E+00 0. -1.
          1    1    1    2  502    0  0.15831279673E+02  0.21609725473E+02  0.16678029366E+04  0.16680180589E+04  0.00000000000E+00 0. -1.
         22    1    3    3    0    0  0.15290228680E+02  0.49478767431E+02  0.33236805818E+02  0.61535557042E+02  0.00000000000E+00 0.  1.
         22    1    3    3    0    0  0.16256202521E+02 -0.43615168068E+02  0.19677169506E+03  0.20220199549E+03  0.00000000000E+00 0.  1.
</event>
<event>
 7    1  0.6294601E-006  0.5838515E+02  0.7818608E-02  0.1501468E+00
          2   -1    0    0  502    0  0.00000000000E+00  0.00000000000E+00  0.18908250895E+04  0.18908250895E+04  0.00000000000E+00 0. -1.
          1   -1    0    0  501    0 -0.00000000000E+00 -0.00000000000E+00 -0.15994594150E+03  0.15994594150E+03  0.00000000000E+00 0. -1.
         25    2    1    2    0    0  0.45496424071E+02 -0.63275832554E+02  0.37503019515E+03  0.40292160125E+03  0.12499765552E+03 0.  0.
          2    1    1    2  501    0 -0.17927512009E+02  0.55315588526E+02 -0.14006744604E+03  0.15165783680E+03  0.00000000000E+00 0. -1.
          1    1    1    2  502    0 -0.27568912062E+02  0.79602440280E+01  0.14959163989E+04  0.14961915930E+04  0.00000000000E+00 0. -1.
         22    1    3    3    0    0  0.45470959204E+02 -0.75394927119E+02  0.12665769411E+03  0.15425360496E+03  0.00000000000E+00 0.  1.
         22    1    3    3    0    0  0.25464866463E-01  0.12119094565E+02  0.24837250104E+03  0.24866799628E+03  0.00000000000E+00 0.  1.
</event>
<event>
 7    1  0.8668138E-006  0.6367273E+02  0.7818608E-02  0.1392168E+00
          2   -1    0    0  502    0  0.00000000000E+00  0.00000000000E+00  0.75621729864E+03  0.75621729864E+03  0.00000000000E+00 0. -1.
          1   -1    0    0  501    0 -0.00000000000E+00 -0.00000000000E+00 -0.22161354805E+04  0.22161354805E+04  0.00000000000E+00 0. -1.
         25    2    1    2    0    0 -0.64076872570E+02  0.37762604495E+02 -0.24049204298E+03  0.28105867285E+03  0.12500277976E+03 0.  0.
          2    1    1    2  501    0  0.39685286670E+01 -0.59018551192E+02 -0.19535307736E+04  0.19544261107E+04  0.00000000000E+00 0. -1.
          1    1    1    2  502    0  0.60108343903E+02  0.21255946697E+02  0.73410463472E+03  0.73686799564E+03  0.00000000000E+00 0. -1.
         22    1    3    3    0    0  0.38517740489E+01 -0.83427727195E+01  0.12252146524E+02  0.15315126980E+02  0.00000000000E+00 0. -1.
         22    1    3    3    0    0 -0.67928646619E+02  0.46105377215E+02 -0.25274418951E+03  0.26574354587E+03  0.00000000000E+00 0. -1.
</event>
<event>
 7    1  0.6294601E-006  0.1237805E+03  0.7818608E-02  0.1300652E+00
          2   -1    0    0  502    0  0.00000000000E+00  0.00000000000E+00  0.13125767071E+04  0.13125767071E+04  0.00000000000E+00 0. -1.
          1   -1    0    0  501    0 -0.00000000000E+00 -0.00000000000E+00 -0.11920671265E+03  0.11920671265E+03  0.00000000000E+00 0. -1.
         25    2    1    2    0    0 -0.12172788885E+03 -0.67638931260E+02  0.54589086541E+03  0.57707451411E+03  0.12500181577E+03 0.  0.
          2    1    1    2  501    0  0.12380645454E+03  0.89642641521E+00 -0.64501348544E+02  0.13960396030E+03  0.00000000000E+00 0. -1.
          1    1    1    2  502    0 -0.20785656921E+01  0.66742504845E+02  0.71198047758E+03  0.71510494534E+03  0.00000000000E+00 0. -1.
         22    1    3    3    0    0 -0.14007622276E+03 -0.45943924035E+02  0.51224684466E+03  0.53303754296E+03  0.00000000000E+00 0.  1.
         22    1    3    3    0    0  0.18348333906E+02 -0.21695007225E+02  0.33644020746E+02  0.44036971144E+02  0.00000000000E+00 0.  1.
</event>
<event>
 7    1  0.6294601E-006  0.8095596E+02  0.7818608E-02  0.1466024E+00
          2   -1    0    0  502    0  0.00000000000E+00  0.00000000000E+00  0.15564863881E+04  0.15564863881E+04  0.00000000000E+00 0. -1.
          1   -1    0    0  501    0 -0.00000000000E+00 -0.00000000000E+00 -0.27168405302E+03  0.27168405302E+03  0.00000000000E+00 0. -1.
         25    2    1    2    0    0  0.20346302691E+01  0.75196177583E+02  0.13254596517E+03  0.19711528807E+03  0.12500959589E+03 0.  0.
          2    1    1    2  501    0  0.24403552516E+02 -0.77616271436E+02 -0.23235552008E+03  0.24618876229E+03  0.00000000000E+00 0. -1.
          1    1    1    2  502    0 -0.26438182786E+02  0.24200938531E+01  0.13846118900E+04  0.13848663907E+04  0.00000000000E+00 0. -1.
         22    1    3    3    0    0 -0.26289265144E+02  0.15576480885E+02  0.12728353018E+03  0.13090015001E+03  0.00000000000E+00 0. -1.
         22    1    3    3    0    0  0.28323895414E+02  0.59619696698E+02  0.52624349949E+01  0.66215138056E+02  0.00000000000E+00 0. -1.
</event>
<event>
 7    1  0.6294601E-006  0.4839843E+02  0.7818608E-02  0.1549637E+00
          2   -1    0    0  502    0  0.00000000000E+00  0.00000000000E+00  0.25422714805E+03  0.25422714805E+03  0.00000000000E+00 0. -1.
          1   -1    0    0  501    0 -0.00000000000E+00 -0.00000000000E+00 -0.93700042963E+03  0.93700042963E+03  0.00000000000E+00 0. -1.
         25    2    1    2    0    0  0.73191236275E+01  0.41199880413E+02 -0.34794036709E+03  0.37207457887E+03  0.12500397383E+03 0.  0.
          2    1    1    2  501    0  0.24684069450E+02 -0.47796569898E+01 -0.57428840199E+03  0.57483851390E+03  0.00000000000E+00 0. -1.
          1    1    1    2  502    0 -0.32003193078E+02 -0.36420223423E+02  0.23945548750E+03  0.24431448491E+03  0.00000000000E+00 0. -1.
         22    1    3    3    0    0 -0.44208033617E+01  0.63619545565E+02 -0.77111432212E+02  0.10006579365E+03  0.00000000000E+00 0. -1.
         22    1    3    3    0    0  0.11739926989E+02 -0.22419665152E+02 -0.27082893488E+03  0.27200878522E+03  0.00000000000E+00 0. -1.
</event>
<event>
 7    1  0.6294601E-006  0.9671197E+02  0.7818608E-02  0.1392512E+00
          2   -1    0    0  502    0  0.00000000000E+00  0.00000000000E+00  0.13242159110E+04  0.13242159110E+04  0.00000000000E+00 0. -1.
          1   -1    0    0  501    0 -0.00000000000E+00 -0.00000000000E+00 -0.26272944285E+02  0.26272944285E+02  0.00000000000E+00 0. -1.
         25    2    1    2    0    0 -0.76084253929E+02  0.99343240385E+01  0.60349626211E+03  0.62106267182E+03  0.12499439770E+03 0.  0.
          2    1    1    2  501    0 -0.30173578971E+02 -0.24451452566E+02  0.15104478987E+02  0.41670897350E+02  0.00000000000E+00 0. -1.
          1    1    1    2  502    0  0.10625783290E+03  0.14517128528E+02  0.67934222563E+03  0.68775528613E+03  0.00000000000E+00 0. -1.
         22    1    3    3    0    0  0.20974375297E+01  0.31649270325E+02  0.41022558271E+03  0.41145000214E+03  0.00000000000E+00 0. -1.
         22    1    3    3    0    0 -0.78181691459E+02 -0.21714946286E+02  0.19327067940E+03  0.20961266968E+03  0.00000000000E+00 0. -1.
</event>
<event>
 7    1  0.6294601E-006  0.5470436E+02  0.7818608E-02  0.1525096E+00
          2   -1    0    0  502    0  0.00000000000E+00  0.00000000000E+00  0.17891148215E+04  0.17891148215E+04  0.00000000000E+00 0. -1.
          1   -1    0    0  501    0 -0.00000000000E+00 -0.00000000000E+00 -0.12808816734E+03  0.12808816734E+03  0.00000000000E+00 0. -1.
         25    2    1    2    0    0  0.54284963755E+02 -0.46921114951E+01  0.88823455648E+02  0.16273431777E+03  0.12499591476E+03 0.  0.
          2    1    1    2  501    0 -0.50865517824E+02 -0.21195126979E+02 -0.82690336917E+02  0.99369140736E+02  0.00000000000E+00 0. -1.
          1    1    1    2  502    0 -0.34194459305E+01  0.25887238474E+02  0.16548935355E+04  0.16550995304E+04  0.00000000000E+00 0. -1.
         22    1    3    3    0    0  0.87699050938E+02  0.44055715799E+01  0.26990511658E+02  0.91864140533E+02  0.00000000000E+00 0.  1.
         22    1    3    3    0    0 -0.33414087183E+02 -0.90976830750E+01  0.61832943990E+02  0.70870177240E+02  0.00000000000E+00 0.  1.
</event>
<event>
 7    1  0.6294601E-006  0.7985743E+02  0.7818608E-02  0.1460595E+00
          2   -1    0    0  502    0  0.00000000000E+00  0.00000000000E+00  0.48414201931E+03  0.48414201931E+03  0.00000000000E+00 0. -1.
          1   -1    0    0  501    0 -0.00000000000E+00 -0.00000000000E+00 -0.14129260732E+03  0.14129260732E+03  0.00000000000E+00 0. -1.
         25    2    1    2    0    0  0.10222949697E+03 -0.58893172529E+01  0.20753513037E+02  0.16291300595E+03  0.12499754036E+03 0.  0.
          2    1    1    2  501    0 -0.74944068602E+02 -0.35735231512E+00 -0.49536504755E+02  0.89836553933E+02  0.00000000000E+00 0. -1.
          1    1    1    2  502    0 -0.27285428367E+02  0.62466695680E+01  0.37163240372E+03  0.37268506674E+03  0.00000000000E+00 0. -1.
         22    1    3    3    0    0  0.41492882736E+02 -0.28278097604E+02 -0.47305455645E+02  0.68986348328E+02  0.00000000000E+00 0.  1.
         22    1    3    3    0    0  0.60736614233E+02  0.22388780351E+02  0.68058968682E+02  0.93926657622E+02  0.00000000000E+00 0.  1.
</event>
<event>
 7    1  0.6294601E-006  0.7617163E+02  0.7818608E-02  0.1408737E+00
          2   -1    0    0  502    0  0.00000000000E+00  0.00000000000E+00  0.11155533143E+03  0.11155533143E+03  0.00000000000E+00 0. -1.
          1   -1    0    0  501    0 -0.00000000000E+00 -0.00000000000E+00 -0.57525828989E+03  0.57525828989E+03  0.00000000000E+00 0. -1.
         25    2    1    2    0    0 -0.42026797556E+02  0.34675571729E+02 -0.23802101069E+03  0.27431069463E+03  0.12499483458E+03 0.  0.
          2    1    1    2  501    0  0.17764936049E+02  0.39564671573E+02 -0.30093510399E+03  0.30404422869E+03  0.00000000000E+00 0. -1.
          1    1    1    2  502    0  0.24261861507E+02 -0.74240243302E+02  0.75253156218E+02  0.10845869799E+03  0.00000000000E+00 0. -1.
         22    1    3    3    0    0 -0.38086586585E+02  0.27860793615E+02 -0.25301392736E+03  0.25737688190E+03  0.00000000000E+00 0. -1.
         22    1    3    3    0    0 -0.39402109706E+01  0.68147781133E+01  0.14992916671E+02  0.16933812729E+02  0.00000000000E+00 0. -1.
</event>
<event>
 7    1  0.6294601E-006  0.8525675E+02  0.7818608E-02  0.1412376E+00
          2   -1    0    0  502    0  0.00000000000E+00  0.00000000000E+00  0.19126202605E+04  0.19126202605E+04  0.00000000000E+00 0. -1.
          1   -1    0    0  501    0 -0.00000000000E+00 -0.00000000000E+00 -0.96851129646E+02  0.96851129646E+02  0.00000000000E+00 0. -1.
         25    2    1    2    0    0 -0.57346776218E+02  0.28249024664E+02  0.18771518227E+03  0.23441043990E+03  0.12499841815E+03 0.  0.
          2    1    1    2  501    0  0.88237713457E+02 -0.66998385692E+01 -0.46580752782E+02  0.10000274218E+03  0.00000000000E+00 0. -1.
          1    1    1    2  502    0 -0.30890937239E+02 -0.21549186095E+02  0.16746347013E+04  0.16750582080E+04  0.00000000000E+00 0. -1.
         22    1    3    3    0    0 -0.73523755137E+02  0.65559123200E+02  0.14625461517E+03  0.17633534434E+03  0.00000000000E+00 0.  1.
         22    1    3    3    0    0  0.16176978919E+02 -0.37310098536E+02  0.41460567100E+02  0.58075095557E+02  0.00000000000E+00 0.  1.
</event>
<event>
 7    1  0.6294601E-006  0.5581949E+02  0.7818608E-02  0.1427362E+00
          2   -1    0    0  502    0  0.00000000000E+00  0.00000000000E+00  0.23026630940E+04  0.23026630940E+04  0.00000000000E+00 0. -1.
          1   -1    0    0  501    0 -0.00000000000E+00 -0.00000000000E+00 -0.29413241460E+03  0.29413241460E+03  0.00000000000E+00 0. -1.
         25    2    1    2    0    0 -0.94651855261E+02  0.37472773462E+02  0.17174786706E+03  0.23555487815E+03  0.12500235328E+03 0.  0.
          2    1    1    2  501    0  0.39521652554E+02 -0.32650145967E+02 -0.25935477387E+03  0.26437263811E+03  0.00000000000E+00 0. -1.
          1    1    1    2  502    0  0.55130202707E+02 -0.48226274943E+01  0.20961375862E+04  0.20968679923E+04  0.00000000000E+00 0. -1.
         22    1    3    3    0    0 -0.85057614443E+02  0.55121888083E+02  0.18537893223E+03  0.21127841545E+03  0.00000000000E+00 0. -1.
         22    1    3    3    0    0 -0.95942408175E+01 -0.17649114621E+02 -0.13631065168E+02  0.24276462704E+02  0.00000000000E+00 0. -1.
</event>
<event>
 7    1  0.6294601E-006  0.8884769E+02  0.7818608E-02  0.1492609E+00
          2   -1    0    0  502    0  0.00000000000E+00  0.00000000000E+00  0.11636820015E+04  0.11636820015E+04  0.00000000000E+00 0. -1.
          1   -1    0    0  501    0 -0.00000000000E+00 -0.00000000000E+00 -0.54458005221E+03  0.54458005221E+03  0.00000000000E+00 0. -1.
         25    2    1    2    0    0  0.52115000599E+02 -0.94365090875E+02 -0.51246527032E+02  0.17283773677E+03  0.12500373217E+03 0.  0.
          2    1    1    2  501    0 -0.49427698953E+01  0.19426213523E+02 -0.43052695292E+03  0.43099334790E+03  0.00000000000E+00 0. -1.
          1    1    1    2  502    0 -0.47172230704E+02  0.74938877352E+02  0.11008754292E+04  0.11044309691E+04  0.00000000000E+00 0. -1.
         22    1    3    3    0    0  0.82392035092E+01  0.21643926435E+02 -0.42624207143E+02  0.48509453311E+02  0.00000000000E+00 0.  1.
         22    1    3    3    0    0  0.43875797090E+02 -0.11600901731E+03 -0.86223198898E+01  0.12432828346E+03  0.00000000000E+00 0.  1.
</event>
<event>
 7    1  0.6294601E-006  0.3533670E+02  0.7818608E-02  0.1622828E+00
          2   -1    0    0  502    0  0.00000000000E+00  0.00000000000E+00  0.44988410272E+03  0.44988410272E+03  0.00000000000E+00 0. -1.
          1   -1    0    0  501    0 -0.00000000000E+00 -0.00000000000E+00 -0.12301079212E+03  0.12301079212E+03  0.00000000000E+00 0. -1.
         25    2    1    2    0    0 -0.47692911901E+02 -0.83964996724E+01 -0.25143105767E+02  0.13638987093E+03  0.12499962429E+03 0.  0.
          2    1    1    2  501    0  0.18672911641E+02 -0.11614796894E+02 -0.38533874449E+02  0.44367111875E+02  0.00000000000E+00 0. -1.
          1    1    1    2  502    0  0.29020000260E+02  0.20011296567E+02  0.39055029081E+03  0.39213791204E+03  0.00000000000E+00 0. -1.
         22    1    3    3    0    0 -0.13255774678E+02  0.57030522375E+02 -0.21466759160E+02  0.62361989973E+02  0.00000000000E+00 0. -1.
         22    1    3    3    0    0 -0.34437137223E+02 -0.65427022047E+02 -0.36763466077E+01  0.74027880953E+02  0.00000000000E+00 0. -1.
</event>
<event>
 7    1  0.6294601E-006  0.1399490E+03  0.7818608E-02  0.1295046E+00
          2   -1    0    0  502    0  0.00000000000E+00  0.00000000000E+00  0.19635558262E+04  0.19635558262E+04  0.00000000000E+00 0. -1.
          1   -1    0    0  501    0 -0.00000000000E+00 -0.00000000000E+00 -0.20702215277E+03  0.20702215277E+03  0.00000000000E+00 0. -1.
         25    2    1    2    0    0  0.84707646138E+02  0.13749237889E+03  0.21790055909E+03  0.29863805728E+03  0.12499798412E+03 0.  0.
          2    1    1    2  501    0 -0.11215007108E+03 -0.81669221465E+02 -0.13710247331E+03  0.19505022011E+03  0.00000000000E+00 0. -1.
          1    1    1    2  502    0  0.27442424940E+02 -0.55823157424E+02  0.16757355876E+04  0.16768897016E+04  0.00000000000E+00 0. -1.
         22    1    3    3    0    0  0.15576615554E+01  0.66644683874E+02  0.15197415027E+02  0.68373252238E+02  0.00000000000E+00 0. -1.
         22    1    3    3    0    0  0.83149984583E+02  0.70847695015E+02  0.20270314407E+03  0.23026480504E+03  0.00000000000E+00 0. -1.
</event>
<event>
 7    1  0.6294601E-006  0.9221265E+02  0.7818608E-02  0.1378559E+00
          2   -1    0    0  502    0  0.00000000000E+00  0.00000000000E+00  0.14262998220E+03  0.14262998220E+03  0.00000000000E+00 0. -1.
          1   -1    0    0  501    0 -0.00000000000E+00 -0.00000000000E+00 -0.56737323920E+03  0.56737323920E+03  0.00000000000E+00 0. -1.
         25    2    1    2    0    0 -0.58827847645E+02 -0.45452641557E+02 -0.28883906641E+03  0.32338670821E+03  0.12499719390E+03 0.  0.
          2    1    1    2  501    0  0.54190227639E+02  0.90814677908E+02 -0.24582801006E+03  0.26761034551E+03  0.00000000000E+00 0. -1.
          1    1    1    2  502    0  0.46376200063E+01 -0.45362036351E+02  0.10992381946E+03  0.11900616768E+03  0.00000000000E+00 0. -1.
         22    1    3    3    0    0  0.20637942488E+02 -0.63015619889E+01 -0.32729912024E+00  0.21581044422E+02  0.00000000000E+00 0. -1.
         22    1    3    3    0    0 -0.79465790133E+02 -0.39151079568E+02 -0.28851176729E+03  0.30180566379E+03  0.00000000000E+00 0. -1.
</event>
<event>
 7    1  0.6294601E-006  0.1360607E+03  0.7818608E-02  0.1279565E+00
          2   -1    0    0  502    0  0.00000000000E+00  0.00000000000E+00  0.48596395308E+03  0.48596395308E+03  0.00000000000E+00 0. -1.
          1   -1    0    0  501    0 -0.00000000000E+00 -0.00000000000E+00 -0.21629473553E+03  0.21629473553E+03  0.00000000000E+00 0. -1.
         25    2    1    2    0    0 -0.13406951350E+03  0.14282673206E+03  0.42261518167E+02  0.23618988418E+03  0.12500206251E+03 0.  0.
          2    1    1    2  501    0  0.87115108039E+02 -0.85618807791E+02 -0.82532234995E+02  0.14741503353E+03  0.00000000000E+00 0. -1.
          1    1    1    2  502    0  0.46954405463E+02 -0.57207924268E+02  0.30993993438E+03  0.31865377091E+03  0.00000000000E+00 0. -1.
         22    1    3    3    0    0 -0.10013185392E+03  0.24976229037E+02  0.47132621870E+02  0.11345344521E+03  0.00000000000E+00 0. -1.
         22    1    3    3    0    0 -0.33937659584E+02  0.11785050302E+03 -0.48711037028E+01  0.12273643897E+03  0.00000000000E+00 0. -1.
</event>
<event>
 7    1  0.6294601E-006  0.3023052E+03  0.7818608E-02  0.1335311E+00
          2   -1    0    0  502    0  0.00000000000E+00  0.00000000000E+00  0.10562512577E+04  0.10562512577E+04  0.00000000000E+00 0. -1.
          1   -1    0    0  501    0 -0.00000000000E+00 -0.00000000000E+00 -0.18633254586E+04  0.18633254586E+04  0.00000000000E+00 0. -1.
         25    2    1    2    0    0  0.31480291280E+02  0.29531898035E+03 -0.14778279994E+04  0.15125489882E+04  0.12499814746E+03 0.  0.
          2    1    1    2  501    0  0.19859694668E+02  0.26832573021E+01 -0.34583623652E+03  0.34641638216E+03  0.00000000000E+00 0. -1.
          1    1    1    2  502    0 -0.51339985948E+02 -0.29800223765E+03  0.10165900351E+04  0.10606113460E+04  0.00000000000E+00 0. -1.
         22    1    3    3    0    0 -0.12254316818E+02  0.21654599902E+03 -0.12271694215E+04  0.12461890415E+04  0.00000000000E+00 0. -1.
         22    1    3    3    0    0  0.43734608098E+02  0.78772981324E+02 -0.25065857789E+03  0.26635994669E+03  0.00000000000E+00 0. -1.
</event>
<event>
 7    1  0.6294601E-006  0.8098618E+02  0.7818608E-02  0.1449565E+00
          2   -1    0    0  502    0  0.00000000000E+00  0.00000000000E+00  0.12383457177E+04  0.12383457177E+04  0.00000000000E+00 0. -1.
          1   -1    0    0  501    0 -0.00000000000E+00 -0.00000000000E+00 -0.26130563925E+03  0.26130563925E+03  0.00000000000E+00 0. -1.
         25    2    1    2    0    0  0.91782758032E+02 -0.45906302012E+02 -0.61502569202E+02  0.17302554778E+03  0.12499524363E+03 0.  0.
          2    1    1    2  501    0 -0.74067365545E+02  0.21794080614E+02 -0.13349102722E+03  0.15421028156E+03  0.00000000000E+00 0. -1.
          1    1    1    2  502    0 -0.17715392487E+02  0.24112221398E+02  0.11720336749E+04  0.11724155276E+04  0.00000000000E+00 0. -1.
         22    1    3    3    0    0  0.11983324767E+02 -0.31939423065E+02  0.33745814267E+02  0.47984443299E+02  0.00000000000E+00 0. -1.
         22    1    3    3    0    0  0.79799433265E+02 -0.13966878947E+02 -0.95248383469E+02  0.12504110448E+03  0.00000000000E+00 0. -1.
</event>
<event>
 7    1  0.6294601E-006  0.4505577E+02  0.7818608E-02  0.1479351E+00
          2   -1    0    0  502    0  0.00000000000E+00  0.00000000000E+00  0.19721780642E+04  0.19721780642E+04  0.00000000000E+00 0. -1.
          1   -1    0    0  501    0 -0.00000000000E+00 -0.00000000000E+00 -0.44912098172E+02  0.44912098172E+02  0.00000000000E+00 0. -1.
         25    2    1    2    0    0 -0.18963416140E+02  0.16366612283E+02  0.72893709993E+03  0.74000136901E+03  0.12500101336E+03 0.  0.
          2    1    1    2  501    0 -0.24979537733E+02 -0.35460269004E+02 -0.26824052571E+02  0.50999389992E+02  0.00000000000E+00 0. -1.
          1    1    1    2  502    0  0.43942953872E+02  0.19093656721E+02  0.12251529187E+04  0.12260894034E+04  0.00000000000E+00 0. -1.
         22    1    3    3    0    0  0.50344401113E+02  0.61008800388E+01  0.19497807974E+03  0.20146521049E+03  0.00000000000E+00 0. -1.
         22    1    3    3    0    0 -0.69307817253E+02  0.10265732244E+02  0.53395902019E+03  0.53853615852E+03  0.00000000000E+00 0. -1.
</event>
<event>
 7    1  0.6294601E-006  0.8677396E+02  0.7818608E-02  0.1365446E+00
          2   -1    0    0  502    0  0.00000000000E+00  0.00000000000E+00  0.96267671150E+03  0.96267671150E+03  0.00000000000E+00 0. -1.
          1   -1    0    0  501    0 -0.00000000000E+00 -0.00000000000E+00 -0.16018268650E+03  0.16018268650E+03  0.00000000000E+00 0. -1.
         25    2    1    2    0    0 -0.41650295082E+02  0.12896597805E+02  0.21984270558E+03  0.25662528063E+03  0.12499860056E+03 0.  0.
          2    1    1    2  501    0 -0.36709567169E+02  0.39596180274E+02 -0.13344411460E+03  0.14395409524E+03  0.00000000000E+00 0. -1.
          1    1    1    2  502    0  0.78359862250E+02 -0.52492778079E+02  0.71609543402E+03  0.72228002214E+03  0.00000000000E+00 0. -1.
         22    1    3    3    0    0 -0.31725082540E+02  0.63826988545E+01 -0.38757586017E+01  0.32592042151E+02  0.00000000000E+00 0.  1.
         22    1    3    3    0    0 -0.99252125412E+01  0.65138989509E+01  0.22371846419E+03  0.22403323847E+03  0.00000000000E+00 0.  1.
</event>
<event>
 7    1  0.6294601E-006  0.7581213E+02  0.7818608E-02  0.1443181E+00
          2   -1    0    0  502    0  0.00000000000E+00  0.00000000000E+00  0.12468307688E+04  0.12468307688E+04  0.00000000000E+00 0. -1.
          1   -1    0    0  501    0 -0.00000000000E+00 -0.00000000000E+00 -0.19993023165E+03  0.19993023165E+03  0.00000000000E+00 0. -1.
         25    2    1    2    0    0  0.71999296641E+02 -0.40886247645E+02  0.49052740412E+03  0.51293075256E+03  0.12500095506E+03 0.  0.
          2    1    1    2  501    0 -0.45132865651E+02  0.60913655280E+02 -0.18071913161E+03  0.19597666568E+03  0.00000000000E+00 0. -1.
          1    1    1    2  502    0 -0.26866430990E+02 -0.20027407635E+02  0.73709226461E+03  0.73785358217E+03  0.00000000000E+00 0. -1.
         22    1    3    3    0    0 -0.86558756029E+01 -0.64720107109E+02  0.23611974692E+03  0.24498194083E+03  0.00000000000E+00 0.  1.
         22    1    3    3    0    0  0.80655172244E+02  0.23833859464E+02  0.25440765719E+03  0.26794881173E+03  0.00000000000E+00 0.  1.
</event>
<event>
 7    1  0.6294601E-006  0.1187203E+03  0.7818608E-02  0.1323301E+00
          2   -1    0    0  502    0  0.00000000000E+00  0.00000000000E+00  0.76387821400E+03  0.76387821400E+03  0.00000000000E+00 0. -1.
          1   -1    0    0  501    0 -0.00000000000E+00 -0.00000000000E+00 -0.24911466353E+03  0.24911466353E+03  0.00000000000E+00 0. -1.
         25    2    1    2    0    0 -0.19121604514E+02  0.16977785138E+03  0.23044466912E+03  0.31292106313E+03  0.12499876658E+03 0.  0.
          2    1    1    2  501    0  0.23540622603E+02 -0.11322770198E+03 -0.18996984120E+03  0.22240326880E+03  0.00000000000E+00 0. -1.
          1    1    1    2  502    0 -0.44190180886E+01 -0.56550149403E+02  0.47428872254E+03  0.47766854559E+03  0.00000000000E+00 0. -1.
         22    1    3    3    0    0 -0.70414045377E+02  0.97038423001E+02  0.15688558417E+03  0.19745298135E+03  0.00000000000E+00 0.  1.
         22    1    3    3    0    0  0.51292440863E+02  0.72739428380E+02  0.73559084956E+02  0.11546808178E+03  0.00000000000E+00 0.  1.
</event>
<event>
 7    1  0.6294601E-006  0.8131544E+02  0.7818608E-02  0.1413826E+00
          2   -1    0    0  502    0  0.00000000000E+00  0.00000000000E+00  0.10229322177E+04  0.10229322177E+04  0.00000000000E+00 0. -1.
          1   -1    0    0  501    0 -0.00000000000E+00 -0.00000000000E+00 -0.52743529609E+02  0.52743529609E+02  0.00000000000E+00 0. -1.
         25    2    1    2    0    0 -0.86336660291E+02 -0.63079590437E+02  0.28261034370E+03  0.32699749166E+03  0.12500279816E+03 0.  0.
          2    1    1    2  501    0  0.73060139378E+02  0.26358297560E+02  0.20326943802E+02  0.80285294173E+02  0.00000000000E+00 0. -1.
          1    1    1    2  502    0  0.13276520913E+02  0.36721292877E+02  0.66725140059E+03  0.66839296147E+03  0.00000000000E+00 0. -1.
         22    1    3    3    0    0 -0.90772520274E+01 -0.57586661092E+02  0.21943183925E+03  0.22704394314E+03  0.00000000000E+00 0. -1.
         22    1    3    3    0    0 -0.77259408264E+02 -0.54929293452E+01  0.63178504453E+02  0.99953548526E+02  0.00000000000E+00 0. -1.
</event>
<event>
 7    1  0.6294601E-006  0.8218473E+02  0.7818608E-02  0.1355556E+00
          2   -1    0    0  502    0  0.00000000000E+00  0.00000000000E+00  0.77123557262E+03  0.77123557262E+03  0.00000000000E+00 0. -1.
          1   -1    0    0  501    0 -0.00000000000E+00 -0.00000000000E+00 -0.15237413196E+03  0.15237413196E+03  0.00000000000E+00 0. -1.
         25    2    1    2    0    0  0.32805482749E+02 -0.84662883565E+02  0.16024684663E+03  0.22259413122E+03  0.12500036739E+03 0.  0.
          2    1    1    2  501    0  0.41192449740E+02  0.46266427632E+02 -0.11004230813E+03  0.12628028279E+03  0.00000000000E+00 0. -1.
          1    1    1    2  502    0 -0.73997932489E+02  0.38396455933E+02  0.56865690217E+03  0.57473529057E+03  0.00000000000E+00 0. -1.
         22    1    3    3    0    0 -0.28510583409E+02  0.18498048626E+02  0.28203795423E+02  0.44164298314E+02  0.00000000000E+00 0. -1.
         22    1    3    3    0    0  0.61316066158E+02 -0.10316093219E+03  0.13204305120E+03  0.17842983291E+03  0.00000000000E+00 0. -1.
</event>
<event>
 7    1  0.6294601E-006  0.1958358E+03  0.7818608E-02  0.1155757E+00
          2   -1    0    0  502    0  0.00000000000E+00  0.00000000000E+00  0.10714272546E+04  0.10714272546E+04  0.00000000000E+00 0. -1.
          1   -1    0    0  501    0 -0.00000000000E+00 -0.00000000000E+00 -0.17523243269E+03  0.17523243269E+03  0.00000000000E+00 0. -1.
         25    2    1    2    0    0 -0.70810073188E+02  0.11652444869E+03  0.11778875781E+03  0.21929734565E+03  0.12500048293E+03 0.  0.
          2    1    1    2  501    0 -0.35213792079E+02 -0.27451014413E+03  0.58679792332E+02  0.28291190928E+03  0.00000000000E+00 0. -1.
          1    1    1    2  502    0  0.10602386527E+03  0.15798569544E+03  0.71972627175E+03  0.74445043234E+03  0.00000000000E+00 0. -1.
         22    1    3    3    0    0 -0.21308767611E+02 -0.21414687964E+02  0.48622097982E+02  0.57242998261E+02  0.00000000000E+00 0.  1.
         22    1    3    3    0    0 -0.49501305576E+02  0.13793913666E+03  0.69166659830E+02  0.16205434739E+03  0.00000000000E+00 0.  1.
</event>
<event>
 7    1  0.6294601E-006  0.2246110E+03  0.7818608E-02  0.1350397E+00
          2   -1    0    0  502    0  0.00000000000E+00  0.00000000000E+00  0.13023012223E+04  0.13023012223E+04  0.00000000000E+00 0. -1.
          1   -1    0    0  501    0 -0.00000000000E+00 -0.00000000000E+00 -0.13113055237E+04  0.13113055237E+04  0.00000000000E+00 0. -1.
         25    2    1    2    0    0  0.13936773120E+03  0.15829184677E+03  0.25518673268E+03  0.35386526599E+03  0.12498273755E+03 0.  0.
          2    1    1    2  501    0 -0.16286770449E+03 -0.15536695859E+03 -0.12517863133E+04  0.12718623177E+04  0.00000000000E+00 0. -1.
          1    1    1    2  502    0  0.23499973298E+02 -0.29248881857E+01  0.98759527927E+03  0.98787916232E+03  0.00000000000E+00 0. -1.
         22    1    3    3    0    0  0.24941542727E+02  0.10307976401E+03  0.62616660896E+02  0.12315991443E+03  0.00000000000E+00 0.  1.
         22    1    3    3    0    0  0.11442618847E+03  0.55212082764E+02  0.19257007179E+03  0.23070535156E+03  0.00000000000E+00 0.  1.
</event>
<event>
 7    1  0.6294601E-006  0.7602760E+02  0.7818608E-02  0.1439242E+00
          2   -1    0    0  502    0  0.00000000000E+00  0.00000000000E+00  0.18485748617E+04  0.18485748617E+04  0.00000000000E+00 0. -1.
          1   -1    0    0  501    0 -0.00000000000E+00 -0.00000000000E+00 -0.29147624996E+02  0.29147624996E+02  0.00000000000E+00 0. -1.
         25    2    1    2    0    0  0.47280318475E+01  0.50750494606E+02  0.76337539731E+03  0.77521969928E+03  0.12500247176E+03 0.  0.
          2    1    1    2  501    0 -0.32140626470E+02 -0.71551227730E+02  0.44138394751E+02  0.90004421840E+02  0.00000000000E+00 0. -1.
          1    1    1    2  502    0  0.27412594623E+02  0.20800733124E+02  0.10119134447E+04  0.10124983656E+04  0.00000000000E+00 0. -1.
         22    1    3    3    0    0  0.15633768429E+02  0.91394595652E+02  0.54376658748E+03  0.55161534468E+03  0.00000000000E+00 0.  1.
         22    1    3    3    0    0 -0.10905736582E+02 -0.40644101046E+02  0.21960880983E+03  0.22360435460E+03  0.00000000000E+00 0.  1.
</event>
<event>
 7    1  0.6294601E-006  0.4305692E+02  0.7818608E-02  0.1529955E+00
          2   -1    0    0  502    0  0.00000000000E+00  0.00000000000E+00  0.34802358164E+03  0.34802358164E+03  0.00000000000E+00 0. -1.
          1   -1    0    0  501    0 -0.00000000000E+00 -0.00000000000E+00 -0.93106930000E+03  0.93106930000E+03  0.00000000000E+00 0. -1.
         25    2    1    2    0    0  0.96484844297E+01 -0.10123505915E+02  0.93734940718E+02  0.15687087702E+03  0.12500661712E+03 0.  0.
          2    1    1    2  501    0 -0.41762347706E+02  0.10996844882E+02 -0.89782113405E+03  0.89885917308E+03  0.00000000000E+00 0. -1.
          1    1    1    2  502    0  0.32113863276E+02 -0.87333896666E+00  0.22104047497E+03  0.22336283153E+03  0.00000000000E+00 0. -1.
         22    1    3    3    0    0  0.40751036814E+02  0.33273894417E+02  0.88847855740E+02  0.10325570454E+03  0.00000000000E+00 0. -1.
         22    1    3    3    0    0 -0.31102552385E+02 -0.43397400332E+02  0.48870849772E+01  0.53615172480E+02  0.00000000000E+00 0. -1.
</event>
<event>
 7    1  0.6294601E-006  0.1359478E+03  0.7818608E-02  0.1293432E+00
          2   -1    0    0  502    0  0.00000000000E+00  0.00000000000E+00  0.46042450882E+03  0.46042450882E+03  0.00000000000E+00 0. -1.
          1   -1    0    0  501    0 -0.00000000000E+00 -0.00000000000E+00 -0.17540521099E+04  0.17540521099E+04  0.00000000000E+00 0. -1.
         25    2    1    2    0    0  0.69014620964E+02  0.42949043312E+02 -0.16144235224E+03  0.21976671488E+03  0.12500455050E+03 0.  0.
          2    1    1    2  501    0 -0.13380996335E+03 -0.48144180064E+02 -0.15577407627E+04  0.15642184158E+04  0.00000000000E+00 0. -1.
          1    1    1    2  502    0  0.64795342383E+02  0.51951367515E+01  0.42555551392E+03  0.43049148803E+03  0.00000000000E+00 0. -1.
         22    1    3    3    0    0  0.87201334494E+02 -0.10720357253E+02 -0.12352851154E+03  0.15158592270E+03  0.00000000000E+00 0.  1.
         22    1    3    3    0    0 -0.18186713530E+02  0.53669400566E+02 -0.37913840700E+02  0.68180792184E+02  0.00000000000E+00 0.  1.
</event>
<event>
 7    1  0.6294601E-006  0.1577896E+03  0.7818608E-02  0.1270420E+00
          2   -1    0    0  502    0  0.00000000000E+00  0.00000000000E+00  0.67136908033E+03  0.67136908033E+03  0.00000000000E+00 0. -1.
          1   -1    0    0  501    0 -0.00000000000E+00 -0.00000000000E+00 -0.62471535740E+03  0.62471535740E+03  0.00000000000E+00 0. -1.
         25    2    1    2    0    0 -0.18982629409E+03 -0.22726300247E+02 -0.24426109597E+02  0.22972529814E+03  0.12500628434E+03 0.  0.
          2    1    1    2  501    0  0.15099783883E+03 -0.35119269400E+02 -0.48333255171E+03  0.50758651081E+03  0.00000000000E+00 0. -1.
          1    1    1    2  502    0  0.38828455256E+02  0.57845569647E+02  0.55441238424E+03  0.55877262878E+03  0.00000000000E+00 0. -1.
         22    1    3    3    0    0 -0.84234650913E+02  0.10167455003E+02 -0.70110068894E+02  0.11006486867E+03  0.00000000000E+00 0.  1.
         22    1    3    3    0    0 -0.10559164317E+03 -0.32893755250E+02  0.45683959297E+02  0.11966042946E+03  0.00000000000E+00 0.  1.
</event>
<event>
 7    1  0.6294601E-006  0.7303199E+02  0.7818608E-02  0.1374147E+00
          2   -1    0    0  502    0  0.00000000000E+00  0.00000000000E+00  0.60219082997E+03  0.60219082997E+03  0.00000000000E+00 0. -1.
          1   -1    0    0  501    0 -0.00000000000E+00 -0.00000000000E+00 -0.62787779314E+02  0.62787779314E+02  0.00000000000E+00 0. -1.
         25    2    1    2    0    0 -0.27957065159E+02 -0.11813907235E+02  0.80452280177E+02  0.15171829647E+03  0.12499882481E+03 0.  0.
          2    1    1    2  501    0  0.74187471544E+02 -0.44722986937E+02  0.54665668817E+02  0.10243174236E+03  0.00000000000E+00 0. -1.
          1    1    1    2  502    0 -0.46230406385E+02  0.56536894172E+02  0.40428510166E+03  0.41082857046E+03  0.00000000000E+00 0. -1.
         22    1    3    3    0    0  0.37769851877E+02 -0.14839623587E+02  0.75525892749E+02  0.85737603271E+02  0.00000000000E+00 0.  1.
         22    1    3    3    0    0 -0.65726917036E+02  0.30257163527E+01  0.49263874281E+01  0.65980693204E+02  0.00000000000E+00 0.  1.
</event>
<event>
 7    1  0.6294601E-006  0.1890736E+03  0.7818608E-02  0.1204905E+00
          2   -1    0    0  502    0  0.00000000000E+00  0.00000000000E+00  0.86856363704E+03  0.86856363704E+03  0.00000000000E+00 0. -1.
          1   -1    0    0  501    0 -0.00000000000E+00 -0.00000000000E+00 -0.35368641209E+03  0.35368641209E+03  0.00000000000E+00 0. -1.
         25    2    1    2    0    0 -0.97176509527E+02 -0.97774762823E+02  0.80504669272E+02  0.20275556277E+03  0.12500255281E+03 0.  0.
          2    1    1    2  501    0 -0.10252583485E+03  0.48537439987E+02 -0.26619542945E+03  0.28935693624E+03  0.00000000000E+00 0. -1.
          1    1    1    2  502    0  0.19970234437E+03  0.49237322836E+02  0.70056798513E+03  0.73013755012E+03  0.00000000000E+00 0. -1.
         22    1    3    3    0    0 -0.48776387800E+02 -0.12079867472E+03  0.70854641711E+02  0.14829644660E+03  0.00000000000E+00 0.  1.
         22    1    3    3    0    0 -0.48400121727E+02  0.23023911897E+02  0.96500275613E+01  0.54459116171E+02  0.00000000000E+00 0.  1.
</event>
<event>
 7    1  0.6294601E-006  0.8286421E+02  0.7818608E-02  0.1374319E+00
          2   -1    0    0  502    0  0.00000000000E+00  0.00000000000E+00  0.25508375513E+04  0.25508375513E+04  0.00000000000E+00 0. -1.
          1   -1    0    0  501    0 -0.00000000000E+00 -0.00000000000E+00 -0.69801556613E+02  0.69801556613E+02  0.00000000000E+00 0. -1.
         25    2    1    2    0    0 -0.10834102955E+03 -0.53186636336E+02  0.14152249575E+03  0.22409949594E+03  0.12500148121E+03 0.  0.
          2    1    1    2  501    0  0.52079032740E+02 -0.69274023601E+01 -0.29585786412E+01  0.52620981958E+02  0.00000000000E+00 0. -1.
          1    1    1    2  502    0  0.56261996812E+02  0.60114038697E+02  0.23424720775E+04  0.23439186300E+04  0.00000000000E+00 0. -1.
         22    1    3    3    0    0 -0.10505591449E+03 -0.77331078685E+02  0.14954554317E+03  0.19844573662E+03  0.00000000000E+00 0.  1.
         22    1    3    3    0    0 -0.32851150635E+01  0.24144442348E+02 -0.80230474174E+01  0.25653759318E+02  0.00000000000E+00 0.  1.
</event>
<event>
 7    1  0.6294601E-006  0.1213652E+03  0.7818608E-02  0.1350282E+00
          2   -1    0    0  502    0  0.00000000000E+00  0.00000000000E+00  0.29097129713E+03  0.29097129713E+03  0.00000000000E+00 0. -1.
          1   -1    0    0  501    0 -0.00000000000E+00 -0.00000000000E+00 -0.95154666863E+03  0.95154666863E+03  0.00000000000E+00 0. -1.
         25    2    1    2    0    0 -0.78194007700E+02 -0.12335307368E+03 -0.63080520343E+03  0.65944669022E+03  0.12499779577E+03 0.  0.
          2    1    1    2  501    0  0.43325376099E+02  0.96730147825E+02 -0.29540208509E+03  0.31384104509E+03  0.00000000000E+00 0. -1.
          1    1    1    2  502    0  0.34868631601E+02  0.26622925855E+02  0.26563191701E+03  0.26923023044E+03  0.00000000000E+00 0. -1.
         22    1    3    3    0    0  0.69154530529E+01 -0.28642728753E+02 -0.20245660771E+02  0.35750750781E+02  0.00000000000E+00 0. -1.
         22    1    3    3    0    0 -0.85109460753E+02 -0.94710344927E+02 -0.61055954266E+03  0.62369593944E+03  0.00000000000E+00 0. -1.
</event>
<event>
 7    1  0.6294601E-006  0.4978131E+02  0.7818608E-02  0.1480294E+00
          2   -1    0    0  502    0  0.00000000000E+00  0.00000000000E+00  0.34416781076E+03  0.34416781076E+03  0.00000000000E+00 0. -1.
          1   -1    0    0  501    0 -0.00000000000E+00 -0.00000000000E+00 -0.46656660930E+03  0.46656660930E+03  0.00000000000E+00 0. -1.
         25    2    1    2    0    0 -0.13242626173E+02  0.39061253212E+02  0.60282936207E+02  0.14477869580E+03  0.12500275881E+03 0.  0.
          2    1    1    2  501    0  0.38622470437E+02  0.53922269249E+01 -0.42069584903E+03  0.42249943045E+03  0.00000000000E+00 0. -1.
          1    1    1    2  502    0 -0.25379844264E+02 -0.44453480137E+02  0.23801411429E+03  0.24345629380E+03  0.00000000000E+00 0. -1.
         22    1    3    3    0    0 -0.15468244423E+02  0.78752108157E+02  0.10300604300E+02  0.80915162817E+02  0.00000000000E+00 0.  1.
         22    1    3    3    0    0  0.22256182498E+01 -0.39690854945E+02  0.49982331907E+02  0.63863532988E+02  0.00000000000E+00 0.  1.
</event>
<event>
 7    1  0.6294601E-006  0.8994241E+02  0.7818608E-02  0.1422502E+00
          2   -1    0    0  502    0  0.00000000000E+00  0.00000000000E+00  0.16210906277E+04  0.16210906277E+04  0.00000000000E+00 0. -1.
          1   -1    0    0  501    0 -0.00000000000E+00 -0.00000000000E+00 -0.92106504469E+02  0.92106504469E+02  0.00000000000E+00 0. -1.
         25    2    1    2    0    0 -0.63659944678E+02 -0.16336445526E+02  0.42544716417E+03  0.44827403207E+03  0.12499940130E+03 0.  0.
          2    1    1    2  501    0 -0.20481190264E+02 -0.25898005829E+02 -0.75358452580E+02  0.82274432455E+02  0.00000000000E+00 0. -1.
          1    1    1    2  502    0  0.84141134942E+02  0.42234451355E+02  0.11788954116E+04  0.11826486676E+04  0.00000000000E+00 0. -1.
         22    1    3    3    0    0 -0.60368756354E+02  0.42669938199E+02  0.30860898488E+03  0.31733990597E+03  0.00000000000E+00 0.  1.
         22    1    3    3    0    0 -0.32911883245E+01 -0.59006383725E+02  0.11683817928E+03  0.13093412611E+03  0.00000000000E+00 0.  1.
</event>
<event>
 7    1  0.6294601E-006  0.5059708E+02  0.7818608E-02  0.1476632E+00
          2   -1    0    0  502    0  0.00000000000E+00  0.00000000000E+00  0.30803476008E+04  0.30803476008E+04  0.00000000000E+00 0. -1.
          1   -1    0    0  501    0 -0.00000000000E+00 -0.00000000000E+00 -0.90801487299E+02  0.90801487299E+02  0.00000000000E+00 0. -1.
         25    2    1    2    0    0  0.54053897554E+02 -0.90399218877E+01  0.25156558397E+03  0.28620452265E+03  0.12499696683E+03 0.  0.
          2    1    1    2  501    0 -0.12041060511E+02  0.37489476456E+02 -0.67961222255E+02  0.78544100438E+02  0.00000000000E+00 0. -1.
          1    1    1    2  502    0 -0.42012837043E+02 -0.28449554568E+02  0.28059417518E+04  0.28064004650E+04  0.00000000000E+00 0. -1.
         22    1    3    3    0    0  0.52477643685E+02 -0.38007295761E+02  0.48141104153E+02  0.80721890010E+02  0.00000000000E+00 0.  1.
         22    1    3    3    0    0  0.15762538687E+01  0.28967373873E+02  0.20342447982E+03  0.20548263264E+03  0.00000000000E+00 0.  1.
</event>
<event>
 7    1  0.6294601E-006  0.1360444E+03  0.7818608E-02  0.1248700E+00
          2   -1    0    0  502    0  0.00000000000E+00  0.00000000000E+00  0.84745703677E+02  0.84745703677E+02  0.00000000000E+00 0. -1.
          1   -1    0    0  501    0 -0.00000000000E+00 -0.00000000000E+00 -0.64630367972E+03  0.64630367972E+03  0.00000000000E+00 0. -1.
         25    2    1    2    0    0 -0.41537204942E+02  0.89219366241E+02 -0.24752167623E+03  0.29424176912E+03  0.12500321509E+03 0.  0.
          2    1    1    2  501    0  0.12974391022E+03 -0.13643381546E+03 -0.26583298087E+03  0.32575273132E+03  0.00000000000E+00 0. -1.
          1    1    1    2  502    0 -0.88206705283E+02  0.47214449221E+02 -0.48203318935E+02  0.11105488296E+03  0.00000000000E+00 0. -1.
         22    1    3    3    0    0 -0.42107925611E+02  0.95068555320E+02 -0.92673279208E+02  0.13928188787E+03  0.00000000000E+00 0.  1.
         22    1    3    3    0    0  0.57072066887E+00 -0.58491890787E+01 -0.15484839702E+03  0.15495988125E+03  0.00000000000E+00 0.  1.
</event>
<event>
 7    1  0.6294601E-006  0.8662378E+02  0.7818608E-02  0.1367522E+00
          2   -1    0    0  502    0  0.00000000000E+00  0.00000000000E+00  0.16941833303E+04  0.16941833303E+04  0.00000000000E+00 0. -1.
          1   -1    0    0  501    0 -0.00000000000E+00 -0.00000000000E+00 -0.68720533263E+02  0.68720533263E+02  0.00000000000E+00 0. -1.
         25    2    1    2    0    0 -0.12831997605E+03 -0.21720654487E+02  0.90793931769E+03  0.92569771310E+03  0.12499859336E+03 0.  0.
          2    1    1    2  501    0  0.52819372126E+02  0.60249970942E+01 -0.45695162053E+02  0.70101601243E+02  0.00000000000E+00 0. -1.
          1    1    1    2  502    0  0.75500603926E+02  0.15695657393E+02  0.76321864143E+03  0.76710454925E+03  0.00000000000E+00 0. -1.
         22    1    3    3    0    0  0.15645716996E+02 -0.11663064555E+02  0.30905014168E+03  0.30966563518E+03  0.00000000000E+00 0. -1.
         22    1    3    3    0    0 -0.14396569305E+03 -0.10057589933E+02  0.59888917601E+03  0.61603207792E+03  0.00000000000E+00 0. -1.
</event>
<event>
 7    1  0.6294601E-006  0.5063593E+02  0.7818608E-02  0.1455313E+00
          2   -1    0    0  502    0  0.00000000000E+00  0.00000000000E+00  0.43467344458E+03  0.43467344458E+03  0.00000000000E+00 0. -1.
          1   -1    0    0  501    0 -0.00000000000E+00 -0.00000000000E+00 -0.18860338627E+04  0.18860338627E+04  0.00000000000E+00 0. -1.
         25    2    1    2    0    0 -0.91352325539E+02  0.28344707007E+02  0.27173976019E+02  0.15972143211E+03  0.12499536433E+03 0.  0.
          2    1    1    2  501    0  0.49598138650E+02 -0.93381934819E+01 -0.18178663354E+04  0.18185667957E+04  0.00000000000E+00 0. -1.
          1    1    1    2  502    0  0.41754186889E+02 -0.19006513525E+02  0.33933194120E+03  0.34241907949E+03  0.00000000000E+00 0. -1.
         22    1    3    3    0    0 -0.60595846890E+02  0.73667361744E+02 -0.61879580767E+01  0.95587800852E+02  0.00000000000E+00 0. -1.
         22    1    3    3    0    0 -0.30756478650E+02 -0.45322654737E+02  0.33361934096E+02  0.64133631255E+02  0.00000000000E+00 0. -1.
</event>
<event>
 7    1  0.6294601E-006  0.1103666E+03  0.7818608E-02  0.1334121E+00
          2   -1    0    0  502    0  0.00000000000E+00  0.00000000000E+00  0.10569112672E+04  0.10569112672E+04  0.00000000000E+00 0. -1.
          1   -1    0    0  501    0 -0.00000000000E+00 -0.00000000000E+00 -0.23213754769E+03  0.23213754769E+03  0.00000000000E+00 0. -1.
         25    2    1    2    0    0 -0.73415218511E+02 -0.99719478681E+02  0.59973912852E+03  0.62501650127E+03  0.12499934337E+03 0.  0.
          2    1    1    2  501    0  0.55096753880E+02 -0.63839422402E+01 -0.20931333809E+03  0.21653748061E+03  0.00000000000E+00 0. -1.
          1    1    1    2  502    0  0.18318464631E+02  0.10610342092E+03  0.43434792907E+03  0.44749483300E+03  0.00000000000E+00 0. -1.
         22    1    3    3    0    0 -0.29522647528E+02 -0.12283220107E+03  0.43420454523E+03  0.45220893781E+03  0.00000000000E+00 0. -1.
         22    1    3    3    0    0 -0.43892570983E+02  0.23112722386E+02  0.16553458330E+03  0.17280756347E+03  0.00000000000E+00 0. -1.
</event>
<event>
 7    1  0.6294601E-006  0.1312995E+03  0.7818608E-02  0.1285065E+00
          2   -1    0    0  502    0  0.00000000000E+00  0.00000000000E+00  0.36381930906E+03  0.36381930906E+03  0.00000000000E+00 0. -1.
          1   -1    0    0  501    0 -0.00000000000E+00 -0.00000000000E+00 -0.12512954595E+04  0.12512954595E+04  0.00000000000E+00 0. -1.
         25    2    1    2    0    0  0.14872107756E+03  0.13153150887E+02  0.11540745300E+02  0.19505766267E+03  0.12499335453E+03 0.  0.
          2    1    1    2  501    0 -0.11983923613E+03  0.53669296448E+02 -0.11506436369E+04  0.11581116591E+04  0.00000000000E+00 0. -1.
          1    1    1    2  502    0 -0.28881841422E+02 -0.66822447335E+02  0.25162674113E+03  0.26194544677E+03  0.00000000000E+00 0. -1.
         22    1    3    3    0    0  0.16901014460E+03  0.16139252143E+02  0.23374759068E+02  0.17138052340E+03  0.00000000000E+00 0. -1.
         22    1    3    3    0    0 -0.20289067047E+02 -0.29861012564E+01 -0.11834013768E+02  0.23677139274E+02  0.00000000000E+00 0. -1.
</event>
<event>
 7    1  0.6294601E-006  0.1289428E+03  0.7818608E-02  0.1261509E+00
          2   -1    0    0  502    0  0.00000000000E+00  0.00000000000E+00  0.17440546536E+04  0.17440546536E+04  0.00000000000E+00 0. -1.
          1   -1    0    0  501    0 -0.00000000000E+00 -0.00000000000E+00 -0.97912831461E+03  0.97912831461E+03  0.00000000000E+00 0. -1.
         25    2    1    2    0    0 -0.47664109553E+01 -0.15610731481E+03  0.18580654201E+03  0.27302351062E+03  0.12500221553E+03 0.  0.
          2    1    1    2  501    0 -0.73542793581E+02  0.10597914483E+03 -0.92963511682E+03  0.93854225907E+03  0.00000000000E+00 0. -1.
          1    1    1    2  502    0  0.78309204537E+02  0.50128169982E+02  0.15087549139E+04  0.15116171986E+04  0.00000000000E+00 0. -1.
         22    1    3    3    0    0  0.39277688171E+02 -0.12753987729E+02  0.78235206519E+02  0.88465521703E+02  0.00000000000E+00 0. -1.
         22    1    3    3    0    0 -0.44044099126E+02 -0.14335332708E+03  0.10757133549E+03  0.18455798891E+03  0.00000000000E+00 0. -1.
</event>
<event>
 7    1  0.6294601E-006  0.6568420E+02  0.7818608E-02  0.1407190E+00
          2   -1    0    0  502    0  0.00000000000E+00  0.00000000000E+00  0.13738296562E+04  0.13738296562E+04  0.00000000000E+00 0. -1.
          1   -1    0    0  501    0 -0.00000000000E+00 -0.00000000000E+00 -0.81713207952E+02  0.81713207952E+02  0.00000000000E+00 0. -1.
         25    2    1    2    0    0 -0.31645381584E+02 -0.23030748580E+02  0.61258219019E+03  0.62642918569E+03  0.12499895758E+03 0.  0.
          2    1    1    2  501    0 -0.43281152909E+02  0.26800765409E+02 -0.64015114541E+02  0.81789205359E+02  0.00000000000E+00 0. -1.
          1    1    1    2  502    0  0.74926534493E+02 -0.37700168288E+01  0.74354937264E+03  0.74732447314E+03  0.00000000000E+00 0. -1.
         22    1    3    3    0    0 -0.45833218668E+02  0.22560503581E+02  0.51765879180E+03  0.52017332206E+03  0.00000000000E+00 0.  1.
         22    1    3    3    0    0  0.14187837084E+02 -0.45591252161E+02  0.94923398385E+02  0.10625586363E+03  0.00000000000E+00 0.  1.
</event>
<event>
 7    1  0.6294601E-006  0.2716282E+03  0.7818608E-02  0.1222772E+00
          2   -1    0    0  502    0  0.00000000000E+00  0.00000000000E+00  0.12569458318E+04  0.12569458318E+04  0.00000000000E+00 0. -1.
          1   -1    0    0  501    0 -0.00000000000E+00 -0.00000000000E+00 -0.46845034113E+03  0.46845034113E+03  0.00000000000E+00 0. -1.
         25    2    1    2    0    0 -0.21495803817E+03  0.18452503023E+02  0.24251538338E+03  0.34782941772E+03  0.12499655840E+03 0.  0.
          2    1    1    2  501    0  0.27873116881E+03 -0.32610859421E+02 -0.36714120741E+03  0.46211167351E+03  0.00000000000E+00 0. -1.
          1    1    1    2  502    0 -0.63773130638E+02  0.14158356398E+02  0.91312131466E+03  0.91545508166E+03  0.00000000000E+00 0. -1.
         22    1    3    3    0    0 -0.60968594286E+02 -0.51674951454E+02  0.84614905867E+02  0.11639223510E+03  0.00000000000E+00 0.  1.
         22    1    3    3    0    0 -0.15398944388E+03  0.70127454477E+02  0.15790047751E+03  0.23143718261E+03  0.00000000000E+00 0.  1.
</event>
<event>
 7    1  0.6294601E-006  0.1179691E+03  0.7818608E-02  0.1320904E+00
          2   -1    0    0  502    0  0.00000000000E+00  0.00000000000E+00  0.21316498525E+03  0.21316498525E+03  0.00000000000E+00 0. -1.
          1   -1    0    0  501    0 -0.00000000000E+00 -0.00000000000E+00 -0.18796095259E+04  0.18796095259E+04  0.00000000000E+00 0. -1.
         25    2    1    2    0    0 -0.13688121321E+02  0.66853127891E+02 -0.10817209198E+03  0.17883408627E+03  0.12499489411E+03 0.  0.
          2    1    1    2  501    0  0.55254340626E+02 -0.10775402050E+03 -0.17291506784E+04  0.17333857158E+04  0.00000000000E+00 0. -1.
          1    1    1    2  502    0 -0.41566219304E+02  0.40900892611E+02  0.17087822969E+03  0.18055470912E+03  0.00000000000E+00 0. -1.
         22    1    3    3    0    0 -0.62548160189E+02  0.38476765337E+01 -0.48769591696E+02  0.79407493550E+02  0.00000000000E+00 0. -1.
         22    1    3    3    0    0  0.48860038868E+02  0.63005451358E+02 -0.59402500286E+02  0.99426592716E+02  0.00000000000E+00 0. -1.
</event>
<event>
 7    1  0.6294601E-006  0.1185086E+03  0.7818608E-02  0.1257189E+00
          2   -1    0    0  502    0  0.00000000000E+00  0.00000000000E+00  0.14654709271E+04  0.14654709271E+04  0.00000000000E+00 0. -1.
          1   -1    0    0  501    0 -0.00000000000E+00 -0.00000000000E+00 -0.24127618207E+04  0.24127618207E+04  0.00000000000E+00 0. -1.
         25    2    1    2    0    0  0.14097586692E+03  0.15665707323E+03  0.11861842458E+03  0.27223291512E+03  0.12499918311E+03 0.  0.
          2    1    1    2  501    0 -0.10240546694E+03 -0.58397690698E+02 -0.23322699469E+04  0.23352473691E+04  0.00000000000E+00 0. -1.
          1    1    1    2  502    0 -0.38570399983E+02 -0.98259382536E+02  0.12663606286E+04  0.12707524636E+04  0.00000000000E+00 0. -1.
         22    1    3    3    0    0  0.72857938933E+02  0.66450362129E+02 -0.12179130091E+02  0.99359252727E+02  0.00000000000E+00 0.  1.
         22    1    3    3    0    0  0.68117927987E+02  0.90206711104E+02  0.13079755468E+03  0.17287366240E+03  0.00000000000E+00 0.  1.
</event>
<event>
 7    1  0.6294601E-006  0.8080706E+02  0.7818608E-02  0.1405086E+00
          2   -1    0    0  502    0  0.00000000000E+00  0.00000000000E+00  0.53868798545E+02  0.53868798545E+02  0.00000000000E+00 0. -1.
          1   -1    0    0  501    0 -0.00000000000E+00 -0.00000000000E+00 -0.12060263268E+04  0.12060263268E+04  0.00000000000E+00 0. -1.
         25    2    1    2    0    0 -0.30472227286E+02 -0.29198568634E+02 -0.12238727164E+03  0.17995786091E+03  0.12500029759E+03 0.  0.
          2    1    1    2  501    0  0.49491141917E+02  0.66722928677E+02 -0.10342948195E+04  0.10376257013E+04  0.00000000000E+00 0. -1.
          1    1    1    2  502    0 -0.19018914631E+02 -0.37524360043E+02  0.45245628412E+01  0.42311563186E+02  0.00000000000E+00 0. -1.
         22    1    3    3    0    0 -0.66241364161E+02 -0.54958522000E+02 -0.66438765237E+02  0.10873116845E+03  0.00000000000E+00 0. -1.
         22    1    3    3    0    0  0.35769136874E+02  0.25759953366E+02 -0.55948506406E+02  0.71226692463E+02  0.00000000000E+00 0. -1.
</event>
<event>
 7    1  0.6294601E-006  0.1268617E+03  0.7818608E-02  0.1294964E+00
          2   -1    0    0  502    0  0.00000000000E+00  0.00000000000E+00  0.45425613200E+03  0.45425613200E+03  0.00000000000E+00 0. -1.
          1   -1    0    0  501    0 -0.00000000000E+00 -0.00000000000E+00 -0.27705091319E+03  0.27705091319E+03  0.00000000000E+00 0. -1.
         25    2    1    2    0    0 -0.65402606309E+02 -0.28544235692E+01  0.14653692158E+03  0.20343146248E+03  0.12500256756E+03 0.  0.
          2    1    1    2  501    0  0.13294731137E+03 -0.95410321862E+01 -0.22589142950E+03  0.26228411469E+03  0.00000000000E+00 0. -1.
          1    1    1    2  502    0 -0.67544705058E+02  0.12395455755E+02  0.25655972674E+03  0.26559146803E+03  0.00000000000E+00 0. -1.
         22    1    3    3    0    0 -0.62156719710E+02 -0.58112883091E+02  0.98258302846E+02  0.12998176435E+03  0.00000000000E+00 0. -1.
         22    1    3    3    0    0 -0.32458865997E+01  0.55258459521E+02  0.48278618729E+02  0.73449698127E+02  0.00000000000E+00 0. -1.
</event>
<event>
 7    1  0.6294601E-006  0.3939278E+02  0.7818608E-02  0.1539160E+00
          2   -1    0    0  502    0  0.00000000000E+00  0.00000000000E+00  0.30241911638E+03  0.30241911638E+03  0.00000000000E+00 0. -1.
          1   -1    0    0  501    0 -0.00000000000E+00 -0.00000000000E+00 -0.10692245516E+04  0.10692245516E+04  0.00000000000E+00 0. -1.
         25    2    1    2    0    0  0.10093181834E+02 -0.21270737773E+02 -0.61189871846E+03  0.62497941966E+03  0.12499966695E+03 0.  0.
          2    1    1    2  501    0 -0.41605551294E+02  0.11282377167E+02 -0.44882617956E+03  0.45089162045E+03  0.00000000000E+00 0. -1.
          1    1    1    2  502    0  0.31512369460E+02  0.99883606063E+01  0.29391946281E+03  0.29577262787E+03  0.00000000000E+00 0. -1.
         22    1    3    3    0    0 -0.21999456195E+02  0.35170271301E+02 -0.42703916945E+03  0.42904938679E+03  0.00000000000E+00 0.  1.
         22    1    3    3    0    0  0.32092638029E+02 -0.56441009074E+02 -0.18485954901E+03  0.19593003287E+03  0.00000000000E+00 0.  1.
</event>
<event>
 7    1  0.6294601E-006  0.7680822E+02  0.7818608E-02  0.1420291E+00
          2   -1    0    0  502    0  0.00000000000E+00  0.00000000000E+00  0.56885382191E+03  0.56885382191E+03  0.00000000000E+00 0. -1.
          1   -1    0    0  501    0 -0.00000000000E+00 -0.00000000000E+00 -0.91687627199E+03  0.91687627199E+03  0.00000000000E+00 0. -1.
         25    2    1    2    0    0  0.60825813662E+02 -0.20928944833E+02  0.12292249170E+03  0.18673544940E+03  0.12498955460E+03 0.  0.
          2    1    1    2  501    0 -0.83800126890E+01 -0.38422395983E+02 -0.88073911102E+03  0.88161663256E+03  0.00000000000E+00 0. -1.
          1    1    1    2  502    0 -0.52445800973E+02  0.59351340816E+02  0.40979416925E+03  0.41737801193E+03  0.00000000000E+00 0. -1.
         22    1    3    3    0    0 -0.31151756463E+02 -0.35687620694E+02  0.43696884286E+02  0.64447311020E+02  0.00000000000E+00 0.  1.
         22    1    3    3    0    0  0.91977570125E+02  0.14758675860E+02  0.79225607410E+02  0.12228813838E+03  0.00000000000E+00 0.  1.
</event>
<event>
 7    1  0.6294601E-006  0.5385595E+02  0.7818608E-02  0.1495447E+00
          2   -1    0    0  502    0  0.00000000000E+00  0.00000000000E+00  0.18577162633E+04  0.18577162633E+04  0.00000000000E+00 0. -1.
          1   -1    0    0  501    0 -0.00000000000E+00 -0.00000000000E+00 -0.19154296928E+04  0.19154296928E+04  0.00000000000E+00 0. -1.
         25    2    1    2    0    0 -0.11253980400E+02  0.49971890461E+02  0.59913177708E+02  0.14777709078E+03  0.12499855113E+03 0.  0.
          2    1    1    2  501    0 -0.21168671633E+02 -0.49571154243E+02 -0.18709596919E+04  0.18717359805E+04  0.00000000000E+00 0. -1.
          1    1    1    2  502    0  0.32422652034E+02 -0.40073621800E+00  0.17533330847E+04  0.17536328848E+04  0.00000000000E+00 0. -1.
         22    1    3    3    0    0 -0.53294198353E+02  0.27368866150E+02  0.76570003083E+02  0.97222897429E+02  0.00000000000E+00 0. -1.
         22    1    3    3    0    0  0.42040217953E+02  0.22603024311E+02 -0.16656825374E+02  0.50554193348E+02  0.00000000000E+00 0. -1.
</event>
<event>
 7    1  0.6294601E-006  0.8259965E+02  0.7818608E-02  0.1345307E+00
          2   -1    0    0  502    0  0.00000000000E+00  0.00000000000E+00  0.13830270534E+04  0.13830270534E+04  0.00000000000E+00 0. -1.
          1   -1    0    0  501    0 -0.00000000000E+00 -0.00000000000E+00 -0.44532888627E+03  0.44532888627E+03  0.00000000000E+00 0. -1.
         25    2    1    2    0    0  0.39693024415E+02 -0.58586076667E+02  0.90505251632E+03  0.91638033519E+03  0.12499998742E+03 0.  0.
          2    1    1    2  501    0 -0.49214864314E+02 -0.45851041520E+02 -0.43120403341E+03  0.43641876598E+03  0.00000000000E+00 0. -1.
          1    1    1    2  502    0  0.95218398989E+01  0.10443711819E+03  0.46384968425E+03  0.47555683852E+03  0.00000000000E+00 0. -1.
         22    1    3    3    0    0  0.46842564728E+02  0.29435263491E+02  0.35300009177E+03  0.35730900548E+03  0.00000000000E+00 0.  1.
         22    1    3    3    0    0 -0.71495403129E+01 -0.88021340158E+02  0.55205242455E+03  0.55907132971E+03  0.00000000000E+00 0.  1.
</event>
<event>
 7    1  0.6294601E-006  0.1003147E+03  0.7818608E-02  0.1315038E+00
          2   -1    0    0  502    0  0.00000000000E+00  0.00000000000E+00  0.52413186145E+03  0.52413186145E+03  0.00000000000E+00 0. -1.
          1   -1    0    0  501    0 -0.00000000000E+00 -0.00000000000E+00 -0.15550117643E+04  0.15550117643E+04  0.00000000000E+00 0. -1.
         25    2    1    2    0    0  0.31979237244E+02  0.15229478711E+03 -0.94021583287E+03  0.96116969225E+03  0.12499996447E+03 0.  0.
          2    1    1    2  501    0 -0.69216841016E+01 -0.84497846026E+02 -0.59877527278E+03  0.60474756964E+03  0.00000000000E+00 0. -1.
          1    1    1    2  502    0 -0.25057553142E+02 -0.67796941085E+02  0.50811120278E+03  0.51322636388E+03  0.00000000000E+00 0. -1.
         22    1    3    3    0    0 -0.47823041686E+02  0.47648899415E+02 -0.35145454499E+03  0.35787953019E+03  0.00000000000E+00 0.  1.
         22    1    3    3    0    0  0.79802278930E+02  0.10464588770E+03 -0.58876128788E+03  0.60329016206E+03  0.00000000000E+00 0.  1.
</event>
<event>
 7    1  0.6294601E-006  0.6689131E+02  0.7818608E-02  0.1521892E+00
          2   -1    0    0  502    0  0.00000000000E+00  0.00000000000E+00  0.68652652494E+03  0.68652652494E+03  0.00000000000E+00 0. -1.
          1   -1    0    0  501    0 -0.00000000000E+00 -0.00000000000E+00 -0.42701899653E+03  0.42701899653E+03  0.00000000000E+00 0. -1.
         25    2    1    2    0    0 -0.23348826893E+02  0.48707720656E+02 -0.25217752077E+03  0.28659310358E+03  0.12499798107E+03 0.  0.
          2    1    1    2  501    0 -0.21801263756E+02  0.77520172978E+00 -0.15519291018E+03  0.15671865048E+03  0.00000000000E+00 0. -1.
          1    1    1    2  502    0  0.45150090649E+02 -0.49482922386E+02  0.66687795936E+03  0.67023376740E+03  0.00000000000E+00 0. -1.
         22    1    3    3    0    0 -0.56400510605E+02 -0.19959294983E+02 -0.10462848122E+03  0.12052597286E+03  0.00000000000E+00 0.  1.
         22    1    3    3    0    0  0.33051683712E+02  0.68667015639E+02 -0.14754903955E+03  0.16606713072E+03  0.00000000000E+00 0.  1.
</event>
<event>
 7    1  0.6294601E-006  0.1584553E+03  0.7818608E-02  0.1320375E+00
          2   -1    0    0  502    0  0.00000000000E+00  0.00000000000E+00  0.49554630545E+03  0.49554630545E+03  0.00000000000E+00 0. -1.
          1   -1    0    0  501    0 -0.00000000000E+00 -0.00000000000E+00 -0.46514178568E+03  0.46514178568E+03  0.00000000000E+00 0. -1.
         25    2    1    2    0    0  0.11289595978E+03 -0.14338164978E+03 -0.13742920556E+03  0.26041445582E+03  0.12500042812E+03 0.  0.
          2    1    1    2  501    0 -0.11308899771E+03  0.99761312101E+02 -0.24361829141E+03  0.28651581580E+03  0.00000000000E+00 0. -1.
          1    1    1    2  502    0  0.19303793595E+00  0.43620337680E+02  0.41145201674E+03  0.41375781951E+03  0.00000000000E+00 0. -1.
         22    1    3    3    0    0  0.77400405629E+02 -0.41551560286E+01 -0.49141472433E+02  0.91776753190E+02  0.00000000000E+00 0.  1.
         22    1    3    3    0    0  0.35495554146E+02 -0.13922649375E+03 -0.88287733124E+02  0.16863770263E+03  0.00000000000E+00 0.  1.
</event>
<event>
 7    1  0.6294601E-006  0.1114253E+03  0.7818608E-02  0.1409878E+00
          2   -1    0    0  502    0  0.00000000000E+00  0.00000000000E+00  0.12806880336E+03  0.12806880336E+03  0.00000000000E+00 0. -1.
          1   -1    0    0  501    0 -0.00000000000E+00 -0.00000000000E+00 -0.11243566659E+04  0.11243566659E+04  0.00000000000E+00 0. -1.
         25    2    1    2    0    0 -0.63539634152E+02 -0.97691655119E+02 -0.41833833998E+03  0.45190536656E+03  0.12502219419E+03 0.  0.
          2    1    1    2  501    0  0.81871382491E+02  0.74725661907E+02 -0.68274402271E+03  0.69168363315E+03  0.00000000000E+00 0. -1.
          1    1    1    2  502    0 -0.18331748339E+02  0.22965993212E+02  0.10479450015E+03  0.10883646954E+03  0.00000000000E+00 0. -1.
         22    1    3    3    0    0 -0.12572672939E+02 -0.11593045380E+03 -0.29497107678E+03  0.31718429716E+03  0.00000000000E+00 0.  1.
         22    1    3    3    0    0 -0.50966961213E+02  0.18238798681E+02 -0.12336726320E+03  0.13472106940E+03  0.00000000000E+00 0.  1.
</event>
<event>
 7    1  0.6294601E-006  0.1261286E+03  0.7818608E-02  0.1344195E+00
          2   -1    0    0  502    0  0.00000000000E+00  0.00000000000E+00  0.11528697804E+03  0.11528697804E+03  0.00000000000E+00 0. -1.
          1   -1    0    0  501    0 -0.00000000000E+00 -0.00000000000E+00 -0.57185963439E+03  0.57185963439E+03  0.00000000000E+00 0. -1.
         25    2    1    2    0    0  0.12631599774E+03  0.19744248720E+02 -0.11924346364E+03  0.21491617117E+03  0.12499756145E+03 0.  0.
          2    1    1    2  501    0 -0.14651012887E+02  0.41990563957E+02 -0.34168001757E+03  0.34456217733E+03  0.00000000000E+00 0. -1.
          1    1    1    2  502    0 -0.11166498485E+03 -0.61734812677E+02  0.43508248669E+01  0.12766826393E+03  0.00000000000E+00 0. -1.
         22    1    3    3    0    0  0.51655258212E+02 -0.43234472464E+02 -0.91038562764E+02  0.11324974711E+03  0.00000000000E+00 0. -1.
         22    1    3    3    0    0  0.74660739523E+02  0.62978721183E+02 -0.28204900881E+02  0.10166642406E+03  0.00000000000E+00 0. -1.
</event>
<event>
 7    1  0.6294601E-006  0.3765622E+02  0.7818608E-02  0.1530050E+00
          2   -1    0    0  502    0  0.00000000000E+00  0.00000000000E+00  0.65089473207E+03  0.65089473207E+03  0.00000000000E+00 0. -1.
          1   -1    0    0  501    0 -0.00000000000E+00 -0.00000000000E+00 -0.16700240847E+03  0.16700240847E+03  0.00000000000E+00 0. -1.
         25    2    1    2    0    0 -0.12058301006E+01  0.32796425838E+02 -0.73129493405E+02  0.14850808295E+03  0.12501867190E+03 0.  0.
          2    1    1    2  501    0 -0.34535936888E+02 -0.20942449834E+02 -0.48263260339E+02  0.62933770269E+02  0.00000000000E+00 0. -1.
          1    1    1    2  502    0  0.35741766988E+02 -0.11853976004E+02  0.60528507735E+03  0.60645528732E+03  0.00000000000E+00 0. -1.
         22    1    3    3    0    0  0.53797880798E+02 -0.14615178679E+02 -0.23203663122E+02  0.60383983045E+02  0.00000000000E+00 0.  1.
         22    1    3    3    0    0 -0.55003710898E+02  0.47411604517E+02 -0.49925830283E+02  0.88124099910E+02  0.00000000000E+00 0.  1.
</event>
<event>
 7    1  0.6294601E-006  0.7081534E+02  0.7818608E-02  0.1383292E+00
          2   -1    0    0  502    0  0.00000000000E+00  0.00000000000E+00  0.21610275265E+03  0.21610275265E+03  0.00000000000E+00 0. -1.
          1   -1    0    0  501    0 -0.00000000000E+00 -0.00000000000E+00 -0.11555712288E+04  0.11555712288E+04  0.00000000000E+00 0. -1.
         25    2    1    2    0    0 -0.82176623290E+01 -0.18084147285E+02 -0.50190943149E+03  0.51762196194E+03  0.12499940683E+03 0.  0.
          2    1    1    2  501    0  0.24878091973E+02 -0.51430091062E+02 -0.63835768481E+03  0.64090912576E+03  0.00000000000E+00 0. -1.
          1    1    1    2  502    0 -0.16660429644E+02  0.69514238348E+02  0.20079864017E+03  0.21314289372E+03  0.00000000000E+00 0. -1.
         22    1    3    3    0    0  0.20640211602E+02 -0.66196827635E+02 -0.24273549712E+03  0.25244516213E+03  0.00000000000E+00 0. -1.
         22    1    3    3    0    0 -0.28857873931E+02  0.48112680350E+02 -0.25917393437E+03  0.26517679981E+03  0.00000000000E+00 0. -1.
</event>
<event>
 7    1  0.6294601E-006  0.5352615E+02  0.7818608E-02  0.1489032E+00
          2   -1    0    0  502    0  0.00000000000E+00  0.00000000000E+00  0.17037895733E+03  0.17037895733E+03  0.00000000000E+00 0. -1.
          1   -1    0    0  501    0 -0.00000000000E+00 -0.00000000000E+00 -0.42201703837E+03  0.42201703837E+03  0.00000000000E+00 0. -1.
         25    2    1    2    0    0 -0.28589317811E+02 -0.17420542575E+02 -0.33561346916E+02  0.13367091068E+03  0.12498289466E+03 0.  0.
          2    1    1    2  501    0  0.64442812475E+01 -0.33497118661E+02 -0.33107194924E+03  0.33282461040E+03  0.00000000000E+00 0. -1.
          1    1    1    2  502    0  0.22145036563E+02  0.50917661236E+02  0.11299521511E+03  0.12590047461E+03  0.00000000000E+00 0. -1.
         22    1    3    3    0    0  0.14383488731E+02 -0.46164847343E+02 -0.58809079309E+02  0.76135311699E+02  0.00000000000E+00 0.  1.
         22    1    3    3    0    0 -0.42972806541E+02  0.28744304769E+02  0.25247732393E+02  0.57535598977E+02  0.00000000000E+00 0.  1.
</event>
<event>
 7    1  0.6294601E-006  0.5022329E+02  0.7818608E-02  0.1518522E+00
          2   -1    0    0  502    0  0.00000000000E+00  0.00000000000E+00  0.14615369551E+04  0.14615369551E+04  0.00000000000E+00 0. -1.
          1   -1    0    0  501    0 -0.00000000000E+00 -0.00000000000E+00 -0.88188580926E+02  0.88188580926E+02  0.00000000000E+00 0. -1.
         25    2    1    2    0    0  0.28107049335E+00  0.69736944679E+02  0.83459735921E+03  0.84678293432E+03  0.12500106157E+03 0.  0.
          2    1    1    2  501    0  0.16232069175E+02 -0.24892055832E+02 -0.78452316626E+02  0.83891957286E+02  0.00000000000E+00 0. -1.
          1    1    1    2  502    0 -0.16513139668E+02 -0.44844888847E+02  0.61720333160E+03  0.61905064443E+03  0.00000000000E+00 0. -1.
         22    1    3    3    0    0 -0.46190007319E+02 -0.11220629689E+02  0.21487812361E+03  0.22007277731E+03  0.00000000000E+00 0. -1.
         22    1    3    3    0    0  0.46471077813E+02  0.80957574368E+02  0.61971923561E+03  0.62671015701E+03  0.00000000000E+00 0. -1.
</event>
<event>
 7    1  0.6294601E-006  0.9382442E+02  0.7818608E-02  0.1424235E+00
          2   -1    0    0  502    0  0.00000000000E+00  0.00000000000E+00  0.74978174347E+03  0.74978174347E+03  0.00000000000E+00 0. -1.
          1   -1    0    0  501    0 -0.00000000000E+00 -0.00000000000E+00 -0.30127954825E+03  0.30127954825E+03  0.00000000000E+00 0. -1.
         25    2    1    2    0    0 -0.63236209239E+01 -0.68867590920E+02  0.23378104620E+02  0.14475346294E+03  0.12499718395E+03 0.  0.
          2    1    1    2  501    0  0.17680714326E+02 -0.25748954857E+02 -0.23614788521E+03  0.23820461797E+03  0.00000000000E+00 0. -1.
          1    1    1    2  502    0 -0.11357093402E+02  0.94616545777E+02  0.66127197581E+03  0.66810321081E+03  0.00000000000E+00 0. -1.
         22    1    3    3    0    0 -0.25466616120E+02  0.26466132855E+02  0.29810827151E+02  0.47304229624E+02  0.00000000000E+00 0.  1.
         22    1    3    3    0    0  0.19142995196E+02 -0.95333723775E+02 -0.64327225309E+01  0.97449233312E+02  0.00000000000E+00 0.  1.
</event>
<event>
 7    1  0.6294601E-006  0.1029319E+03  0.7818608E-02  0.1286122E+00
          2   -1    0    0  502    0  0.00000000000E+00  0.00000000000E+00  0.35145447699E+04  0.35145447699E+04  0.00000000000E+00 0. -1.
          1   -1    0    0  501    0 -0.00000000000E+00 -0.00000000000E+00 -0.34837703973E+03  0.34837703973E+03  0.00000000000E+00 0. -1.
         25    2    1    2    0    0 -0.31003391707E+02  0.39746628935E+02 -0.75679019808E+02  0.15461380944E+03  0.12504843550E+03 0.  0.
          2    1    1    2  501    0  0.12286045887E+03 -0.43616370238E+02 -0.21435226198E+03  0.25088637333E+03  0.00000000000E+00 0. -1.
          1    1    1    2  502    0 -0.91857067161E+02  0.38697413028E+01  0.34561990120E+04  0.34574216269E+04  0.00000000000E+00 0. -1.
         22    1    3    3    0    0 -0.62442807610E+02 -0.65227145904E+01 -0.76121714345E+02  0.98672009317E+02  0.00000000000E+00 0. -1.
         22    1    3    3    0    0  0.31439415904E+02  0.46269343525E+02  0.44269453742E+00  0.55941800124E+02  0.00000000000E+00 0. -1.
</event>
<event>
 7    1  0.6294601E-006  0.3855194E+02  0.7818608E-02  0.1560246E+00
          2   -1    0    0  502    0  0.00000000000E+00  0.00000000000E+00  0.62374557275E+02  0.62374557275E+02  0.00000000000E+00 0. -1.
          1   -1    0    0  501    0 -0.00000000000E+00 -0.00000000000E+00 -0.27253095766E+03  0.27253095766E+03  0.00000000000E+00 0. -1.
         25    2    1    2    0    0  0.16623862397E+02  0.20577376685E+00 -0.26987985757E+02  0.12895629162E+03  0.12499991452E+03 0.  0.
          2    1    1    2  501    0 -0.29299502233E+02 -0.26841720036E+02 -0.16827789278E+03  0.17290571988E+03  0.00000000000E+00 0. -1.
          1    1    1    2  502    0  0.12675639836E+02  0.26635946269E+02 -0.14890521847E+02  0.33043503442E+02  0.00000000000E+00 0. -1.
         22    1    3    3    0    0 -0.70900932147E+01 -0.44839000263E+02 -0.54630042574E+02  0.71029901577E+02  0.00000000000E+00 0.  1.
         22    1    3    3    0    0  0.23713955612E+02  0.45044774030E+02  0.27642056818E+02  0.57926390042E+02  0.00000000000E+00 0.  1.
</event>
<event>
 7    1  0.6294601E-006  0.4822510E+02  0.7818608E-02  0.1499231E+00
          2   -1    0    0  502    0  0.00000000000E+00  0.00000000000E+00  0.89389828040E+03  0.89389828040E+03  0.00000000000E+00 0. -1.
          1   -1    0    0  501    0 -0.00000000000E+00 -0.00000000000E+00 -0.52738357764E+03  0.52738357764E+03  0.00000000000E+00 0. -1.
         25    2    1    2    0    0 -0.82612416870E+02  0.10400606866E+02 -0.95622987944E+02  0.17804908035E+03  0.12499894057E+03 0.  0.
          2    1    1    2  501    0  0.34760245358E+02 -0.60247870084E+01 -0.38907186753E+03  0.39066800588E+03  0.00000000000E+00 0. -1.
          1    1    1    2  502    0  0.47852171512E+02 -0.43758198578E+01  0.85120955823E+03  0.85256477182E+03  0.00000000000E+00 0. -1.
         22    1    3    3    0    0 -0.49659230949E+02  0.42685872799E+02  0.66817937462E+01  0.65823774753E+02  0.00000000000E+00 0. -1.
         22    1    3    3    0    0 -0.32953185921E+02 -0.32285265932E+02 -0.10230478169E+03  0.11222530559E+03  0.00000000000E+00 0. -1.
</event>
<event>
 7    1  0.6294601E-006  0.1737971E+03  0.7818608E-02  0.1211169E+00
          2   -1    0    0  502    0  0.00000000000E+00  0.00000000000E+00  0.13321034802E+04  0.13321034802E+04  0.00000000000E+00 0. -1.
          1   -1    0    0  501    0 -0.00000000000E+00 -0.00000000000E+00 -0.35752343605E+03  0.35752343605E+03  0.00000000000E+00 0. -1.
         25    2    1    2    0    0  0.14726718158E+02  0.25742896785E+03  0.58655473715E+03  0.65280719061E+03  0.12499687486E+03 0.  0.
          2    1    1    2  501    0  0.51918354605E+02 -0.16322306657E+03 -0.29661807782E+03  0.34251944339E+03  0.00000000000E+00 0. -1.
          1    1    1    2  502    0 -0.66645072763E+02 -0.94205901279E+02  0.68464338487E+03  0.69430028231E+03  0.00000000000E+00 0. -1.
         22    1    3    3    0    0 -0.21591855325E+02  0.13771218881E+03  0.18137106997E+03  0.22874947035E+03  0.00000000000E+00 0. -1.
         22    1    3    3    0    0  0.36318573484E+02  0.11971677904E+03  0.40518366718E+03  0.42405772026E+03  0.00000000000E+00 0. -1.
</event>
<event>
 7    1  0.6294601E-006  0.6996677E+02  0.7818608E-02  0.1490987E+00
          2   -1    0    0  502    0  0.00000000000E+00  0.00000000000E+00  0.16841316501E+04  0.16841316501E+04  0.00000000000E+00 0. -1.
          1   -1    0    0  501    0 -0.00000000000E+00 -0.00000000000E+00 -0.18560547530E+02  0.18560547530E+02  0.00000000000E+00 0. -1.
         25    2    1    2    0    0 -0.55732443441E+02 -0.51517702960E+02  0.76451728401E+03  0.77837561344E+03  0.12498695568E+03 0.  0.
          2    1    1    2  501    0  0.32145842566E+02  0.61831234099E+02  0.94833514019E+02  0.11768539453E+03  0.00000000000E+00 0. -1.
          1    1    1    2  502    0  0.23586600875E+02 -0.10313531140E+02  0.80622030456E+03  0.80663118967E+03  0.00000000000E+00 0. -1.
         22    1    3    3    0    0 -0.95971578102E+02 -0.41906035848E+02  0.53278320043E+03  0.54297753020E+03  0.00000000000E+00 0.  1.
         22    1    3    3    0    0  0.40239134661E+02 -0.96116671118E+01  0.23173408358E+03  0.23539808324E+03  0.00000000000E+00 0.  1.
</event>
<event>
 7    1  0.6294601E-006  0.6050493E+02  0.7818608E-02  0.1475810E+00
          2   -1    0    0  502    0  0.00000000000E+00  0.00000000000E+00  0.14869614665E+04  0.14869614665E+04  0.00000000000E+00 0. -1.
          1   -1    0    0  501    0 -0.00000000000E+00 -0.00000000000E+00 -0.17496195772E+04  0.17496195772E+04  0.00000000000E+00 0. -1.
         25    2    1    2    0    0 -0.52353823420E+01 -0.69031803342E+02 -0.16549081335E+04  0.16610645513E+04  0.12498685516E+03 0.  0.
          2    1    1    2  501    0 -0.27644994734E+02  0.18240917635E+02 -0.88002045383E+02  0.94028382958E+02  0.00000000000E+00 0. -1.
          1    1    1    2  502    0  0.32880377076E+02  0.50790885707E+02  0.14802520682E+04  0.14814881095E+04  0.00000000000E+00 0. -1.
         22    1    3    3    0    0 -0.47161056918E+02 -0.84864160340E+02 -0.10379271843E+04  0.10424581195E+04  0.00000000000E+00 0. -1.
         22    1    3    3    0    0  0.41925674576E+02  0.15832356998E+02 -0.61698094924E+03  0.61860643178E+03  0.00000000000E+00 0. -1.
</event>
<event>
 7    1  0.6294601E-006  0.1785650E+03  0.7818608E-02  0.1291113E+00
          2   -1    0    0  502    0  0.00000000000E+00  0.00000000000E+00  0.63897159369E+03  0.63897159369E+03  0.00000000000E+00 0. -1.
          1   -1    0    0  501    0 -0.00000000000E+00 -0.00000000000E+00 -0.19217277199E+03  0.19217277199E+03  0.00000000000E+00 0. -1.
         25    2    1    2    0    0  0.14532428118E+03 -0.24673964504E+02  0.24737838529E+03  0.31392613945E+03  0.12500241716E+03 0.  0.
          2    1    1    2  501    0 -0.18503098264E+03 -0.66451263365E+01 -0.10213439963E+03  0.21145225899E+03  0.00000000000E+00 0. -1.
          1    1    1    2  502    0  0.39706701466E+02  0.31319090841E+02  0.30155483603E+03  0.30576596725E+03  0.00000000000E+00 0. -1.
         22    1    3    3    0    0  0.16588125839E+03 -0.12764131437E+02  0.23249767850E+03  0.28589278662E+03  0.00000000000E+00 0.  1.
         22    1    3    3    0    0 -0.20556977214E+02 -0.11909833067E+02  0.14880706794E+02  0.28033352824E+02  0.00000000000E+00 0.  1.
</event>
<event>
 7    1  0.6294601E-006  0.6720968E+02  0.7818608E-02  0.1452951E+00
          2   -1    0    0  502    0  0.00000000000E+00  0.00000000000E+00  0.12641960497E+04  0.12641960497E+04  0.00000000000E+00 0. -1.
          1   -1    0    0  501    0 -0.00000000000E+00 -0.00000000000E+00 -0.52603585177E+03  0.52603585177E+03  0.00000000000E+00 0. -1.
         25    2    1    2    0    0 -0.47205171469E+02 -0.16310234709E+02  0.11989308019E+03  0.18025975584E+03  0.12499950772E+03 0.  0.
          2    1    1    2  501    0  0.26171839842E+01 -0.35069170486E+02 -0.49418862878E+03  0.49543828797E+03  0.00000000000E+00 0. -1.
          1    1    1    2  502    0  0.44587987485E+02  0.51379405196E+02  0.11124557465E+04  0.11145338577E+04  0.00000000000E+00 0. -1.
         22    1    3    3    0    0  0.32182674976E+02  0.15322993382E+02  0.76542677649E+02  0.84435183404E+02  0.00000000000E+00 0.  1.
         22    1    3    3    0    0 -0.79387846445E+02 -0.31633228091E+02  0.43350402544E+02  0.95824572440E+02  0.00000000000E+00 0.  1.
</event>
<event>
 7    1  0.6294601E-006  0.1485151E+03  0.7818608E-02  0.1312544E+00
          2   -1    0    0  502    0  0.00000000000E+00  0.00000000000E+00  0.17546800133E+04  0.17546800133E+04  0.00000000000E+00 0. -1.
          1   -1    0    0  501    0 -0.00000000000E+00 -0.00000000000E+00 -0.12148502864E+03  0.12148502864E+03  0.00000000000E+00 0. -1.
         25    2    1    2    0    0 -0.12280301878E+03 -0.92640705334E+02  0.41292902920E+03  0.45803780665E+03  0.12500146983E+03 0.  0.
          2    1    1    2  501    0  0.14138962542E+03  0.46297063282E+02 -0.42222451306E+02  0.15465180128E+03  0.00000000000E+00 0. -1.
          1    1    1    2  502    0 -0.18586606634E+02  0.46343642052E+02  0.12624884068E+04  0.12634754340E+04  0.00000000000E+00 0. -1.
         22    1    3    3    0    0 -0.11833329149E+03 -0.86488174043E+02  0.21642227743E+03  0.26138395952E+03  0.00000000000E+00 0.  1.
         22    1    3    3    0    0 -0.44697272948E+01 -0.61525312909E+01  0.19650675176E+03  0.19665384713E+03  0.00000000000E+00 0.  1.
</event>
<event>
 7    1  0.6294601E-006  0.4500001E+02  0.7818608E-02  0.1477343E+00
          2   -1    0    0  502    0  0.00000000000E+00  0.00000000000E+00  0.14604889239E+04  0.14604889239E+04  0.00000000000E+00 0. -1.
          1   -1    0    0  501    0 -0.00000000000E+00 -0.00000000000E+00 -0.28354243595E+03  0.28354243595E+03  0.00000000000E+00 0. -1.
         25    2    1    2    0    0  0.29698846164E+02  0.66253619555E+02  0.25744787896E+03  0.29525498439E+03  0.12499812742E+03 0.  0.
          2    1    1    2  501    0  0.85623890457E+01 -0.43210442081E+02 -0.26238101127E+03  0.26605309975E+03  0.00000000000E+00 0. -1.
          1    1    1    2  502    0 -0.38261235210E+02 -0.23043177474E+02  0.11818796202E+04  0.11827232757E+04  0.00000000000E+00 0. -1.
         22    1    3    3    0    0 -0.80914221708E+01 -0.14478815217E+02 -0.56062049710E+01  0.17508190569E+02  0.00000000000E+00 0.  1.
         22    1    3    3    0    0  0.37790268335E+02  0.80732434771E+02  0.26305408393E+03  0.27774679382E+03  0.00000000000E+00 0.  1.
</event>
<event>
 7    1  0.6294601E-006  0.5812912E+02  0.7818608E-02  0.1458492E+00
          2   -1    0    0  502    0  0.00000000000E+00  0.00000000000E+00  0.13011572975E+04  0.13011572975E+04  0.00000000000E+00 0. -1.
          1   -1    0    0  501    0 -0.00000000000E+00 -0.00000000000E+00 -0.32224468284E+03  0.32224468284E+03  0.00000000000E+00 0. -1.
         25    2    1    2    0    0 -0.28432059276E+02 -0.19442888821E+02  0.99906746290E+02  0.16367482365E+03  0.12498672738E+03 0.  0.
          2    1    1    2  501    0 -0.30188020499E+02  0.24765348470E+02 -0.28830302773E+03  0.29093517296E+03  0.00000000000E+00 0. -1.
          1    1    1    2  502    0  0.58620079774E+02 -0.53224596492E+01  0.11673088961E+04  0.11687919837E+04  0.00000000000E+00 0. -1.
         22    1    3    3    0    0 -0.67742883269E+01  0.24477894853E+02 -0.21173707573E+02  0.33066360719E+02  0.00000000000E+00 0. -1.
         22    1    3    3    0    0 -0.21657770949E+02 -0.43920783674E+02  0.12108045386E+03  0.13060846293E+03  0.00000000000E+00 0. -1.
</event>
<event>
 7    1  0.6294601E-006  0.6302919E+02  0.7818608E-02  0.1451185E+00
          2   -1    0    0  502    0  0.00000000000E+00  0.00000000000E+00  0.11083087989E+04  0.11083087989E+04  0.00000000000E+00 0. -1.
          1   -1    0    0  501    0 -0.00000000000E+00 -0.00000000000E+00 -0.11553482185E+03  0.11553482185E+03  0.00000000000E+00 0. -1.
         25    2    1    2    0    0  0.87265745504E+02 -0.23005832199E+02 -0.86846946262E+00  0.15417384953E+03  0.12499697191E+03 0.  0.
          2    1    1    2  501    0 -0.49436154588E+02  0.26481245306E+02 -0.16776052088E+02  0.58537386832E+02  0.00000000000E+00 0. -1.
          1    1    1    2  502    0 -0.37829590916E+02 -0.34754131077E+01  0.10104184986E+04  0.10111323844E+04  0.00000000000E+00 0. -1.
         22    1    3    3    0    0  0.76252795812E+02  0.37331673156E+02 -0.24624367612E+02  0.88399672907E+02  0.00000000000E+00 0.  1.
         22    1    3    3    0    0  0.11012949692E+02 -0.60337505355E+02  0.23755898149E+02  0.65774176622E+02  0.00000000000E+00 0.  1.
</event>
<event>
 7    1  0.6294601E-006  0.1175118E+03  0.7818608E-02  0.1252954E+00
          2   -1    0    0  502    0  0.00000000000E+00  0.00000000000E+00  0.10387940083E+04  0.10387940083E+04  0.00000000000E+00 0. -1.
          1   -1    0    0  501    0 -0.00000000000E+00 -0.00000000000E+00 -0.28032405838E+03  0.28032405838E+03  0.00000000000E+00 0. -1.
         25    2    1    2    0    0 -0.57429444470E+02  0.28103589206E+02  0.14748629061E+03  0.20363123261E+03  0.12500208062E+03 0.  0.
          2    1    1    2  501    0  0.67076782869E+02  0.96486917035E+02 -0.23371509369E+03  0.26159465778E+03  0.00000000000E+00 0. -1.
          1    1    1    2  502    0 -0.96473383988E+01 -0.12459050624E+03  0.84469875299E+03  0.85389217626E+03  0.00000000000E+00 0. -1.
         22    1    3    3    0    0 -0.63977838863E+01 -0.38691299092E+02  0.99248185044E+02  0.10671527772E+03  0.00000000000E+00 0. -1.
         22    1    3    3    0    0 -0.51031660584E+02  0.66794888298E+02  0.48238105563E+02  0.96915954894E+02  0.00000000000E+00 0. -1.
</event>
<event>
 7    1  0.6294601E-006  0.6774716E+02  0.7818608E-02  0.1495756E+00
          2   -1    0    0  502    0  0.00000000000E+00  0.00000000000E+00  0.10741740368E+04  0.10741740368E+04  0.00000000000E+00 0. -1.
          1   -1    0    0  501    0 -0.00000000000E+00 -0.00000000000E+00 -0.21797046952E+03  0.21797046952E+03  0.00000000000E+00 0. -1.
         25    2    1    2    0    0  0.81071915235E+02  0.12599963262E+02  0.69989724184E+03  0.71569286768E+03  0.12501486788E+03 0.  0.
          2    1    1    2  501    0 -0.61178110050E+02 -0.28904301058E+02 -0.20415409702E+03  0.21507467331E+03  0.00000000000E+00 0. -1.
          1    1    1    2  502    0 -0.19893805185E+02  0.16304337795E+02  0.36046042244E+03  0.36137696532E+03  0.00000000000E+00 0. -1.
         22    1    3    3    0    0  0.27378707010E+02 -0.42750363619E+02  0.47978559681E+03  0.48246389097E+03  0.00000000000E+00 0.  1.
         22    1    3    3    0    0  0.53693208225E+02  0.55350326881E+02  0.22011164503E+03  0.23322897670E+03  0.00000000000E+00 0.  1.
</event>
<event>
 7    1  0.6294601E-006  0.6359215E+02  0.7818608E-02  0.1393830E+00
          2   -1    0    0  502    0  0.00000000000E+00  0.00000000000E+00  0.68204725424E+02  0.68204725424E+02  0.00000000000E+00 0. -1.
          1   -1    0    0  501    0 -0.00000000000E+00 -0.00000000000E+00 -0.20882899655E+04  0.20882899655E+04  0.00000000000E+00 0. -1.
         25    2    1    2    0    0  0.25653208807E+02 -0.21974470844E+02 -0.43276129715E+03  0.45171763209E+03  0.12500205732E+03 0.  0.
          2    1    1    2  501    0  0.13162774969E+02  0.65667422028E+02 -0.16306499650E+04  0.16320247478E+04  0.00000000000E+00 0. -1.
          1    1    1    2  502    0 -0.38815983776E+02 -0.43692951184E+02  0.43326022067E+02  0.72752311082E+02  0.00000000000E+00 0. -1.
         22    1    3    3    0    0  0.55542699230E+01  0.35518558832E+02 -0.33227984110E+03  0.33421895628E+03  0.00000000000E+00 0. -1.
         22    1    3    3    0    0  0.20098938884E+02 -0.57493029677E+02 -0.10048145605E+03  0.11749867580E+03  0.00000000000E+00 0. -1.
</event>
<event>
 7    1  0.1047507E-005  0.6163464E+02  0.7818608E-02  0.1401230E+00
          2   -1    0    0  502    0  0.00000000000E+00  0.00000000000E+00  0.58602952282E+03  0.58602952282E+03  0.00000000000E+00 0. -1.
          1   -1    0    0  501    0 -0.00000000000E+00 -0.00000000000E+00 -0.12902980934E+04  0.12902980934E+04  0.00000000000E+00 0. -1.
         25    2    1    2    0    0 -0.52013793473E+02 -0.67755187333E+02 -0.38047018222E+03  0.40948589386E+03  0.12499975038E+03 0.  0.
          2    1    1    2  501    0 -0.85211805537E+01  0.56215070894E+02 -0.89275185890E+03  0.89456057720E+03  0.00000000000E+00 0. -1.
          1    1    1    2  502    0  0.60534974027E+02  0.11540116439E+02  0.56895347058E+03  0.57228114511E+03  0.00000000000E+00 0. -1.
         22    1    3    3    0    0 -0.68322099081E+00 -0.44912102813E+02 -0.28803108628E+02  0.53358999584E+02  0.00000000000E+00 0.  1.
         22    1    3    3    0    0 -0.51330572482E+02 -0.22843084520E+02 -0.35166707359E+03  0.35612689428E+03  0.00000000000E+00 0.  1.
</event>
<event>
 7    1  0.6294601E-006  0.6931691E+02  0.7818608E-02  0.1396536E+00
          2   -1    0    0  502    0  0.00000000000E+00  0.00000000000E+00  0.38335765940E+02  0.38335765940E+02  0.00000000000E+00 0. -1.
          1   -1    0    0  501    0 -0.00000000000E+00 -0.00000000000E+00 -0.11834542202E+04  0.11834542202E+04  0.00000000000E+00 0. -1.
         25    2    1    2    0    0 -0.82690888692E+02  0.73149348944E+02 -0.25710247324E+03  0.30645682179E+03  0.12500196619E+03 0.  0.
          2    1    1    2  501    0  0.44843114010E+02 -0.27249246182E+02 -0.83189364831E+03  0.83354692033E+03  0.00000000000E+00 0. -1.
          1    1    1    2  502    0  0.37847774682E+02 -0.45900102762E+02 -0.56122332711E+02  0.81786244020E+02  0.00000000000E+00 0. -1.
         22    1    3    3    0    0 -0.33401791359E+01  0.85166194910E+02 -0.11335564112E+03  0.14182361907E+03  0.00000000000E+00 0.  1.
         22    1    3    3    0    0 -0.79350709556E+02 -0.12016845966E+02 -0.14374683211E+03  0.16463320272E+03  0.00000000000E+00 0.  1.
</event>
<event>
 7    1  0.6294601E-006  0.6871521E+02  0.7818608E-02  0.1403244E+00
          2   -1    0    0  502    0  0.00000000000E+00  0.00000000000E+00  0.84714957902E+03  0.84714957902E+03  0.00000000000E+00 0. -1.
          1   -1    0    0  501    0 -0.00000000000E+00 -0.00000000000E+00 -0.69255772594E+02  0.69255772594E+02  0.00000000000E+00 0. -1.
         25    2    1    2    0    0 -0.10455396888E+03  0.12407613195E+01  0.21297268937E+03  0.26816970766E+03  0.12499821516E+03 0.  0.
          2    1    1    2  501    0  0.60446790210E+02 -0.25199436227E+02 -0.14144038759E+02  0.66999103466E+02  0.00000000000E+00 0. -1.
          1    1    1    2  502    0  0.44107178671E+02  0.23958674908E+02  0.57906515581E+03  0.58123654048E+03  0.00000000000E+00 0. -1.
         22    1    3    3    0    0 -0.30653266134E+02  0.54477343707E+02  0.13302363997E+03  0.14697854433E+03  0.00000000000E+00 0.  1.
         22    1    3    3    0    0 -0.73900702747E+02 -0.53236582387E+02  0.79949049403E+02  0.12119116334E+03  0.00000000000E+00 0.  1.
</event>
<event>
 7    1  0.6294601E-006  0.3431374E+02  0.7818608E-02  0.1630957E+00
          2   -1    0    0  502    0  0.00000000000E+00  0.00000000000E+00  0.43853197804E+03  0.43853197804E+03  0.00000000000E+00 0. -1.
          1   -1    0    0  501    0 -0.00000000000E+00 -0.00000000000E+00 -0.51679955277E+03  0.51679955277E+03  0.00000000000E+00 0. -1.
         25    2    1    2    0    0 -0.42402173644E+02  0.14347152838E+02  0.12594777762E+03  0.18300550395E+03  0.12499754664E+03 0.  0.
          2    1    1    2  501    0  0.23563378569E+02 -0.24915645661E+02 -0.48725651874E+03  0.48846180737E+03  0.00000000000E+00 0. -1.
          1    1    1    2  502    0  0.18838795076E+02  0.10568492823E+02  0.28304116638E+03  0.28386421949E+03  0.00000000000E+00 0. -1.
         22    1    3    3    0    0  0.35247997433E+01 -0.12083123730E+02 -0.22280816103E+02  0.25590249286E+02  0.00000000000E+00 0.  1.
         22    1    3    3    0    0 -0.45926973388E+02  0.26430276568E+02  0.14822859373E+03  0.15741525467E+03  0.00000000000E+00 0.  1.
</event>
<event>
 7    1  0.6294601E-006  0.3132542E+02  0.7818608E-02  0.1643197E+00
          2   -1    0    0  502    0  0.00000000000E+00  0.00000000000E+00  0.20618570506E+04  0.20618570506E+04  0.00000000000E+00 0. -1.
          1   -1    0    0  501    0 -0.00000000000E+00 -0.00000000000E+00 -0.99728797956E+02  0.99728797956E+02  0.00000000000E+00 0. -1.
         25    2    1    2    0    0 -0.21752138841E+02 -0.34078852644E+02  0.15347748567E+03  0.20202259336E+03  0.12499306332E+03 0.  0.
          2    1    1    2  501    0 -0.67024791985E+01  0.21013310818E+02 -0.73711458795E+02  0.76940636966E+02  0.00000000000E+00 0. -1.
          1    1    1    2  502    0  0.28454618040E+02  0.13065541826E+02  0.18823622257E+04  0.18826226182E+04  0.00000000000E+00 0. -1.
         22    1    3    3    0    0  0.12611978069E+02  0.22107346697E+02 -0.87671240553E+01  0.26919495408E+02  0.00000000000E+00 0.  1.
         22    1    3    3    0    0 -0.34364116910E+02 -0.56186199341E+02  0.16224460973E+03  0.17510309795E+03  0.00000000000E+00 0.  1.
</event>
<event>
 7    1  0.6294601E-006  0.9503791E+02  0.7818608E-02  0.1296742E+00
          2   -1    0    0  502    0  0.00000000000E+00  0.00000000000E+00  0.71818780995E+03  0.71818780995E+03  0.00000000000E+00 0. -1.
          1   -1    0    0  501    0 -0.00000000000E+00 -0.00000000000E+00 -0.91090369211E+03  0.91090369211E+03  0.00000000000E+00 0. -1.
         25    2    1    2    0    0  0.18493451287E+02  0.97241852782E+01 -0.44706059772E+03  0.46467611455E+03  0.12499658347E+03 0.  0.
          2    1    1    2  501    0  0.53825866650E+02 -0.72340404130E+02 -0.44729082585E+03  0.45628876918E+03  0.00000000000E+00 0. -1.
          1    1    1    2  502    0 -0.72319317937E+02  0.62616218852E+02  0.70163554142E+03  0.70812661833E+03  0.00000000000E+00 0. -1.
         22    1    3    3    0    0  0.15802001010E+02  0.64599669450E+02 -0.30919425347E+03  0.31626556390E+03  0.00000000000E+00 0.  1.
         22    1    3    3    0    0  0.26914502770E+01 -0.54875484172E+02 -0.13786634424E+03  0.14841055064E+03  0.00000000000E+00 0.  1.
</event>
<event>
 7    1  0.6294601E-006  0.4998869E+02  0.7818608E-02  0.1447392E+00
          2   -1    0    0  502    0  0.00000000000E+00  0.00000000000E+00  0.21641388808E+04  0.21641388808E+04  0.00000000000E+00 0. -1.
          1   -1    0    0  501    0 -0.00000000000E+00 -0.00000000000E+00 -0.24761983559E+02  0.24761983559E+02  0.00000000000E+00 0. -1.
         25    2    1    2    0    0 -0.33206103860E+01  0.50806350169E+01  0.24876559701E+03  0.27846970479E+03  0.12499685964E+03 0.  0.
          2    1    1    2  501    0 -0.41983244025E+02 -0.27134410590E+02  0.55755027838E+02  0.74883190010E+02  0.00000000000E+00 0. -1.
          1    1    1    2  502    0  0.45303854411E+02  0.22053775573E+02  0.18348562724E+04  0.18355479696E+04  0.00000000000E+00 0. -1.
         22    1    3    3    0    0  0.45054825593E+01 -0.49190220099E+02  0.42892668175E+02  0.65419860208E+02  0.00000000000E+00 0.  1.
         22    1    3    3    0    0 -0.78260929453E+01  0.54270855116E+02  0.20587292884E+03  0.21304984458E+03  0.00000000000E+00 0.  1.
</event>
<event>
 7    1  0.6294601E-006  0.6424811E+02  0.7818608E-02  0.1475691E+00
          2   -1    0    0  502    0  0.00000000000E+00  0.00000000000E+00  0.52564122429E+03  0.52564122429E+03  0.00000000000E+00 0. -1.
          1   -1    0    0  501    0 -0.00000000000E+00 -0.00000000000E+00 -0.15707777839E+03  0.15707777839E+03  0.00000000000E+00 0. -1.
         25    2    1    2    0    0  0.40225949788E+02  0.33594297633E+02  0.46862626374E+02  0.14341278848E+03  0.12499767310E+03 0.  0.
          2    1    1    2  501    0  0.23596258248E+02 -0.20438619977E+02 -0.10403218092E+03  0.10861498634E+03  0.00000000000E+00 0. -1.
          1    1    1    2  502    0 -0.63822208036E+02 -0.13155677656E+02  0.42573300045E+03  0.43069122787E+03  0.00000000000E+00 0. -1.
         22    1    3    3    0    0  0.75499293049E+02  0.64522932116E+01  0.60389719816E+02  0.96895271288E+02  0.00000000000E+00 0. -1.
         22    1    3    3    0    0 -0.35273343260E+02  0.27142004422E+02 -0.13527093442E+02  0.46517517193E+02  0.00000000000E+00 0. -1.
</event>
<event>
 7    1  0.6294601E-006  0.1615249E+03  0.7818608E-02  0.1218145E+00
          2   -1    0    0  502    0  0.00000000000E+00  0.00000000000E+00  0.22069768533E+03  0.22069768533E+03  0.00000000000E+00 0. -1.
          1   -1    0    0  501    0 -0.00000000000E+00 -0.00000000000E+00 -0.42558009666E+03  0.42558009666E+03  0.00000000000E+00 0. -1.
         25    2    1    2    0    0 -0.94373670120E+02 -0.25256894058E+02 -0.77383934059E+02  0.17651634996E+03  0.12500179297E+03 0.  0.
          2    1    1    2  501    0 -0.55116725570E+02 -0.10129460333E+03 -0.22360422036E+03  0.25158954165E+03  0.00000000000E+00 0. -1.
          1    1    1    2  502    0  0.14949039569E+03  0.12655149739E+03  0.96105743094E+02  0.21817189037E+03  0.00000000000E+00 0. -1.
         22    1    3    3    0    0  0.10237072434E+02  0.23510221637E+02 -0.52525336892E+02  0.58450313849E+02  0.00000000000E+00 0. -1.
         22    1    3    3    0    0 -0.10461074255E+03 -0.48767115695E+02 -0.24858597168E+02  0.11806603611E+03  0.00000000000E+00 0. -1.
</event>
<event>
 7    1  0.6294601E-006  0.9213958E+02  0.7818608E-02  0.1303384E+00
          2   -1    0    0  502    0  0.00000000000E+00  0.00000000000E+00  0.10155249578E+04  0.10155249578E+04  0.00000000000E+00 0. -1.
          1   -1    0    0  501    0 -0.00000000000E+00 -0.00000000000E+00 -0.24525498784E+03  0.24525498784E+03  0.00000000000E+00 0. -1.
         25    2    1    2    0    0  0.84123931333E+02  0.13183801746E+03  0.17646254599E+03  0.26686789635E+03  0.12498538034E+03 0.  0.
          2    1    1    2  501    0 -0.76325181787E+02 -0.42749314982E+02 -0.18781535210E+03  0.20718987376E+03  0.00000000000E+00 0. -1.
          1    1    1    2  502    0 -0.77987495457E+01 -0.89088702475E+02  0.78162277602E+03  0.78672217548E+03  0.00000000000E+00 0. -1.
         22    1    3    3    0    0 -0.17451183019E+02 -0.13395080766E+02  0.28435019770E+02  0.35951666537E+02  0.00000000000E+00 0. -1.
         22    1    3    3    0    0  0.10157511435E+03  0.14523309822E+03  0.14802752622E+03  0.23091622982E+03  0.00000000000E+00 0. -1.
</event>
<event>
 7    1  0.6294601E-006  0.1256925E+03  0.7818608E-02  0.1325579E+00
          2   -1    0    0  502    0  0.00000000000E+00  0.00000000000E+00  0.63518806662E+03  0.63518806662E+03  0.00000000000E+00 0. -1.
          1   -1    0    0  501    0 -0.00000000000E+00 -0.00000000000E+00 -0.91665734132E+03  0.91665734132E+03  0.00000000000E+00 0. -1.
         25    2    1    2    0    0 -0.14835030032E+03 -0.34834054546E+02  0.12101544183E+03  0.23128173540E+03  0.12500112403E+03 0.  0.
          2    1    1    2  501    0  0.12462741404E+03 -0.12004644855E+02 -0.85545086764E+03  0.86456479848E+03  0.00000000000E+00 0. -1.
          1    1    1    2  502    0  0.23722886280E+02  0.46838699400E+02  0.45296615111E+03  0.45599887406E+03  0.00000000000E+00 0. -1.
         22    1    3    3    0    0 -0.16041709458E+03 -0.54376769822E+02  0.12125853922E+03  0.20831253122E+03  0.00000000000E+00 0.  1.
         22    1    3    3    0    0  0.12066794264E+02  0.19542715276E+02 -0.24309739151E+00  0.22969204177E+02  0.00000000000E+00 0.  1.
</event>
<event>
 7    1  0.6294601E-006  0.8821920E+02  0.7818608E-02  0.1362057E+00
          2   -1    0    0  502    0  0.00000000000E+00  0.00000000000E+00  0.18275880290E+04  0.18275880290E+04  0.00000000000E+00 0. -1.
          1   -1    0    0  501    0 -0.00000000000E+00 -0.00000000000E+00 -0.13830753883E+03  0.13830753883E+03  0.00000000000E+00 0. -1.
         25    2    1    2    0    0 -0.43125264473E+02  0.75077014596E+02  0.30255263288E+03  0.33861364234E+03  0.12499902622E+03 0.  0.
          2    1    1    2  501    0 -0.98135832667E+01 -0.88588556012E+02 -0.10319491902E+03  0.13635772799E+03  0.00000000000E+00 0. -1.
          1    1    1    2  502    0  0.52938847739E+02  0.13511541416E+02  0.14899227763E+04  0.14909241975E+04  0.00000000000E+00 0. -1.
         22    1    3    3    0    0 -0.11746539801E+02 -0.71873379650E+01 -0.79282923270E+01  0.15890149261E+02  0.00000000000E+00 0. -1.
         22    1    3    3    0    0 -0.31378724672E+02  0.82264352561E+02  0.31048092521E+03  0.32272349307E+03  0.00000000000E+00 0. -1.
</event>
<event>
 7    1  0.6294601E-006  0.5416856E+02  0.7818608E-02  0.1443967E+00
          2   -1    0    0  502    0  0.00000000000E+00  0.00000000000E+00  0.40709926093E+03  0.40709926093E+03  0.00000000000E+00 0. -1.
          1   -1    0    0  501    0 -0.00000000000E+00 -0.00000000000E+00 -0.36742070243E+03  0.36742070243E+03  0.00000000000E+00 0. -1.
         25    2    1    2    0    0 -0.74638000674E+01  0.69061988839E+02  0.81604710018E+02  0.16465140464E+03  0.12500195894E+03 0.  0.
          2    1    1    2  501    0  0.39284030680E+02 -0.25114219272E+02 -0.32160904626E+03  0.32497128752E+03  0.00000000000E+00 0. -1.
          1    1    1    2  502    0 -0.31820230613E+02 -0.43947769567E+02  0.27968289474E+03  0.28489727120E+03  0.00000000000E+00 0. -1.
         22    1    3    3    0    0  0.40380743675E+02  0.56392773463E+02  0.90851899540E+02  0.11430143047E+03  0.00000000000E+00 0. -1.
         22    1    3    3    0    0 -0.47844543743E+02  0.12669215376E+02 -0.92471895211E+01  0.50349974163E+02  0.00000000000E+00 0. -1.
</event>
<event>
 7    1  0.6294601E-006  0.2224965E+03  0.7818608E-02  0.1222018E+00
          2   -1    0    0  502    0  0.00000000000E+00  0.00000000000E+00  0.49309113864E+03  0.49309113864E+03  0.00000000000E+00 0. -1.
          1   -1    0    0  501    0 -0.00000000000E+00 -0.00000000000E+00 -0.79514055794E+03  0.79514055794E+03  0.00000000000E+00 0. -1.
         25    2    1    2    0    0 -0.11741104634E+03  0.94578108514E+02 -0.22186903821E+03  0.29594010420E+03  0.12499721095E+03 0.  0.
          2    1    1    2  501    0 -0.55083882027E+02  0.58541350200E+02 -0.50368072483E+03  0.51005450328E+03  0.00000000000E+00 0. -1.
          1    1    1    2  502    0  0.17249492837E+03 -0.15311945871E+03  0.42350034375E+03  0.48223708910E+03  0.00000000000E+00 0. -1.
         22    1    3    3    0    0 -0.24975511984E+02  0.83791985120E+02 -0.50601877243E+02  0.10102189342E+03  0.00000000000E+00 0.  1.
         22    1    3    3    0    0 -0.92435534359E+02  0.10786123394E+02 -0.17126716097E+03  0.19491821078E+03  0.00000000000E+00 0.  1.
</event>
<event>
 7    1  0.6294601E-006  0.6757436E+02  0.7818608E-02  0.1417407E+00
          2   -1    0    0  502    0  0.00000000000E+00  0.00000000000E+00  0.47635057323E+03  0.47635057323E+03  0.00000000000E+00 0. -1.
          1   -1    0    0  501    0 -0.00000000000E+00 -0.00000000000E+00 -0.17145367119E+04  0.17145367119E+04  0.00000000000E+00 0. -1.
         25    2    1    2    0    0 -0.48122978135E+02 -0.98152350938E+02 -0.18866197680E+03  0.25133161861E+03  0.12499814399E+03 0.  0.
          2    1    1    2  501    0  0.40193293227E+02  0.53141935715E+02 -0.14926212843E+04  0.14941077152E+04  0.00000000000E+00 0. -1.
          1    1    1    2  502    0  0.79296849075E+01  0.45010415223E+02  0.44309712248E+03  0.44544795131E+03  0.00000000000E+00 0. -1.
         22    1    3    3    0    0 -0.47215918692E+02  0.17143732199E+02 -0.66656080291E+02  0.83464265236E+02  0.00000000000E+00 0.  1.
         22    1    3    3    0    0 -0.90705944334E+00 -0.11529608314E+03 -0.12200589651E+03  0.16786735337E+03  0.00000000000E+00 0.  1.
</event>
<event>
 7    1  0.6294601E-006  0.1103213E+03  0.7818608E-02  0.1272774E+00
          2   -1    0    0  502    0  0.00000000000E+00  0.00000000000E+00  0.14007974785E+04  0.14007974785E+04  0.00000000000E+00 0. -1.
          1   -1    0    0  501    0 -0.00000000000E+00 -0.00000000000E+00 -0.22424796718E+04  0.22424796718E+04  0.00000000000E+00 0. -1.
         25    2    1    2    0    0 -0.72992427674E+02  0.19003157908E+03  0.19418919604E+03  0.30785518177E+03  0.12500189415E+03 0.  0.
          2    1    1    2  501    0  0.31473709855E+02 -0.92184013797E+02 -0.21821012588E+04  0.21842743396E+04  0.00000000000E+00 0. -1.
          1    1    1    2  502    0  0.41518717819E+02 -0.97847565280E+02  0.11462298695E+04  0.11511476290E+04  0.00000000000E+00 0. -1.
         22    1    3    3    0    0  0.35015507417E+02  0.38156847279E+02  0.52504828881E+02  0.73748137670E+02  0.00000000000E+00 0.  1.
         22    1    3    3    0    0 -0.10800793509E+03  0.15187473180E+03  0.14168436716E+03  0.23410704410E+03  0.00000000000E+00 0.  1.
</event>
<event>
 7    1  0.6294601E-006  0.7369596E+02  0.7818608E-02  0.1485225E+00
          2   -1    0    0  502    0  0.00000000000E+00  0.00000000000E+00  0.15717235054E+04  0.15717235054E+04  0.00000000000E+00 0. -1.
          1   -1    0    0  501    0 -0.00000000000E+00 -0.00000000000E+00 -0.64857480310E+02  0.64857480310E+02  0.00000000000E+00 0. -1.
         25    2    1    2    0    0  0.48944109890E+02 -0.55224933622E+02  0.86297702189E+02  0.16887147601E+03  0.12499985128E+03 0.  0.
          2    1    1    2  501    0 -0.65769188782E+02  0.36137992378E+02  0.36574717893E+02  0.83482038039E+02  0.00000000000E+00 0. -1.
          1    1    1    2  502    0  0.16825078892E+02  0.19086941244E+02  0.13839936050E+04  0.13842274716E+04  0.00000000000E+00 0. -1.
         22    1    3    3    0    0 -0.25437467829E+02  0.82615639183E+01  0.62856236005E+02  0.68309769525E+02  0.00000000000E+00 0. -1.
         22    1    3    3    0    0  0.74381577718E+02 -0.63486497540E+02  0.23441466184E+02  0.10056170648E+03  0.00000000000E+00 0. -1.
</event>
<event>
 7    1  0.6294601E-006  0.1603948E+03  0.7818608E-02  0.1349057E+00
          2   -1    0    0  502    0  0.00000000000E+00  0.00000000000E+00  0.16220098391E+03  0.16220098391E+03  0.00000000000E+00 0. -1.
          1   -1    0    0  501    0 -0.00000000000E+00 -0.00000000000E+00 -0.33593982340E+04  0.33593982340E+04  0.00000000000E+00 0. -1.
         25    2    1    2    0    0 -0.17358604153E+02 -0.12803846637E+03 -0.12809906862E+04  0.12935457201E+04  0.12501288753E+03 0.  0.
          2    1    1    2  501    0 -0.14660940992E+02 -0.30170230652E+02 -0.20301786371E+04  0.20304557332E+04  0.00000000000E+00 0. -1.
          1    1    1    2  502    0  0.32019545146E+02  0.15820869702E+03  0.11397207319E+03  0.19759776454E+03  0.00000000000E+00 0. -1.
         22    1    3    3    0    0  0.77846380847E+01  0.23607293593E+02 -0.13222110383E+03  0.13453744905E+03  0.00000000000E+00 0. -1.
         22    1    3    3    0    0 -0.25143242238E+02 -0.15164575996E+03 -0.11487695823E+04  0.11590082711E+04  0.00000000000E+00 0. -1.
</event>
<event>
 7    1  0.7090485E-006  0.8463050E+02  0.7818608E-02  0.1449593E+00
          2   -1    0    0  502    0  0.00000000000E+00  0.00000000000E+00  0.54059153141E+03  0.54059153141E+03  0.00000000000E+00 0. -1.
          1   -1    0    0  501    0 -0.00000000000E+00 -0.00000000000E+00 -0.20004092547E+04  0.20004092547E+04  0.00000000000E+00 0. -1.
         25    2    1    2    0    0  0.80584998919E+02  0.35912659450E+02 -0.51263450175E+03  0.53497905106E+03  0.12499916611E+03 0.  0.
          2    1    1    2  501    0  0.37173157447E+01 -0.28383616839E+02 -0.14730797846E+04  0.14733578994E+04  0.00000000000E+00 0. -1.
          1    1    1    2  502    0 -0.84302314664E+02 -0.75290426116E+01  0.52589656304E+03  0.53266383560E+03  0.00000000000E+00 0. -1.
         22    1    3    3    0    0 -0.30050743443E+00  0.66512192029E+02 -0.22065904563E+03  0.23046556448E+03  0.00000000000E+00 0.  1.
         22    1    3    3    0    0  0.80885506354E+02 -0.30599532579E+02 -0.29197545612E+03  0.30451348658E+03  0.00000000000E+00 0.  1.
</event>
<event>
 7    1  0.6294601E-006  0.7338199E+02  0.7818608E-02  0.1352211E+00
          2   -1    0    0  502    0  0.00000000000E+00  0.00000000000E+00  0.30804520691E+03  0.30804520691E+03  0.00000000000E+00 0. -1.
          1   -1    0    0  501    0 -0.00000000000E+00 -0.00000000000E+00 -0.12424891404E+04  0.12424891404E+04  0.00000000000E+00 0. -1.
         25    2    1    2    0    0  0.11633771196E+02 -0.20112161045E+01 -0.32009017828E+03  0.34383475648E+03  0.12500091162E+03 0.  0.
          2    1    1    2  501    0  0.39939134488E+00 -0.71372720334E+02 -0.90443058344E+03  0.90724247309E+03  0.00000000000E+00 0. -1.
          1    1    1    2  502    0 -0.12033162541E+02  0.73383936439E+02  0.29007682820E+03  0.29945711778E+03  0.00000000000E+00 0. -1.
         22    1    3    3    0    0 -0.22963384547E+02 -0.30563582633E+02 -0.28316594050E+03  0.28573484119E+03  0.00000000000E+00 0. -1.
         22    1    3    3    0    0  0.34597155743E+02  0.28552366528E+02 -0.36924237781E+02  0.58099915280E+02  0.00000000000E+00 0. -1.
</event>
<event>
 7    1  0.6294601E-006  0.8772019E+02  0.7818608E-02  0.1361839E+00
          2   -1    0    0  502    0  0.00000000000E+00  0.00000000000E+00  0.39946362328E+03  0.39946362328E+03  0.00000000000E+00 0. -1.
          1   -1    0    0  501    0 -0.00000000000E+00 -0.00000000000E+00 -0.10959955759E+04  0.10959955759E+04  0.00000000000E+00 0. -1.
         25    2    1    2    0    0  0.83085042822E+02  0.18357271355E+02  0.99770709545E+01  0.15154286385E+03  0.12500233553E+03 0.  0.
          2    1    1    2  501    0 -0.16140487259E+01 -0.55023514050E+02 -0.10181933175E+04  0.10196802558E+04  0.00000000000E+00 0. -1.
          1    1    1    2  502    0 -0.81470994096E+02  0.36666242695E+02  0.31168429390E+03  0.32423607957E+03  0.00000000000E+00 0. -1.
         22    1    3    3    0    0  0.48753104218E+02  0.68116831521E+02  0.28227003323E+02  0.88394183202E+02  0.00000000000E+00 0. -1.
         22    1    3    3    0    0  0.34331938604E+02 -0.49759560166E+02 -0.18249932368E+02  0.63148680649E+02  0.00000000000E+00 0. -1.
</event>
<event>
 7    1  0.6294601E-006  0.1009094E+03  0.7818608E-02  0.1325135E+00
          2   -1    0    0  502    0  0.00000000000E+00  0.00000000000E+00  0.16249264691E+03  0.16249264691E+03  0.00000000000E+00 0. -1.
          1   -1    0    0  501    0 -0.00000000000E+00 -0.00000000000E+00 -0.37429003290E+03  0.37429003290E+03  0.00000000000E+00 0. -1.
         25    2    1    2    0    0  0.41368538962E+02  0.14173447061E+03 -0.20851962458E+03  0.28443980289E+03  0.12500220583E+03 0.  0.
          2    1    1    2  501    0 -0.14524847045E+02 -0.81816502780E+02 -0.10337614015E+03  0.13263309414E+03  0.00000000000E+00 0. -1.
          1    1    1    2  502    0 -0.26843691917E+02 -0.59917967828E+02  0.10009837874E+03  0.11970978277E+03  0.00000000000E+00 0. -1.
         22    1    3    3    0    0 -0.37251872857E+02  0.90060638254E+02 -0.12601809723E+03  0.15930844743E+03  0.00000000000E+00 0. -1.
         22    1    3    3    0    0  0.78620411820E+02  0.51673832355E+02 -0.82501527352E+02  0.12513135546E+03  0.00000000000E+00 0. -1.
</event>
<event>
 7    1  0.6294601E-006  0.6073249E+02  0.7818608E-02  0.1395741E+00
          2   -1    0    0  502    0  0.00000000000E+00  0.00000000000E+00  0.19263635966E+03  0.19263635966E+03  0.00000000000E+00 0. -1.
          1   -1    0    0  501    0 -0.00000000000E+00 -0.00000000000E+00 -0.36954734356E+03  0.36954734356E+03  0.00000000000E+00 0. -1.
         25    2    1    2    0    0 -0.56622613600E+02 -0.37891478048E+01 -0.57021282034E+02  0.14863789504E+03  0.12498527603E+03 0.  0.
          2    1    1    2  501    0  0.34261148071E+02 -0.52676773813E+02 -0.25647818548E+03  0.26406387181E+03  0.00000000000E+00 0. -1.
          1    1    1    2  502    0  0.22361465529E+02  0.56465921617E+02  0.13658848361E+03  0.14948193637E+03  0.00000000000E+00 0. -1.
         22    1    3    3    0    0  0.20903128618E+02  0.39120754474E+02 -0.37080951975E+02  0.57813244296E+02  0.00000000000E+00 0. -1.
         22    1    3    3    0    0 -0.77525742218E+02 -0.42909902279E+02 -0.19940330059E+02  0.90824650744E+02  0.00000000000E+00 0. -1.
</event>
<event>
 7    1  0.6294601E-006  0.1295999E+03  0.7818608E-02  0.1333128E+00
          2   -1    0    0  502    0  0.00000000000E+00  0.00000000000E+00  0.14279743439E+04  0.14279743439E+04  0.00000000000E+00 0. -1.
          1   -1    0    0  501    0 -0.00000000000E+00 -0.00000000000E+00 -0.10984216869E+04  0.10984216869E+04  0.00000000000E+00 0. -1.
         25    2    1    2    0    0 -0.16958508759E+03 -0.29408145611E+02  0.55669224259E+02  0.21988189615E+03  0.12500017905E+03 0.  0.
          2    1    1    2  501    0  0.41745505145E+02  0.22966622271E+02 -0.10125790018E+04  0.10136993577E+04  0.00000000000E+00 0. -1.
          1    1    1    2  502    0  0.12783958244E+03  0.64415233395E+01  0.12864624345E+04  0.12928147770E+04  0.00000000000E+00 0. -1.
         22    1    3    3    0    0 -0.58905403001E+02 -0.68331939520E+02  0.46386900911E+00  0.90218155799E+02  0.00000000000E+00 0.  1.
         22    1    3    3    0    0 -0.11067968459E+03  0.38923793909E+02  0.55205355250E+02  0.12966374035E+03  0.00000000000E+00 0.  1.
</event>
<event>
 7    1  0.6294601E-006  0.1200324E+03  0.7818608E-02  0.1282062E+00
          2   -1    0    0  502    0  0.00000000000E+00  0.00000000000E+00  0.21482897222E+03  0.21482897222E+03  0.00000000000E+00 0. -1.
          1   -1    0    0  501    0 -0.00000000000E+00 -0.00000000000E+00 -0.60777433256E+03  0.60777433256E+03  0.00000000000E+00 0. -1.
         25    2    1    2    0    0 -0.82386892726E+02 -0.90177038599E+02 -0.27560309447E+03  0.32634473837E+03  0.12499729675E+03 0.  0.
          2    1    1    2  501    0  0.75721394528E+02 -0.31273108905E+02 -0.28080234026E+03  0.29250930109E+03  0.00000000000E+00 0. -1.
          1    1    1    2  502    0  0.66654981984E+01  0.12145014750E+03  0.16346007440E+03  0.20374926532E+03  0.00000000000E+00 0. -1.
         22    1    3    3    0    0  0.29814860078E+02  0.76131784059E-01 -0.61173904621E+02  0.68052761032E+02  0.00000000000E+00 0.  1.
         22    1    3    3    0    0 -0.11220175280E+03 -0.90253170383E+02 -0.21442918985E+03  0.25829197734E+03  0.00000000000E+00 0.  1.
</event>
<event>
 7    1  0.6294601E-006  0.4348498E+02  0.7818608E-02  0.1529513E+00
          2   -1    0    0  502    0  0.00000000000E+00  0.00000000000E+00  0.21329940556E+03  0.21329940556E+03  0.00000000000E+00 0. -1.
          1   -1    0    0  501    0 -0.00000000000E+00 -0.00000000000E+00 -0.29492087635E+03  0.29492087635E+03  0.00000000000E+00 0. -1.
         25    2    1    2    0    0 -0.61583698467E+02  0.22829465128E+02  0.24395267111E+02  0.14329375182E+03  0.12499693540E+03 0.  0.
          2    1    1    2  501    0  0.30582789345E+02 -0.30360413861E+02 -0.23148697980E+03  0.23546397506E+03  0.00000000000E+00 0. -1.
          1    1    1    2  502    0  0.31000909123E+02  0.75309487333E+01  0.12547024189E+03  0.12946255503E+03  0.00000000000E+00 0. -1.
         22    1    3    3    0    0  0.16129833473E+02 -0.76566486320E+01  0.52308114836E+02  0.55271463468E+02  0.00000000000E+00 0.  1.
         22    1    3    3    0    0 -0.77713531940E+02  0.30486113760E+02 -0.27912847725E+02  0.88022288353E+02  0.00000000000E+00 0.  1.
</event>
<event>
 7    1  0.6294601E-006  0.1902058E+03  0.7818608E-02  0.1232145E+00
          2   -1    0    0  502    0  0.00000000000E+00  0.00000000000E+00  0.58420677113E+03  0.58420677113E+03  0.00000000000E+00 0. -1.
          1   -1    0    0  501    0 -0.00000000000E+00 -0.00000000000E+00 -0.20994638095E+04  0.20994638095E+04  0.00000000000E+00 0. -1.
         25    2    1    2    0    0 -0.19408363025E+03 -0.13734234027E+03 -0.79147229496E+03  0.83581427522E+03  0.12500293998E+03 0.  0.
          2    1    1    2  501    0  0.10953552574E+03  0.14150771600E+03 -0.12763556064E+04  0.12888390509E+04  0.00000000000E+00 0. -1.
          1    1    1    2  502    0  0.84548104506E+02 -0.41653757293E+01  0.55257086295E+03  0.55901725457E+03  0.00000000000E+00 0. -1.
         22    1    3    3    0    0 -0.73208800519E+02 -0.82749561584E+02 -0.18908013648E+03  0.21899387304E+03  0.00000000000E+00 0. -1.
         22    1    3    3    0    0 -0.12087482973E+03 -0.54592778683E+02 -0.60239215848E+03  0.61682040218E+03  0.00000000000E+00 0. -1.
</event>
<event>
 7    1  0.6294601E-006  0.8618404E+02  0.7818608E-02  0.1406823E+00
          2   -1    0    0  502    0  0.00000000000E+00  0.00000000000E+00  0.39342592979E+03  0.39342592979E+03  0.00000000000E+00 0. -1.
          1   -1    0    0  501    0 -0.00000000000E+00 -0.00000000000E+00 -0.52767470741E+03  0.52767470741E+03  0.00000000000E+00 0. -1.
         25    2    1    2    0    0 -0.87442949226E+02  0.85233178687E+02  0.10983319852E+03  0.20639651819E+03  0.12500090842E+03 0.  0.
          2    1    1    2  501    0  0.53225680156E+02 -0.66708176180E+02 -0.47394705666E+03  0.48156906702E+03  0.00000000000E+00 0. -1.
          1    1    1    2  502    0  0.34217269070E+02 -0.18525002507E+02  0.22986508052E+03  0.23313505199E+03  0.00000000000E+00 0. -1.
         22    1    3    3    0    0 -0.45838967532E+02  0.11483827311E+03  0.75845433709E+02  0.14505712575E+03  0.00000000000E+00 0. -1.
         22    1    3    3    0    0 -0.41603981694E+02 -0.29605094424E+02  0.33987764807E+02  0.61339392443E+02  0.00000000000E+00 0. -1.
</event>
<event>
 7    1  0.6294601E-006  0.1587712E+03  0.7818608E-02  0.1411324E+00
          2   -1    0    0  502    0  0.00000000000E+00  0.00000000000E+00  0.10565620660E+04  0.10565620660E+04  0.00000000000E+00 0. -1.
          1   -1    0    0  501    0 -0.00000000000E+00 -0.00000000000E+00 -0.46399156661E+03  0.46399156661E+03  0.00000000000E+00 0. -1.
         25    2    1    2    0    0 -0.62327423899E+02 -0.13231637272E+03 -0.15779724583E+03  0.24883226446E+03  0.12500077915E+03 0.  0.
          2    1    1    2  501    0  0.75396270207E+02  0.14796920134E+03 -0.23411063481E+03  0.28703183001E+03  0.00000000000E+00 0. -1.
          1    1    1    2  502    0 -0.13068846308E+02 -0.15652828621E+02  0.98447838008E+03  0.98468953819E+03  0.00000000000E+00 0. -1.
         22    1    3    3    0    0 -0.46036241104E+02 -0.13181291833E+03 -0.63931200096E+02  0.15356164651E+03  0.00000000000E+00 0. -1.
         22    1    3    3    0    0 -0.16291182796E+02 -0.50345438887E+00 -0.93866045732E+02  0.95270617950E+02  0.00000000000E+00 0. -1.
</event>
<event>
 7    1  0.6294601E-006  0.8860672E+02  0.7818608E-02  0.1437294E+00
          2   -1    0    0  502    0  0.00000000000E+00  0.00000000000E+00  0.38459525321E+03  0.38459525321E+03  0.00000000000E+00 0. -1.
          1   -1    0    0  501    0 -0.00000000000E+00 -0.00000000000E+00 -0.12912083791E+03  0.12912083791E+03  0.00000000000E+00 0. -1.
         25    2    1    2    0    0 -0.64598352559E+02  0.51078432907E+01  0.60392064735E+02  0.15320357987E+03  0.12500039274E+03 0.  0.
          2    1    1    2  501    0  0.94260876428E+02 -0.93192306497E+01 -0.54404753560E+02  0.10923295334E+03  0.00000000000E+00 0. -1.
          1    1    1    2  502    0 -0.29662523869E+02  0.42113873589E+01  0.24948710412E+03  0.25127955792E+03  0.00000000000E+00 0. -1.
         22    1    3    3    0    0 -0.78148544788E+02  0.15064111702E+02 -0.10561426427E+02  0.80284906689E+02  0.00000000000E+00 0. -1.
         22    1    3    3    0    0  0.13550192229E+02 -0.99562684113E+01  0.70953491162E+02  0.72918673179E+02  0.00000000000E+00 0. -1.
</event>
<event>
 7    1  0.6294601E-006  0.1149491E+03  0.7818608E-02  0.1251969E+00
          2   -1    0    0  502    0  0.00000000000E+00  0.00000000000E+00  0.17251295481E+04  0.17251295481E+04  0.00000000000E+00 0. -1.
          1   -1    0    0  501    0 -0.00000000000E+00 -0.00000000000E+00 -0.10237933820E+03  0.10237933820E+03  0.00000000000E+00 0. -1.
         25    2    1    2    0    0 -0.73965350101E+02 -0.71550976910E+02  0.23216281160E+03  0.28304517638E+03  0.12499834186E+03 0.  0.
          2    1    1    2  501    0  0.10516157853E+03 -0.45561716839E+02 -0.30197624022E+02  0.11851887671E+03  0.00000000000E+00 0. -1.
          1    1    1    2  502    0 -0.31196228431E+02  0.11711269375E+03  0.14207850223E+04  0.14259448332E+04  0.00000000000E+00 0. -1.
         22    1    3    3    0    0 -0.69620862941E+02 -0.33376713240E+02  0.39760950643E+02  0.86844704729E+02  0.00000000000E+00 0. -1.
         22    1    3    3    0    0 -0.43444871597E+01 -0.38174263669E+02  0.19240186096E+03  0.19620047165E+03  0.00000000000E+00 0. -1.
</event>
<event>
 7    1  0.6294601E-006  0.1088266E+03  0.7818608E-02  0.1378935E+00
          2   -1    0    0  502    0  0.00000000000E+00  0.00000000000E+00  0.19516832726E+03  0.19516832726E+03  0.00000000000E+00 0. -1.
          1   -1    0    0  501    0 -0.00000000000E+00 -0.00000000000E+00 -0.98617911582E+03  0.98617911582E+03  0.00000000000E+00 0. -1.
         25    2    1    2    0    0  0.87661150948E+02  0.99786153137E+02 -0.34470970864E+03  0.38998929869E+03  0.12500046448E+03 0.  0.
          2    1    1    2  501    0 -0.49948266335E+02 -0.91949085176E+02 -0.61218363871E+03  0.62106221192E+03  0.00000000000E+00 0. -1.
          1    1    1    2  502    0 -0.37712884613E+02 -0.78370679619E+01  0.16588255880E+03  0.17029593246E+03  0.00000000000E+00 0. -1.
         22    1    3    3    0    0  0.59845727603E+02  0.12783666492E+03 -0.24520192686E+03  0.28292703820E+03  0.00000000000E+00 0. -1.
         22    1    3    3    0    0  0.27815423344E+02 -0.28050511778E+02 -0.99507781784E+02  0.10706226050E+03  0.00000000000E+00 0. -1.
</event>
<event>
 7    1  0.6294601E-006  0.5666536E+02  0.7818608E-02  0.1522949E+00
          2   -1    0    0  502    0  0.00000000000E+00  0.00000000000E+00  0.50621538236E+03  0.50621538236E+03  0.00000000000E+00 0. -1.
          1   -1    0    0  501    0 -0.00000000000E+00 -0.00000000000E+00 -0.73677161816E+02  0.73677161816E+02  0.00000000000E+00 0. -1.
         25    2    1    2    0    0 -0.68634466989E+02 -0.41390296425E+02  0.11943224916E+03  0.19055847956E+03  0.12499850117E+03 0.  0.
          2    1    1    2  501    0  0.23972126207E+02  0.89003612978E+01 -0.31362644072E+02  0.40465969768E+02  0.00000000000E+00 0. -1.
          1    1    1    2  502    0  0.44662340782E+02  0.32489935128E+02  0.34446861546E+03  0.34886809485E+03  0.00000000000E+00 0. -1.
         22    1    3    3    0    0 -0.44615639186E+01  0.20332851232E+02  0.96354596237E+02  0.98577576597E+02  0.00000000000E+00 0. -1.
         22    1    3    3    0    0 -0.64172903070E+02 -0.61723147657E+02  0.23077652921E+02  0.91980902961E+02  0.00000000000E+00 0. -1.
</event>
<event>
 7    1  0.6294601E-006  0.9585508E+02  0.7818608E-02  0.1378515E+00
          2   -1    0    0  502    0  0.00000000000E+00  0.00000000000E+00  0.79724101464E+03  0.79724101464E+03  0.00000000000E+00 0. -1.
          1   -1    0    0  501    0 -0.00000000000E+00 -0.00000000000E+00 -0.74791951373E+03  0.74791951373E+03  0.00000000000E+00 0. -1.
         25    2    1    2    0    0 -0.20752629669E+02 -0.13765006675E+03 -0.21065434022E+03  0.28174319424E+03  0.12500305570E+03 0.  0.
          2    1    1    2  501    0  0.59908393876E+01  0.43470686859E+02 -0.49776901769E+03  0.49969949544E+03  0.00000000000E+00 0. -1.
          1    1    1    2  502    0  0.14761790281E+02  0.94179379894E+02  0.75774485882E+03  0.76371783868E+03  0.00000000000E+00 0. -1.
         22    1    3    3    0    0 -0.25842709807E+02 -0.63693521497E+02 -0.19392636190E+03  0.20574776832E+03  0.00000000000E+00 0.  1.
         22    1    3    3    0    0  0.50900801385E+01 -0.73956545255E+02 -0.16727978321E+02  0.75995425919E+02  0.00000000000E+00 0.  1.
</event>
<event>
 7    1  0.6294601E-006  0.8768170E+02  0.7818608E-02  0.1360652E+00
          2   -1    0    0  502    0  0.00000000000E+00  0.00000000000E+00  0.10438842015E+04  0.10438842015E+04  0.00000000000E+00 0. -1.
          1   -1    0    0  501    0 -0.00000000000E+00 -0.00000000000E+00 -0.16678645660E+04  0.16678645660E+04  0.00000000000E+00 0. -1.
         25    2    1    2    0    0  0.76164887681E+01 -0.87043468444E+02  0.54777750187E+02  0.16205297801E+03  0.12500395780E+03 0.  0.
          2    1    1    2  501    0  0.51389281039E+02  0.21283571632E+02 -0.16116599762E+04  0.16126195235E+04  0.00000000000E+00 0. -1.
          1    1    1    2  502    0 -0.59005769807E+02  0.65759896812E+02  0.93290186154E+03  0.93707626592E+03  0.00000000000E+00 0. -1.
         22    1    3    3    0    0 -0.22966861083E+02 -0.10866975435E+03  0.56382359692E+02  0.12456148162E+03  0.00000000000E+00 0.  1.
         22    1    3    3    0    0  0.30583349851E+02  0.21626285904E+02 -0.16046095056E+01  0.37491496393E+02  0.00000000000E+00 0.  1.
</event>
<event>
 7    1  0.6294601E-006  0.4832907E+02  0.7818608E-02  0.1513285E+00
          2   -1    0    0  502    0  0.00000000000E+00  0.00000000000E+00  0.33284675598E+04  0.33284675598E+04  0.00000000000E+00 0. -1.
          1   -1    0    0  501    0 -0.00000000000E+00 -0.00000000000E+00 -0.95404568866E+03  0.95404568866E+03  0.00000000000E+00 0. -1.
         25    2    1    2    0    0  0.21131024514E+02 -0.38045205853E+02  0.24455247744E+03  0.27807155125E+03  0.12499566194E+03 0.  0.
          2    1    1    2  501    0  0.24231633037E+02  0.20882531783E+02 -0.93682141403E+03  0.93736738473E+03  0.00000000000E+00 0. -1.
          1    1    1    2  502    0 -0.45362657552E+02  0.17162674070E+02  0.30666908077E+04  0.30670743125E+04  0.00000000000E+00 0. -1.
         22    1    3    3    0    0  0.53305299474E+02 -0.51441042980E+02  0.22752906439E+03  0.23928458161E+03  0.00000000000E+00 0.  1.
         22    1    3    3    0    0 -0.32174274960E+02  0.13395837127E+02  0.17023413053E+02  0.38786969635E+02  0.00000000000E+00 0.  1.
</event>
<event>
 7    1  0.6294601E-006  0.1623119E+03  0.7818608E-02  0.1249859E+00
          2   -1    0    0  502    0  0.00000000000E+00  0.00000000000E+00  0.70500353814E+03  0.70500353814E+03  0.00000000000E+00 0. -1.
          1   -1    0    0  501    0 -0.00000000000E+00 -0.00000000000E+00 -0.76590233878E+03  0.76590233878E+03  0.00000000000E+00 0. -1.
         25    2    1    2    0    0  0.44263059945E+02 -0.12988050185E+03 -0.22371868721E+03  0.29069470395E+03  0.12500078664E+03 0.  0.
          2    1    1    2  501    0 -0.12707882825E+03  0.12635633255E+03 -0.49021108147E+03  0.52194047147E+03  0.00000000000E+00 0. -1.
          1    1    1    2  502    0  0.82815768309E+02  0.35241693012E+01  0.65303096803E+03  0.65827070151E+03  0.00000000000E+00 0. -1.
         22    1    3    3    0    0  0.80647608573E+02 -0.11641232503E+03 -0.14364477764E+03  0.20171685188E+03  0.00000000000E+00 0. -1.
         22    1    3    3    0    0 -0.36384548628E+02 -0.13468176814E+02 -0.80073909566E+02  0.88977852068E+02  0.00000000000E+00 0. -1.
</event>
<event>
 7    1  0.6294601E-006  0.1068226E+03  0.7818608E-02  0.1367069E+00
          2   -1    0    0  502    0  0.00000000000E+00  0.00000000000E+00  0.36011596345E+03  0.36011596345E+03  0.00000000000E+00 0. -1.
          1   -1    0    0  501    0 -0.00000000000E+00 -0.00000000000E+00 -0.23005265583E+04  0.23005265583E+04  0.00000000000E+00 0. -1.
         25    2    1    2    0    0 -0.10860474542E+03 -0.22706026084E+02 -0.31694654995E+03  0.35831648476E+03  0.12500013349E+03 0.  0.
          2    1    1    2  501    0  0.20610067595E+02 -0.38048898913E+02 -0.19542279679E+04  0.19547069970E+04  0.00000000000E+00 0. -1.
          1    1    1    2  502    0  0.87994677823E+02  0.60754924997E+02  0.33076392298E+03  0.34761904002E+03  0.00000000000E+00 0. -1.
         22    1    3    3    0    0  0.15331992888E+01  0.14207499369E+02 -0.17188646631E+03  0.17247945106E+03  0.00000000000E+00 0.  1.
         22    1    3    3    0    0 -0.11013794471E+03 -0.36913525453E+02 -0.14506008364E+03  0.18583703369E+03  0.00000000000E+00 0.  1.
</event>
<event>
 7    1  0.6294601E-006  0.1390855E+03  0.7818608E-02  0.1242412E+00
          2   -1    0    0  502    0  0.00000000000E+00  0.00000000000E+00  0.24781646348E+04  0.24781646348E+04  0.00000000000E+00 0. -1.
          1   -1    0    0  501    0 -0.00000000000E+00 -0.00000000000E+00 -0.27555524409E+03  0.27555524409E+03  0.00000000000E+00 0. -1.
         25    2    1    2    0    0 -0.12880797849E+02  0.64490612676E+02  0.88832714194E+02  0.16685773635E+03  0.12500119596E+03 0.  0.
          2    1    1    2  501    0  0.10348147067E+03 -0.11606838995E+03 -0.20969101870E+03  0.26105671652E+03  0.00000000000E+00 0. -1.
          1    1    1    2  502    0 -0.90600672820E+02  0.51577777275E+02  0.23234676952E+04  0.23258054260E+04  0.00000000000E+00 0. -1.
         22    1    3    3    0    0 -0.18233224472E+02 -0.35990069266E+02  0.30221539880E+02  0.50409096730E+02  0.00000000000E+00 0.  1.
         22    1    3    3    0    0  0.53524266228E+01  0.10048068194E+03  0.58611174313E+02  0.11644863962E+03  0.00000000000E+00 0.  1.
</event>
<event>
 7    1  0.6294601E-006  0.1528053E+03  0.7818608E-02  0.1320712E+00
          2   -1    0    0  502    0  0.00000000000E+00  0.00000000000E+00  0.46825538636E+03  0.46825538636E+03  0.00000000000E+00 0. -1.
          1   -1    0    0  501    0 -0.00000000000E+00 -0.00000000000E+00 -0.17750537774E+03  0.17750537774E+03  0.00000000000E+00 0. -1.
         25    2    1    2    0    0 -0.12741759938E+03  0.19606373556E+02  0.19760293169E+03  0.26700355562E+03  0.12499730230E+03 0.  0.
          2    1    1    2  501    0  0.14585934745E+03 -0.60761095280E+02 -0.95612449986E+02  0.18468513890E+03  0.00000000000E+00 0. -1.
          1    1    1    2  502    0 -0.18441748072E+02  0.41154721724E+02  0.18875952691E+03  0.19407206958E+03  0.00000000000E+00 0. -1.
         22    1    3    3    0    0 -0.18718169283E+02  0.91618152602E+01  0.14373842454E+03  0.14524132817E+03  0.00000000000E+00 0.  1.
         22    1    3    3    0    0 -0.10869943010E+03  0.10444558295E+02  0.53864507150E+02  0.12176222744E+03  0.00000000000E+00 0.  1.
</event>
<event>
 7    1  0.6294601E-006  0.2802769E+02  0.7818608E-02  0.1631477E+00
          2   -1    0    0  502    0  0.00000000000E+00  0.00000000000E+00  0.19694736560E+03  0.19694736560E+03  0.00000000000E+00 0. -1.
          1   -1    0    0  501    0 -0.00000000000E+00 -0.00000000000E+00 -0.89157788407E+02  0.89157788407E+02  0.00000000000E+00 0. -1.
         25    2    1    2    0    0  0.45467007507E+01 -0.36330212767E+02 -0.15924781958E+01  0.13025231634E+03  0.12499029193E+03 0.  0.
          2    1    1    2  501    0 -0.22463812599E+02  0.16987453381E+02 -0.12744158516E+02  0.30912942680E+02  0.00000000000E+00 0. -1.
          1    1    1    2  502    0  0.17917111848E+02  0.19342759386E+02  0.12212621391E+03  0.12493989500E+03  0.00000000000E+00 0. -1.
         22    1    3    3    0    0  0.51109601636E+02  0.21917655914E+02  0.12766860715E+01  0.55625578176E+02  0.00000000000E+00 0.  1.
         22    1    3    3    0    0 -0.46562900885E+02 -0.58247868681E+02 -0.28691642674E+01  0.74626738159E+02  0.00000000000E+00 0.  1.
</event>
<event>
 7    1  0.6294601E-006  0.9068910E+02  0.7818608E-02  0.1388976E+00
          2   -1    0    0  502    0  0.00000000000E+00  0.00000000000E+00  0.20520681126E+04  0.20520681126E+04  0.00000000000E+00 0. -1.
          1   -1    0    0  501    0 -0.00000000000E+00 -0.00000000000E+00 -0.65754489795E+03  0.65754489795E+03  0.00000000000E+00 0. -1.
         25    2    1    2    0    0  0.14120495226E+02 -0.47190290291E+02  0.50232385096E+03  0.51998153506E+03  0.12500093470E+03 0.  0.
          2    1    1    2  501    0 -0.14433387786E+02  0.89797687913E+02 -0.64523163177E+03  0.65161016418E+03  0.00000000000E+00 0. -1.
          1    1    1    2  502    0  0.31289255948E+00 -0.42607397622E+02  0.15374309955E+04  0.15380213113E+04  0.00000000000E+00 0. -1.
         22    1    3    3    0    0 -0.26325560121E+02 -0.70342852485E+00  0.39762321553E+03  0.39849435562E+03  0.00000000000E+00 0.  1.
         22    1    3    3    0    0  0.40446055347E+02 -0.46486861766E+02  0.10470063543E+03  0.12148717944E+03  0.00000000000E+00 0.  1.
</event>
<event>
 7    1  0.6294601E-006  0.7790444E+02  0.7818608E-02  0.1468259E+00
          2   -1    0    0  502    0  0.00000000000E+00  0.00000000000E+00  0.26806834826E+03  0.26806834826E+03  0.00000000000E+00 0. -1.
          1   -1    0    0  501    0 -0.00000000000E+00 -0.00000000000E+00 -0.39725369876E+03  0.39725369876E+03  0.00000000000E+00 0. -1.
         25    2    1    2    0    0  0.59683670256E+02  0.84896677714E+02 -0.87491309736E+02  0.18452628956E+03  0.12500254348E+03 0.  0.
          2    1    1    2  501    0 -0.15730200629E+02 -0.22127280635E+02 -0.25381259087E+03  0.25526042985E+03  0.00000000000E+00 0. -1.
          1    1    1    2  502    0 -0.43953469627E+02 -0.62769397078E+02  0.21211855011E+03  0.22553532761E+03  0.00000000000E+00 0. -1.
         22    1    3    3    0    0  0.69782415814E+02  0.72442507389E+02 -0.11494013049E+03  0.15273747422E+03  0.00000000000E+00 0. -1.
         22    1    3    3    0    0 -0.10098745557E+02  0.12454170324E+02  0.27448820751E+02  0.31788815343E+02  0.00000000000E+00 0. -1.
</event>
<event>
 7    1  0.6294601E-006  0.4241726E+02  0.7818608E-02  0.1520023E+00
          2   -1    0    0  502    0  0.00000000000E+00  0.00000000000E+00  0.98856364030E+02  0.98856364030E+02  0.00000000000E+00 0. -1.
          1   -1    0    0  501    0 -0.00000000000E+00 -0.00000000000E+00 -0.33306750977E+04  0.33306750977E+04  0.00000000000E+00 0. -1.
         25    2    1    2    0    0 -0.29468239105E+02  0.77809707687E+01 -0.23129992601E+03  0.26467877564E+03  0.12500511141E+03 0.  0.
          2    1    1    2  501    0  0.33105274242E+02  0.26862534247E+02 -0.30788396512E+04  0.30791348059E+04  0.00000000000E+00 0. -1.
          1    1    1    2  502    0 -0.36370351367E+01 -0.34643505016E+02  0.78320843516E+02  0.85717880243E+02  0.00000000000E+00 0. -1.
         22    1    3    3    0    0 -0.52172510605E+02  0.36553117050E+02 -0.53643302712E+02  0.83280881087E+02  0.00000000000E+00 0. -1.
         22    1    3    3    0    0  0.22704271499E+02 -0.28772146281E+02 -0.17765662330E+03  0.18139789455E+03  0.00000000000E+00 0. -1.
</event>
<event>
 7    1  0.6294601E-006  0.7657901E+02  0.7818608E-02  0.1408360E+00
          2   -1    0    0  502    0  0.00000000000E+00  0.00000000000E+00  0.12709294723E+04  0.12709294723E+04  0.00000000000E+00 0. -1.
          1   -1    0    0  501    0 -0.00000000000E+00 -0.00000000000E+00 -0.14192877332E+03  0.14192877332E+03  0.00000000000E+00 0. -1.
         25    2    1    2    0    0 -0.84049470830E+02  0.49000607777E+02  0.34711378131E+03  0.38154812579E+03  0.12500248800E+03 0.  0.
          2    1    1    2  501    0  0.75925640288E+02 -0.65036112290E+01 -0.11249876836E+03  0.13587852183E+03  0.00000000000E+00 0. -1.
          1    1    1    2  502    0  0.81238305429E+01 -0.42496996548E+02  0.89438568600E+03  0.89543159798E+03  0.00000000000E+00 0. -1.
         22    1    3    3    0    0  0.15238688795E+01 -0.22301561177E+02  0.66421347665E+01  0.23319514608E+02  0.00000000000E+00 0.  1.
         22    1    3    3    0    0 -0.85573339710E+02  0.71302168955E+02  0.34047164654E+03  0.35822861118E+03  0.00000000000E+00 0.  1.
</event>
<event>
 7    1  0.6294601E-006  0.1461914E+03  0.7818608E-02  0.1255849E+00
          2   -1    0    0  502    0  0.00000000000E+00  0.00000000000E+00  0.18372631872E+04  0.18372631872E+04  0.00000000000E+00 0. -1.
          1   -1    0    0  501    0 -0.00000000000E+00 -0.00000000000E+00 -0.12580275805E+03  0.12580275805E+03  0.00000000000E+00 0. -1.
         25    2    1    2    0    0 -0.19929298613E+03 -0.75992665694E+02  0.22476136017E+03  0.33411893151E+03  0.12500084723E+03 0.  0.
          2    1    1    2  501    0  0.11295848111E+03  0.67929372640E+02 -0.76992342579E+01  0.13203520867E+03  0.00000000000E+00 0. -1.
          1    1    1    2  502    0  0.86334505020E+02  0.80632930540E+01  0.14943983033E+04  0.14969118051E+04  0.00000000000E+00 0. -1.
         22    1    3    3    0    0 -0.94617527391E+02  0.22789597594E+02  0.55869872437E+02  0.11221980616E+03  0.00000000000E+00 0. -1.
         22    1    3    3    0    0 -0.10467545873E+03 -0.98782263288E+02  0.16889148773E+03  0.22189912535E+03  0.00000000000E+00 0. -1.
</event>
<event>
 7    1  0.6294601E-006  0.7348587E+02  0.7818608E-02  0.1455593E+00
          2   -1    0    0  502    0  0.00000000000E+00  0.00000000000E+00  0.28451873323E+03  0.28451873323E+03  0.00000000000E+00 0. -1.
          1   -1    0    0  501    0 -0.00000000000E+00 -0.00000000000E+00 -0.17393711791E+04  0.17393711791E+04  0.00000000000E+00 0. -1.
         25    2    1    2    0    0  0.91768909854E+01 -0.69668079455E+02 -0.58295591898E+03  0.60033380772E+03  0.12500088233E+03 0.  0.
          2    1    1    2  501    0  0.22326002845E+02  0.71336429611E+02 -0.11456022890E+04  0.11480383013E+04  0.00000000000E+00 0. -1.
          1    1    1    2  502    0 -0.31502893830E+02 -0.16683501561E+01  0.27370576215E+03  0.27551780332E+03  0.00000000000E+00 0. -1.
         22    1    3    3    0    0  0.15273012225E+02 -0.76615577206E+02 -0.58554626710E+03  0.59073483264E+03  0.00000000000E+00 0. -1.
         22    1    3    3    0    0 -0.60961212392E+01  0.69474977508E+01  0.25903481191E+01  0.95989750775E+01  0.00000000000E+00 0. -1.
</event>
<event>
 7    1  0.6294601E-006  0.3819926E+02  0.7818608E-02  0.1564517E+00
          2   -1    0    0  502    0  0.00000000000E+00  0.00000000000E+00  0.50096312614E+03  0.50096312614E+03  0.00000000000E+00 0. -1.
          1   -1    0    0  501    0 -0.00000000000E+00 -0.00000000000E+00 -0.16032964621E+03  0.16032964621E+03  0.00000000000E+00 0. -1.
         25    2    1    2    0    0  0.92587512252E+01  0.64811663365E+02  0.10365415146E+03  0.17508539799E+03  0.12499774914E+03 0.  0.
          2    1    1    2  501    0  0.83406241477E+00 -0.37648139809E+02 -0.12117046248E+03  0.12688719033E+03  0.00000000000E+00 0. -1.
          1    1    1    2  502    0 -0.10092813640E+02 -0.27163523556E+02  0.35814979095E+03  0.35932018403E+03  0.00000000000E+00 0. -1.
         22    1    3    3    0    0 -0.51402127621E+02  0.30478675891E-01  0.48004961341E+02  0.70332467369E+02  0.00000000000E+00 0.  1.
         22    1    3    3    0    0  0.60660878846E+02  0.64781184689E+02  0.55649190120E+02  0.10475293062E+03  0.00000000000E+00 0.  1.
</event>
<event>
 7    1  0.6294601E-006  0.1805165E+03  0.7818608E-02  0.1241428E+00
          2   -1    0    0  502    0  0.00000000000E+00  0.00000000000E+00  0.12413062683E+04  0.12413062683E+04  0.00000000000E+00 0. -1.
          1   -1    0    0  501    0 -0.00000000000E+00 -0.00000000000E+00 -0.16862971304E+03  0.16862971304E+03  0.00000000000E+00 0. -1.
         25    2    1    2    0    0  0.12448176029E+03  0.30377080268E+02  0.28080133831E+03  0.33299121607E+03  0.12496112487E+03 0.  0.
          2    1    1    2  501    0  0.61649474406E+02  0.52738564440E+02 -0.11873051606E+03  0.14380177091E+03  0.00000000000E+00 0. -1.
          1    1    1    2  502    0 -0.18613123470E+03 -0.83115644708E+02  0.91060573299E+03  0.93314299434E+03  0.00000000000E+00 0. -1.
         22    1    3    3    0    0  0.31187265304E+02 -0.24848140960E+02  0.97328909863E+01  0.41046373692E+02  0.00000000000E+00 0. -1.
         22    1    3    3    0    0  0.93294494989E+02  0.55225221228E+02  0.27106844732E+03  0.29194484237E+03  0.00000000000E+00 0. -1.
</event>
<event>
 7    1  0.6294601E-006  0.1039217E+03  0.7818608E-02  0.1330633E+00
          2   -1    0    0  502    0  0.00000000000E+00  0.00000000000E+00  0.13525835932E+03  0.13525835932E+03  0.00000000000E+00 0. -1.
          1   -1    0    0  501    0 -0.00000000000E+00 -0.00000000000E+00 -0.20344502830E+04  0.20344502830E+04  0.00000000000E+00 0. -1.
         25    2    1    2    0    0  0.25544417862E+02 -0.15312644381E+03 -0.38155888796E+02  0.20293196794E+03  0.12500114674E+03 0.  0.
          2    1    1    2  501    0 -0.41332874125E+02  0.94480978055E+02 -0.18945872548E+04  0.18973918751E+04  0.00000000000E+00 0. -1.
          1    1    1    2  502    0  0.15788456263E+02  0.58645465755E+02  0.33551219946E+02  0.69384799233E+02  0.00000000000E+00 0. -1.
         22    1    3    3    0    0  0.14807523918E+02 -0.17346515806E+03 -0.43223654225E+02  0.17938145977E+03  0.00000000000E+00 0. -1.
         22    1    3    3    0    0  0.10736893944E+02  0.20338714248E+02  0.50677654286E+01  0.23550508175E+02  0.00000000000E+00 0. -1.
</event>
<event>
 7    1  0.6294601E-006  0.7105529E+02  0.7818608E-02  0.1374529E+00
          2   -1    0    0  502    0  0.00000000000E+00  0.00000000000E+00  0.12080542135E+03  0.12080542135E+03  0.00000000000E+00 0. -1.
          1   -1    0    0  501    0 -0.00000000000E+00 -0.00000000000E+00 -0.14604501291E+04  0.14604501291E+04  0.00000000000E+00 0. -1.
         25    2    1    2    0    0 -0.33766900673E+02 -0.15491921169E+02 -0.81372109439E+02  0.15371394217E+03  0.12500541036E+03 0.  0.
          2    1    1    2  501    0 -0.37101166304E+02  0.48625811144E+02 -0.13239708737E+04  0.13253829034E+04  0.00000000000E+00 0. -1.
          1    1    1    2  502    0  0.70868066977E+02 -0.33133889975E+02  0.65698275466E+02  0.10215870487E+03  0.00000000000E+00 0. -1.
         22    1    3    3    0    0 -0.56609772171E+01 -0.50184596744E+02  0.10485577284E+02  0.51579916095E+02  0.00000000000E+00 0. -1.
         22    1    3    3    0    0 -0.28105923456E+02  0.34692675575E+02 -0.91857686723E+02  0.10213402607E+03  0.00000000000E+00 0. -1.
</event>
<event>
 7    1  0.6294601E-006  0.1068233E+03  0.7818608E-02  0.1281407E+00
          2   -1    0    0  502    0  0.00000000000E+00  0.00000000000E+00  0.68363738822E+03  0.68363738822E+03  0.00000000000E+00 0. -1.
          1   -1    0    0  501    0 -0.00000000000E+00 -0.00000000000E+00 -0.15376739578E+04  0.15376739578E+04  0.00000000000E+00 0. -1.
         25    2    1    2    0    0 -0.99442870526E+02  0.15909205902E+03  0.19477307305E+03  0.29792826644E+03  0.12500213684E+03 0.  0.
          2    1    1    2  501    0  0.63412627685E+02 -0.67520169749E+02 -0.14790929625E+04  0.14819905959E+04  0.00000000000E+00 0. -1.
          1    1    1    2  502    0  0.36030242841E+02 -0.91571889269E+02  0.43028331985E+03  0.44139248368E+03  0.00000000000E+00 0. -1.
         22    1    3    3    0    0 -0.39786730442E+02  0.15427988770E+03  0.10786694199E+03  0.19240723698E+03  0.00000000000E+00 0.  1.
         22    1    3    3    0    0 -0.59656140083E+02  0.48121713217E+01  0.86906131056E+02  0.10552102946E+03  0.00000000000E+00 0.  1.
</event>
<event>
 7    1  0.6294601E-006  0.1090920E+03  0.7818608E-02  0.1290521E+00
          2   -1    0    0  502    0  0.00000000000E+00  0.00000000000E+00  0.14731129337E+04  0.14731129337E+04  0.00000000000E+00 0. -1.
          1   -1    0    0  501    0 -0.00000000000E+00 -0.00000000000E+00 -0.35976539892E+03  0.35976539892E+03  0.00000000000E+00 0. -1.
         25    2    1    2    0    0 -0.77692829488E+02 -0.65227235544E+02 -0.37438543911E+02  0.16528021703E+03  0.12500055024E+03 0.  0.
          2    1    1    2  501    0  0.11542076451E+03 -0.89678716219E+01 -0.24413647590E+03  0.27019436424E+03  0.00000000000E+00 0. -1.
          1    1    1    2  502    0 -0.37727935020E+02  0.74195107166E+02  0.13949225546E+04  0.13974037513E+04  0.00000000000E+00 0. -1.
         22    1    3    3    0    0  0.21775117768E+02 -0.53266145884E+02  0.20812101501E+01  0.57582718648E+02  0.00000000000E+00 0. -1.
         22    1    3    3    0    0 -0.99467947256E+02 -0.11961089660E+02 -0.39519754062E+02  0.10769749838E+03  0.00000000000E+00 0. -1.
</event>
<event>
 7    1  0.6294601E-006  0.7371076E+02  0.7818608E-02  0.1427114E+00
          2   -1    0    0  502    0  0.00000000000E+00  0.00000000000E+00  0.37909534085E+03  0.37909534085E+03  0.00000000000E+00 0. -1.
          1   -1    0    0  501    0 -0.00000000000E+00 -0.00000000000E+00 -0.97326059190E+03  0.97326059190E+03  0.00000000000E+00 0. -1.
         25    2    1    2    0    0 -0.72813663352E+02 -0.80160488263E+02 -0.37215008472E+03  0.40724355546E+03  0.12499637775E+03 0.  0.
          2    1    1    2  501    0  0.49229027971E+02  0.49232771338E+02 -0.58043131934E+03  0.58459206242E+03  0.00000000000E+00 0. -1.
          1    1    1    2  502    0  0.23584635381E+02  0.30927716925E+02  0.35841615301E+03  0.36052031488E+03  0.00000000000E+00 0. -1.
         22    1    3    3    0    0 -0.10507352859E+02 -0.97327382185E+02 -0.18590532620E+03  0.21010429338E+03  0.00000000000E+00 0. -1.
         22    1    3    3    0    0 -0.62306310493E+02  0.17166893922E+02 -0.18624475853E+03  0.19713926208E+03  0.00000000000E+00 0. -1.
</event>
<event>
 7    1  0.6294601E-006  0.9827993E+02  0.7818608E-02  0.1347247E+00
          2   -1    0    0  502    0  0.00000000000E+00  0.00000000000E+00  0.15945116912E+04  0.15945116912E+04  0.00000000000E+00 0. -1.
          1   -1    0    0  501    0 -0.00000000000E+00 -0.00000000000E+00 -0.69433218424E+02  0.69433218424E+02  0.00000000000E+00 0. -1.
         25    2    1    2    0    0 -0.26113775079E+02 -0.60912362210E+02  0.68235962368E+02  0.15708505928E+03  0.12500929633E+03 0.  0.
          2    1    1    2  501    0  0.40666398801E+02 -0.37914093611E+02  0.99000878122E+01  0.56473411660E+02  0.00000000000E+00 0. -1.
          1    1    1    2  502    0 -0.14552623722E+02  0.98826455821E+02  0.14469424226E+04  0.14503864387E+04  0.00000000000E+00 0. -1.
         22    1    3    3    0    0  0.48933101961E+02 -0.40299320201E+02  0.25795140499E+02  0.68438826331E+02  0.00000000000E+00 0. -1.
         22    1    3    3    0    0 -0.75046877040E+02 -0.20613042009E+02  0.42440821869E+02  0.88646232944E+02  0.00000000000E+00 0. -1.
</event>
<event>
 7    1  0.6294601E-006  0.8912412E+02  0.7818608E-02  0.1429727E+00
          2   -1    0    0  502    0  0.00000000000E+00  0.00000000000E+00  0.20831808969E+04  0.20831808969E+04  0.00000000000E+00 0. -1.
          1   -1    0    0  501    0 -0.00000000000E+00 -0.00000000000E+00 -0.77730281030E+03  0.77730281030E+03  0.00000000000E+00 0. -1.
         25    2    1    2    0    0 -0.57454685908E+02 -0.81132144057E+02 -0.47292242190E+03  0.49916405897E+03  0.12500269958E+03 0.  0.
          2    1    1    2  501    0  0.68386330018E+02  0.51551863627E+02 -0.28484117736E+03  0.29743702039E+03  0.00000000000E+00 0. -1.
          1    1    1    2  502    0 -0.10931644109E+02  0.29580280431E+02  0.20636416859E+04  0.20638826279E+04  0.00000000000E+00 0. -1.
         22    1    3    3    0    0  0.28250424244E+02 -0.59155012519E+02 -0.13842736445E+03  0.15316506522E+03  0.00000000000E+00 0.  1.
         22    1    3    3    0    0 -0.85705110152E+02 -0.21977131538E+02 -0.33449505745E+03  0.34599899375E+03  0.00000000000E+00 0.  1.
</event>
<event>
 7    1  0.6294601E-006  0.1541000E+03  0.7818608E-02  0.1364788E+00
          2   -1    0    0  502    0  0.00000000000E+00  0.00000000000E+00  0.32421475913E+03  0.32421475913E+03  0.00000000000E+00 0. -1.
          1   -1    0    0  501    0 -0.00000000000E+00 -0.00000000000E+00 -0.48639842308E+03  0.48639842308E+03  0.00000000000E+00 0. -1.
         25    2    1    2    0    0 -0.97149869146E+02 -0.13048990887E+03  0.76643037074E+02  0.21900948650E+03  0.12500114660E+03 0.  0.
          2    1    1    2  501    0  0.67486258490E+02  0.13788635296E+03 -0.39953511438E+03  0.42801325802E+03  0.00000000000E+00 0. -1.
          1    1    1    2  502    0  0.29663610656E+02 -0.73964440818E+01  0.16070841335E+03  0.16359043769E+03  0.00000000000E+00 0. -1.
         22    1    3    3    0    0 -0.77923701006E+01 -0.27091048721E+02 -0.33288864483E+02  0.43621032210E+02  0.00000000000E+00 0. -1.
         22    1    3    3    0    0 -0.89357499046E+02 -0.10339886015E+03  0.10993190156E+03  0.17538845428E+03  0.00000000000E+00 0. -1.
</event>
<event>
 7    1  0.6294601E-006  0.6197001E+02  0.7818608E-02  0.1498171E+00
          2   -1    0    0  502    0  0.00000000000E+00  0.00000000000E+00  0.97257311222E+02  0.97257311222E+02  0.00000000000E+00 0. -1.
          1   -1    0    0  501    0 -0.00000000000E+00 -0.00000000000E+00 -0.11147913419E+04  0.11147913419E+04  0.00000000000E+00 0. -1.
         25    2    1    2    0    0  0.86549481119E+02 -0.11657701227E+02 -0.35542672026E+03  0.38675525170E+03  0.12499902625E+03 0.  0.
          2    1    1    2  501    0 -0.59848498785E+02  0.44575719654E+01 -0.74010703128E+03  0.74253628228E+03  0.00000000000E+00 0. -1.
          1    1    1    2  502    0 -0.26700982334E+02  0.72001292616E+01  0.77999720847E+02  0.82757119157E+02  0.00000000000E+00 0. -1.
         22    1    3    3    0    0 -0.98599462667E+01 -0.12364310591E+02  0.25536172001E+01  0.16019228370E+02  0.00000000000E+00 0.  1.
         22    1    3    3    0    0  0.96409427386E+02  0.70660936413E+00 -0.35798033746E+03  0.37073602333E+03  0.00000000000E+00 0.  1.
</event>
<event>
 7    1  0.6294601E-006  0.5931526E+02  0.7818608E-02  0.1544826E+00
          2   -1    0    0  502    0  0.00000000000E+00  0.00000000000E+00  0.72416157479E+03  0.72416157479E+03  0.00000000000E+00 0. -1.
          1   -1    0    0  501    0 -0.00000000000E+00 -0.00000000000E+00 -0.47770825004E+02  0.47770825004E+02  0.00000000000E+00 0. -1.
         25    2    1    2    0    0 -0.34423594812E+02  0.29548788872E+02  0.22372726318E+03  0.26026333086E+03  0.12499999320E+03 0.  0.
          2    1    1    2  501    0  0.55359013497E+02 -0.26464580907E+02  0.29210263010E+01  0.61429038839E+02  0.00000000000E+00 0. -1.
          1    1    1    2  502    0 -0.20935418685E+02 -0.30842079646E+01  0.44974246031E+03  0.45024003009E+03  0.00000000000E+00 0. -1.
         22    1    3    3    0    0  0.44583805793E+00  0.14022254906E+02  0.22158984020E+03  0.22203351027E+03  0.00000000000E+00 0.  1.
         22    1    3    3    0    0 -0.34869432870E+02  0.15526533965E+02  0.21374229804E+01  0.38229820594E+02  0.00000000000E+00 0.  1.
</event>
<event>
 7    1  0.6294601E-006  0.7617229E+02  0.7818608E-02  0.1459034E+00
          2   -1    0    0  502    0  0.00000000000E+00  0.00000000000E+00  0.18316620143E+04  0.18316620143E+04  0.00000000000E+00 0. -1.
          1   -1    0    0  501    0 -0.00000000000E+00 -0.00000000000E+00 -0.14105654484E+02  0.14105654484E+02  0.00000000000E+00 0. -1.
         25    2    1    2    0    0  0.59296414820E+02 -0.41855364429E+02  0.91093115783E+03  0.92232774319E+03  0.12499982085E+03 0.  0.
          2    1    1    2  501    0 -0.41686391801E+02  0.65746817365E+02  0.17883161814E+03  0.19504139792E+03  0.00000000000E+00 0. -1.
          1    1    1    2  502    0 -0.17610023019E+02 -0.23891452936E+02  0.72779358387E+03  0.72839852770E+03  0.00000000000E+00 0. -1.
         22    1    3    3    0    0  0.76954598423E+02 -0.41005387942E+02  0.33617296604E+03  0.34729773272E+03  0.00000000000E+00 0.  1.
         22    1    3    3    0    0 -0.17658183603E+02 -0.84997648626E+00  0.57475819179E+03  0.57503001047E+03  0.00000000000E+00 0.  1.
</event>
<event>
 7    1  0.6294601E-006  0.7297437E+02  0.7818608E-02  0.1502212E+00
          2   -1    0    0  502    0  0.00000000000E+00  0.00000000000E+00  0.66708137385E+03  0.66708137385E+03  0.00000000000E+00 0. -1.
          1   -1    0    0  501    0 -0.00000000000E+00 -0.00000000000E+00 -0.87318517849E+03  0.87318517849E+03  0.00000000000E+00 0. -1.
         25    2    1    2    0    0 -0.24636993675E+02  0.56953619901E+02 -0.24158649458E+03  0.27899835677E+03  0.12500140976E+03 0.  0.
          2    1    1    2  501    0  0.94037926641E+01 -0.73973774550E+02 -0.61042197043E+03  0.61495978130E+03  0.00000000000E+00 0. -1.
          1    1    1    2  502    0  0.15233201011E+02  0.17020154649E+02  0.64590466037E+03  0.64630841427E+03  0.00000000000E+00 0. -1.
         22    1    3    3    0    0  0.21920185689E+02  0.77215889100E+02 -0.19165877417E+03  0.20778805016E+03  0.00000000000E+00 0. -1.
         22    1    3    3    0    0 -0.46557179363E+02 -0.20262269199E+02 -0.49927720401E+02  0.71210306612E+02  0.00000000000E+00 0. -1.
</event>
<event>
 7    1  0.6294601E-006  0.5356672E+02  0.7818608E-02  0.1562400E+00
          2   -1    0    0  502    0  0.00000000000E+00  0.00000000000E+00  0.26470429966E+03  0.26470429966E+03  0.00000000000E+00 0. -1.
          1   -1    0    0  501    0 -0.00000000000E+00 -0.00000000000E+00 -0.55534209792E+03  0.55534209792E+03  0.00000000000E+00 0. -1.
         25    2    1    2    0    0 -0.38984910782E+02 -0.51228189794E+02  0.19742833583E+03  0.24238266716E+03  0.12500903510E+03 0.  0.
          2    1    1    2  501    0  0.43743881795E+02  0.30833677359E+02 -0.52899116522E+03  0.53169154190E+03  0.00000000000E+00 0. -1.
          1    1    1    2  502    0 -0.47589710136E+01  0.20394512435E+02  0.40925031131E+02  0.45972188502E+02  0.00000000000E+00 0. -1.
         22    1    3    3    0    0 -0.71336313389E+02 -0.46367758220E+02  0.68095095777E+02  0.10897605553E+03  0.00000000000E+00 0.  1.
         22    1    3    3    0    0  0.32351402607E+02 -0.48604315738E+01  0.12933324005E+03  0.13340661163E+03  0.00000000000E+00 0.  1.
</event>
<event>
 7    1  0.6294601E-006  0.4207670E+02  0.7818608E-02  0.1501047E+00
          2   -1    0    0  502    0  0.00000000000E+00  0.00000000000E+00  0.17251298626E+04  0.17251298626E+04  0.00000000000E+00 0. -1.
          1   -1    0    0  501    0 -0.00000000000E+00 -0.00000000000E+00 -0.13988507752E+03  0.13988507752E+03  0.00000000000E+00 0. -1.
         25    2    1    2    0    0  0.57084485856E+02  0.57196657655E+02  0.29606053886E+03  0.33137298197E+03  0.12500445727E+03 0.  0.
          2    1    1    2  501    0 -0.31326557902E+02 -0.24763372463E+02 -0.11865470191E+03  0.12519391412E+03  0.00000000000E+00 0. -1.
          1    1    1    2  502    0 -0.25757927954E+02 -0.32433285192E+02  0.14078389482E+04  0.14084480441E+04  0.00000000000E+00 0. -1.
         22    1    3    3    0    0 -0.21710181377E+02 -0.58453769201E+00  0.23604936225E+01  0.21845951338E+02  0.00000000000E+00 0.  1.
         22    1    3    3    0    0  0.78794667232E+02  0.57781195347E+02  0.29370004523E+03  0.30952703063E+03  0.00000000000E+00 0.  1.
</event>
<event>
 7    1  0.6294601E-006  0.4005954E+02  0.7818608E-02  0.1525757E+00
          2   -1    0    0  502    0  0.00000000000E+00  0.00000000000E+00  0.42434476938E+03  0.42434476938E+03  0.00000000000E+00 0. -1.
          1   -1    0    0  501    0 -0.00000000000E+00 -0.00000000000E+00 -0.10937445237E+04  0.10937445237E+04  0.00000000000E+00 0. -1.
         25    2    1    2    0    0  0.28214773490E+02  0.69095388446E+02 -0.27143411085E+03  0.30801257440E+03  0.12500009322E+03 0.  0.
          2    1    1    2  501    0 -0.15707745753E+02 -0.35869368343E+02 -0.80276703443E+03  0.80372150427E+03  0.00000000000E+00 0. -1.
          1    1    1    2  502    0 -0.12507027737E+02 -0.33226020103E+02  0.40480139096E+03  0.40635521441E+03  0.00000000000E+00 0. -1.
         22    1    3    3    0    0 -0.73901454948E-01 -0.10985169788E+02 -0.19010419099E+03  0.19042132982E+03  0.00000000000E+00 0. -1.
         22    1    3    3    0    0  0.28288674945E+02  0.80080558233E+02 -0.81329919864E+02  0.11759124458E+03  0.00000000000E+00 0. -1.
</event>
<event>
 7    1  0.6294601E-006  0.8668765E+02  0.7818608E-02  0.1391577E+00
          2   -1    0    0  502    0  0.00000000000E+00  0.00000000000E+00  0.62457085922E+03  0.62457085922E+03  0.00000000000E+00 0. -1.
          1   -1    0    0  501    0 -0.00000000000E+00 -0.00000000000E+00 -0.66297746978E+03  0.66297746978E+03  0.00000000000E+00 0. -1.
         25    2    1    2    0    0  0.71904730786E+02  0.26557207716E+02 -0.16890281129E+03  0.22367436898E+03  0.12500595221E+03 0.  0.
          2    1    1    2  501    0 -0.58324475414E+02 -0.68044899609E+02 -0.46157532120E+03  0.47019531042E+03  0.00000000000E+00 0. -1.
          1    1    1    2  502    0 -0.13580255372E+02  0.41487691892E+02  0.59207152193E+03  0.59367864961E+03  0.00000000000E+00 0. -1.
         22    1    3    3    0    0  0.37071366357E+02 -0.45321221542E+02 -0.10936341215E+03  0.12405101871E+03  0.00000000000E+00 0. -1.
         22    1    3    3    0    0  0.34833364428E+02  0.71878429258E+02 -0.59539399135E+02  0.99623350271E+02  0.00000000000E+00 0. -1.
</event>
<event>
 7    1  0.6294601E-006  0.1641320E+03  0.7818608E-02  0.1315052E+00
          2   -1    0    0  502    0  0.00000000000E+00  0.00000000000E+00  0.10103581052E+04  0.10103581052E+04  0.00000000000E+00 0. -1.
          1   -1    0    0  501    0 -0.00000000000E+00 -0.00000000000E+00 -0.17321653180E+04  0.17321653180E+04  0.00000000000E+00 0. -1.
         25    2    1    2    0    0 -0.53457166732E+02  0.18345961265E+03  0.75065454831E+03  0.78461609222E+03  0.12500025250E+03 0.  0.
          2    1    1    2  501    0  0.75880719096E+02 -0.14540418011E+03 -0.17092164114E+04  0.17170675584E+04  0.00000000000E+00 0. -1.
          1    1    1    2  502    0 -0.22423552363E+02 -0.38055432546E+02  0.23675465028E+03  0.24083977263E+03  0.00000000000E+00 0. -1.
         22    1    3    3    0    0 -0.32096608025E+02  0.19708895600E+03  0.61470372493E+03  0.64632415881E+03  0.00000000000E+00 0. -1.
         22    1    3    3    0    0 -0.21360558707E+02 -0.13629343343E+02  0.13595082338E+03  0.13829193341E+03  0.00000000000E+00 0. -1.
</event>
<event>
 7    1  0.6294601E-006  0.9057741E+02  0.7818608E-02  0.1368886E+00
          2   -1    0    0  502    0  0.00000000000E+00  0.00000000000E+00  0.17114453850E+03  0.17114453850E+03  0.00000000000E+00 0. -1.
          1   -1    0    0  501    0 -0.00000000000E+00 -0.00000000000E+00 -0.23317189795E+04  0.23317189795E+04  0.00000000000E+00 0. -1.
         25    2    1    2    0    0 -0.73333958027E+02 -0.65005307578E+02 -0.11143539035E+04  0.11256166343E+04  0.12499850292E+03 0.  0.
          2    1    1    2  501    0  0.89787821466E+02  0.17505320243E+02 -0.12061444370E+04  0.12096084870E+04  0.00000000000E+00 0. -1.
          1    1    1    2  502    0 -0.16453863439E+02  0.47499987335E+02  0.15992389946E+03  0.16763839667E+03  0.00000000000E+00 0. -1.
         22    1    3    3    0    0  0.30013291174E+02 -0.44133886209E+02 -0.36462453285E+03  0.36851003720E+03  0.00000000000E+00 0.  1.
         22    1    3    3    0    0 -0.10334724920E+03 -0.20871421369E+02 -0.74972937067E+03  0.75710659712E+03  0.00000000000E+00 0.  1.
</event>
<event>
 7    1  0.6294601E-006  0.1256526E+03  0.7818608E-02  0.1298267E+00
          2   -1    0    0  502    0  0.00000000000E+00  0.00000000000E+00  0.58597385820E+03  0.58597385820E+03  0.00000000000E+00 0. -1.
          1   -1    0    0  501    0 -0.00000000000E+00 -0.00000000000E+00 -0.20745831367E+04  0.20745831367E+04  0.00000000000E+00 0. -1.
         25    2    1    2    0    0 -0.27065369763E+02  0.19007792749E+03  0.55067122334E+02  0.23562973182E+03  0.12500731896E+03 0.  0.
          2    1    1    2  501    0  0.16954565770E+02 -0.12359900727E+03 -0.19797613991E+04  0.19836883246E+04  0.00000000000E+00 0. -1.
          1    1    1    2  502    0  0.10110803993E+02 -0.66478920227E+02  0.43608499821E+03  0.44123893851E+03  0.00000000000E+00 0. -1.
         22    1    3    3    0    0  0.22878360758E+02  0.11436969026E+03  0.80158966400E+02  0.14152492832E+03  0.00000000000E+00 0. -1.
         22    1    3    3    0    0 -0.49943730521E+02  0.75708237237E+02 -0.25091844066E+02  0.94104803504E+02  0.00000000000E+00 0. -1.
</event>
<event>
 7    1  0.6294601E-006  0.7275499E+02  0.7818608E-02  0.1396966E+00
          2   -1    0    0  502    0  0.00000000000E+00  0.00000000000E+00  0.22453635475E+03  0.22453635475E+03  0.00000000000E+00 0. -1.
          1   -1    0    0  501    0 -0.00000000000E+00 -0.00000000000E+00 -0.14044490724E+04  0.14044490724E+04  0.00000000000E+00 0. -1.
         25    2    1    2    0    0 -0.27075938316E+02  0.27979436495E+02 -0.74725751283E+03  0.75863967524E+03  0.12499764424E+03 0.  0.
          2    1    1    2  501    0  0.21561391684E+02  0.44915644072E+02 -0.64440706271E+03  0.64633023384E+03  0.00000000000E+00 0. -1.
          1    1    1    2  502    0  0.55145466319E+01 -0.72895080567E+02  0.21175185792E+03  0.22401551805E+03  0.00000000000E+00 0. -1.
         22    1    3    3    0    0  0.25153936716E+02 -0.38478961466E+02 -0.23481041716E+03  0.23926822400E+03  0.00000000000E+00 0.  1.
         22    1    3    3    0    0 -0.52229875031E+02  0.66458397961E+02 -0.51244709566E+03  0.51937145124E+03  0.00000000000E+00 0.  1.
</event>
<event>
 7    1  0.6294601E-006  0.1595584E+03  0.7818608E-02  0.1344250E+00
          2   -1    0    0  502    0  0.00000000000E+00  0.00000000000E+00  0.58679516425E+03  0.58679516425E+03  0.00000000000E+00 0. -1.
          1   -1    0    0  501    0 -0.00000000000E+00 -0.00000000000E+00 -0.43302306519E+03  0.43302306519E+03  0.00000000000E+00 0. -1.
         25    2    1    2    0    0  0.51335004738E+01 -0.13012309105E+03 -0.12832238958E+03  0.22147620301E+03  0.12500680453E+03 0.  0.
          2    1    1    2  501    0 -0.16293772384E+02 -0.31132584060E+02 -0.24474945501E+03  0.24725901508E+03  0.00000000000E+00 0. -1.
          1    1    1    2  502    0  0.11160271910E+02  0.16125567511E+03  0.52684394366E+03  0.55108301135E+03  0.00000000000E+00 0. -1.
         22    1    3    3    0    0  0.25045543093E+02 -0.11449628777E+03 -0.14844778733E+03  0.18913863884E+03  0.00000000000E+00 0.  1.
         22    1    3    3    0    0 -0.19912042619E+02 -0.15626803284E+02  0.20125397741E+02  0.32337564169E+02  0.00000000000E+00 0.  1.
</event>
<event>
 7    1  0.6294601E-006  0.1704946E+03  0.7818608E-02  0.1228800E+00
          2   -1    0    0  502    0  0.00000000000E+00  0.00000000000E+00  0.28077309825E+04  0.28077309825E+04  0.00000000000E+00 0. -1.
          1   -1    0    0  501    0 -0.00000000000E+00 -0.00000000000E+00 -0.99050548069E+03  0.99050548069E+03  0.00000000000E+00 0. -1.
         25    2    1    2    0    0  0.67278705740E+02 -0.23881504288E+03  0.91582223251E+03  0.95703497470E+03  0.12500612897E+03 0.  0.
          2    1    1    2  501    0 -0.90496944560E+02  0.14385935630E+03 -0.96116212791E+03  0.97607266507E+03  0.00000000000E+00 0. -1.
          1    1    1    2  502    0  0.23218238820E+02  0.94955686585E+02  0.18625653972E+04  0.18651288234E+04  0.00000000000E+00 0. -1.
         22    1    3    3    0    0  0.80047089593E+02 -0.20164087179E+03  0.58583958061E+03  0.62471961066E+03  0.00000000000E+00 0. -1.
         22    1    3    3    0    0 -0.12768383854E+02 -0.37174171092E+02  0.32998265190E+03  0.33231536404E+03  0.00000000000E+00 0. -1.
</event>
<event>
 7    1  0.6294601E-006  0.4644234E+02  0.7818608E-02  0.1509634E+00
          2   -1    0    0  502    0  0.00000000000E+00  0.00000000000E+00  0.77251693782E+03  0.77251693782E+03  0.00000000000E+00 0. -1.
          1   -1    0    0  501    0 -0.00000000000E+00 -0.00000000000E+00 -0.31117602261E+03  0.31117602261E+03  0.00000000000E+00 0. -1.
         25    2    1    2    0    0 -0.22579018406E+02 -0.73091569882E+02  0.38361352439E+03  0.41065539089E+03  0.12500529712E+03 0.  0.
          2    1    1    2  501    0  0.14570923551E+01  0.46295031343E+02 -0.29506939684E+03  0.29868261081E+03  0.00000000000E+00 0. -1.
          1    1    1    2  502    0  0.21121926051E+02  0.26796538539E+02  0.37279678767E+03  0.37435495874E+03  0.00000000000E+00 0. -1.
         22    1    3    3    0    0 -0.14478325267E+02 -0.10495568604E+03  0.33943186736E+03  0.35558305712E+03  0.00000000000E+00 0. -1.
         22    1    3    3    0    0 -0.81006931393E+01  0.31864116159E+02  0.44181657034E+02  0.55072333764E+02  0.00000000000E+00 0. -1.
</event>
<event>
 7    1  0.6294601E-006  0.1896474E+03  0.7818608E-02  0.1261113E+00
          2   -1    0    0  502    0  0.00000000000E+00  0.00000000000E+00  0.48432737169E+03  0.48432737169E+03  0.00000000000E+00 0. -1.
          1   -1    0    0  501    0 -0.00000000000E+00 -0.00000000000E+00 -0.28535351283E+04  0.28535351283E+04  0.00000000000E+00 0. -1.
         25    2    1    2    0    0 -0.18116984865E+03 -0.15991546231E+03 -0.47034328894E+02  0.27610215009E+03  0.12499880018E+03 0.  0.
          2    1    1    2  501    0  0.11934993210E+03  0.14556530000E+03 -0.26859254777E+04  0.26925135719E+04  0.00000000000E+00 0. -1.
          1    1    1    2  502    0  0.61819916547E+02  0.14350162312E+02  0.36375204998E+03  0.36924677805E+03  0.00000000000E+00 0. -1.
         22    1    3    3    0    0 -0.16059850150E+03 -0.11716411479E+03 -0.84144163738E+02  0.21586928630E+03  0.00000000000E+00 0.  1.
         22    1    3    3    0    0 -0.20571347152E+02 -0.42751347523E+02  0.37109834843E+02  0.60232863793E+02  0.00000000000E+00 0.  1.
</event>
<event>
 7    1  0.6294601E-006  0.1094436E+03  0.7818608E-02  0.1376672E+00
          2   -1    0    0  502    0  0.00000000000E+00  0.00000000000E+00  0.75519786466E+03  0.75519786466E+03  0.00000000000E+00 0. -1.
          1   -1    0    0  501    0 -0.00000000000E+00 -0.00000000000E+00 -0.19486491585E+03  0.19486491585E+03  0.00000000000E+00 0. -1.
         25    2    1    2    0    0 -0.29257660951E+02 -0.13243821135E+03  0.20000431508E+03  0.27207189412E+03  0.12500199587E+03 0.  0.
          2    1    1    2  501    0 -0.14734592702E+02  0.36128279131E+02 -0.15092569043E+03  0.15588753897E+03  0.00000000000E+00 0. -1.
          1    1    1    2  502    0  0.43992253654E+02  0.96309932215E+02  0.51125432415E+03  0.52210334742E+03  0.00000000000E+00 0. -1.
         22    1    3    3    0    0  0.33716269729E+02 -0.11206711866E+03  0.11228896296E+03  0.16218704366E+03  0.00000000000E+00 0. -1.
         22    1    3    3    0    0 -0.62973930680E+02 -0.20371092683E+02  0.87715352120E+02  0.10988485046E+03  0.00000000000E+00 0. -1.
</event>
<event>
 7    1  0.6294601E-006  0.1216987E+03  0.7818608E-02  0.1246518E+00
          2   -1    0    0  502    0  0.00000000000E+00  0.00000000000E+00  0.51976753715E+03  0.51976753715E+03  0.00000000000E+00 0. -1.
          1   -1    0    0  501    0 -0.00000000000E+00 -0.00000000000E+00 -0.15959026791E+04  0.15959026791E+04  0.00000000000E+00 0. -1.
         25    2    1    2    0    0 -0.17359491469E+03  0.95706886001E+02 -0.75932756477E+03  0.79466889984E+03  0.12500122929E+03 0.  0.
          2    1    1    2  501    0  0.11389406905E+03  0.98241513527E+01 -0.80749961690E+03  0.81555134983E+03  0.00000000000E+00 0. -1.
          1    1    1    2  502    0  0.59700845640E+02 -0.10553103735E+03  0.49069203975E+03  0.50544996655E+03  0.00000000000E+00 0. -1.
         22    1    3    3    0    0 -0.10219425963E+03  0.28831047376E+02 -0.19604405480E+03  0.22295328528E+03  0.00000000000E+00 0.  1.
         22    1    3    3    0    0 -0.71400655063E+02  0.66875838625E+02 -0.56328350997E+03  0.57171561456E+03  0.00000000000E+00 0.  1.
</event>
<event>
 7    1  0.6294601E-006  0.1263436E+03  0.7818608E-02  0.1268822E+00
          2   -1    0    0  502    0  0.00000000000E+00  0.00000000000E+00  0.70223787512E+03  0.70223787512E+03  0.00000000000E+00 0. -1.
          1   -1    0    0  501    0 -0.00000000000E+00 -0.00000000000E+00 -0.75973350273E+03  0.75973350273E+03  0.00000000000E+00 0. -1.
         25    2    1    2    0    0  0.18635443065E+03  0.58506196112E+02  0.59785344969E+02  0.23947946890E+03  0.12500071897E+03 0.  0.
          2    1    1    2  501    0 -0.12401365800E+03  0.41194357375E+01 -0.66053994441E+03  0.67209327871E+03  0.00000000000E+00 0. -1.
          1    1    1    2  502    0 -0.62340772645E+02 -0.62625631850E+02  0.54325897184E+03  0.55039863025E+03  0.00000000000E+00 0. -1.
         22    1    3    3    0    0  0.14329341255E+03  0.87629865794E+02  0.76925367855E+02  0.18474173237E+03  0.00000000000E+00 0.  1.
         22    1    3    3    0    0  0.43061018095E+02 -0.29123669682E+02 -0.17140022886E+02  0.54737736523E+02  0.00000000000E+00 0.  1.
</event>
<event>
 7    1  0.6294601E-006  0.1454953E+03  0.7818608E-02  0.1236225E+00
          2   -1    0    0  502    0  0.00000000000E+00  0.00000000000E+00  0.10492337687E+04  0.10492337687E+04  0.00000000000E+00 0. -1.
          1   -1    0    0  501    0 -0.00000000000E+00 -0.00000000000E+00 -0.14356616372E+03  0.14356616372E+03  0.00000000000E+00 0. -1.
         25    2    1    2    0    0  0.94616387970E+02  0.41217632711E+02  0.35076153116E+03  0.38640639004E+03  0.12500036960E+03 0.  0.
          2    1    1    2  501    0 -0.14565832331E+03  0.51832685667E+02 -0.72013048956E+02  0.17055454750E+03  0.00000000000E+00 0. -1.
          1    1    1    2  502    0  0.51041935335E+02 -0.93050318378E+02  0.62691912275E+03  0.63583899486E+03  0.00000000000E+00 0. -1.
         22    1    3    3    0    0  0.20997016963E+02  0.12674845160E+02 -0.22903978055E+01  0.24632749406E+02  0.00000000000E+00 0. -1.
         22    1    3    3    0    0  0.73619371007E+02  0.28542787551E+02  0.35305192897E+03  0.36177364063E+03  0.00000000000E+00 0. -1.
</event>
<event>
 7    1  0.6294601E-006  0.7549371E+02  0.7818608E-02  0.1432451E+00
          2   -1    0    0  502    0  0.00000000000E+00  0.00000000000E+00  0.22682579712E+03  0.22682579712E+03  0.00000000000E+00 0. -1.
          1   -1    0    0  501    0 -0.00000000000E+00 -0.00000000000E+00 -0.31761098829E+04  0.31761098829E+04  0.00000000000E+00 0. -1.
         25    2    1    2    0    0  0.40383125080E+02 -0.27142761323E+02 -0.99861219390E+03  0.10075802844E+04  0.12499675764E+03 0.  0.
          2    1    1    2  501    0  0.34007822937E+02  0.13171653662E+02 -0.21664138321E+04  0.21667207749E+04  0.00000000000E+00 0. -1.
          1    1    1    2  502    0 -0.74390948017E+02  0.13971107661E+02  0.21574194024E+03  0.22863462069E+03  0.00000000000E+00 0. -1.
         22    1    3    3    0    0  0.15126014705E+02  0.17718768925E+02 -0.31916851452E+02  0.39515016129E+02  0.00000000000E+00 0. -1.
         22    1    3    3    0    0  0.25257110375E+02 -0.44861530248E+02 -0.96669534245E+03  0.96806526827E+03  0.00000000000E+00 0. -1.
</event>
<event>
 7    1  0.6294601E-006  0.5247130E+02  0.7818608E-02  0.1514930E+00
          2   -1    0    0  502    0  0.00000000000E+00  0.00000000000E+00  0.97544213898E+03  0.97544213898E+03  0.00000000000E+00 0. -1.
          1   -1    0    0  501    0 -0.00000000000E+00 -0.00000000000E+00 -0.86682044600E+03  0.86682044600E+03  0.00000000000E+00 0. -1.
         25    2    1    2    0    0  0.81748430425E+01 -0.26300844541E+02  0.42553174069E+03  0.44436445541E+03  0.12499577759E+03 0.  0.
          2    1    1    2  501    0  0.14083042865E+02 -0.25508918040E+02 -0.85568470606E+03  0.85618067789E+03  0.00000000000E+00 0. -1.
          1    1    1    2  502    0 -0.22257885908E+02  0.51809762581E+02  0.53877465834E+03  0.54171745168E+03  0.00000000000E+00 0. -1.
         22    1    3    3    0    0 -0.31055146396E+02 -0.58575713302E+02  0.14729463349E+03  0.16152784702E+03  0.00000000000E+00 0. -1.
         22    1    3    3    0    0  0.39229989438E+02  0.32274868761E+02  0.27823710720E+03  0.28283660839E+03  0.00000000000E+00 0. -1.
</event>
<event>
 7    1  0.6294601E-006  0.1179672E+03  0.7818608E-02  0.1424449E+00
          2   -1    0    0  502    0  0.00000000000E+00  0.00000000000E+00  0.33709173248E+03  0.33709173248E+03  0.00000000000E+00 0. -1.
          1   -1    0    0  501    0 -0.00000000000E+00 -0.00000000000E+00 -0.22768294482E+03  0.22768294482E+03  0.00000000000E+00 0. -1.
         25    2    1    2    0    0 -0.90273550090E+02  0.71108997300E+02  0.84293189629E+02  0.18956359832E+03  0.12499285038E+03 0.  0.
          2    1    1    2  501    0  0.10655757092E+03 -0.52401867134E+02 -0.15395620382E+03  0.19442989557E+03  0.00000000000E+00 0. -1.
          1    1    1    2  502    0 -0.16284020826E+02 -0.18707130166E+02  0.17907180185E+03  0.18078118340E+03  0.00000000000E+00 0. -1.
         22    1    3    3    0    0  0.74435074544E+01  0.30646822309E+02  0.77397143946E+02  0.83576021751E+02  0.00000000000E+00 0.  1.
         22    1    3    3    0    0 -0.97717057545E+02  0.40462174991E+02  0.68960456837E+01  0.10598757657E+03  0.00000000000E+00 0.  1.
</event>
<event>
 7    1  0.6294601E-006  0.1394852E+03  0.7818608E-02  0.1245175E+00
          2   -1    0    0  502    0  0.00000000000E+00  0.00000000000E+00  0.83557218046E+03  0.83557218046E+03  0.00000000000E+00 0. -1.
          1   -1    0    0  501    0 -0.00000000000E+00 -0.00000000000E+00 -0.12967444995E+04  0.12967444995E+04  0.00000000000E+00 0. -1.
         25    2    1    2    0    0 -0.40576731789E+02  0.21000193425E+03  0.42019486197E+03  0.48779025368E+03  0.12501330330E+03 0.  0.
          2    1    1    2  501    0 -0.84430974932E+01 -0.10074241721E+03 -0.12514624492E+04  0.12555391600E+04  0.00000000000E+00 0. -1.
          1    1    1    2  502    0  0.49019829282E+02 -0.10925951704E+03  0.37009526824E+03  0.38898726624E+03  0.00000000000E+00 0. -1.
         22    1    3    3    0    0 -0.37962642391E+02  0.22074197006E+03  0.34200023722E+03  0.40881822589E+03  0.00000000000E+00 0. -1.
         22    1    3    3    0    0 -0.26140893984E+01 -0.10740035805E+02  0.78194624755E+02  0.78972027788E+02  0.00000000000E+00 0. -1.
</event>
<event>
 7    1  0.6294601E-006  0.9279176E+02  0.7818608E-02  0.1308415E+00
          2   -1    0    0  502    0  0.00000000000E+00  0.00000000000E+00  0.37414260712E+03  0.37414260712E+03  0.00000000000E+00 0. -1.
          1   -1    0    0  501    0 -0.00000000000E+00 -0.00000000000E+00 -0.68205589303E+03  0.68205589303E+03  0.00000000000E+00 0. -1.
         25    2    1    2    0    0 -0.99430034068E+02  0.12375736852E+03  0.61131316537E+02  0.21110235173E+03  0.12499978843E+03 0.  0.
          2    1    1    2  501    0  0.24534159620E+02 -0.88065345852E+02 -0.59624959159E+03  0.60321721262E+03  0.00000000000E+00 0. -1.
          1    1    1    2  502    0  0.74895874448E+02 -0.35692022667E+02  0.22720498914E+03  0.24187893580E+03  0.00000000000E+00 0. -1.
         22    1    3    3    0    0  0.27206328149E+02  0.45850665015E+02  0.18428489663E+02  0.56409901657E+02  0.00000000000E+00 0.  1.
         22    1    3    3    0    0 -0.12663636222E+03  0.77906703504E+02  0.42702826874E+02  0.15469245007E+03  0.00000000000E+00 0.  1.
</event>
<event>
 7    1  0.6294601E-006  0.2378155E+03  0.7818608E-02  0.1301165E+00
          2   -1    0    0  502    0  0.00000000000E+00  0.00000000000E+00  0.17312295338E+03  0.17312295338E+03  0.00000000000E+00 0. -1.
          1   -1    0    0  501    0 -0.00000000000E+00 -0.00000000000E+00 -0.56023360572E+03  0.56023360572E+03  0.00000000000E+00 0. -1.
         25    2    1    2    0    0  0.15187985183E+03 -0.17755521381E+03 -0.16192531601E+03  0.31054380531E+03  0.12499721479E+03 0.  0.
          2    1    1    2  501    0  0.29422727958E+02  0.18191090296E+02 -0.17225100230E+03  0.17569012630E+03  0.00000000000E+00 0. -1.
          1    1    1    2  502    0 -0.18130257979E+03  0.15936412352E+03 -0.52934334042E+02  0.24712262750E+03  0.00000000000E+00 0. -1.
         22    1    3    3    0    0  0.93831835024E+02 -0.12347528370E+03 -0.32058958876E+02  0.15836140878E+03  0.00000000000E+00 0. -1.
         22    1    3    3    0    0  0.58048016804E+02 -0.54079930115E+02 -0.12986635713E+03  0.15218239652E+03  0.00000000000E+00 0. -1.
</event>
<event>
 7    1  0.6294601E-006  0.7927419E+02  0.7818608E-02  0.1401002E+00
          2   -1    0    0  502    0  0.00000000000E+00  0.00000000000E+00  0.13211051588E+04  0.13211051588E+04  0.00000000000E+00 0. -1.
          1   -1    0    0  501    0 -0.00000000000E+00 -0.00000000000E+00 -0.40724180026E+03  0.40724180026E+03  0.00000000000E+00 0. -1.
         25    2    1    2    0    0 -0.89922216687E+02 -0.51278369052E+02  0.17050379648E+00  0.16230026171E+03  0.12500347872E+03 0.  0.
          2    1    1    2  501    0  0.11349065968E+02  0.42806369778E+02 -0.32340708344E+03  0.32642507289E+03  0.00000000000E+00 0. -1.
          1    1    1    2  502    0  0.78573150719E+02  0.84719992740E+01  0.12370999382E+04  0.12396216245E+04  0.00000000000E+00 0. -1.
         22    1    3    3    0    0 -0.48879062962E+02  0.37104210427E+02 -0.16243057789E+02  0.63480092579E+02  0.00000000000E+00 0. -1.
         22    1    3    3    0    0 -0.41043153725E+02 -0.88382579480E+02  0.16413561586E+02  0.98820169131E+02  0.00000000000E+00 0. -1.
</event>
<event>
 7    1  0.6294601E-006  0.1102203E+03  0.7818608E-02  0.1396184E+00
          2   -1    0    0  502    0  0.00000000000E+00  0.00000000000E+00  0.91772256523E+02  0.91772256523E+02  0.00000000000E+00 0. -1.
          1   -1    0    0  501    0 -0.00000000000E+00 -0.00000000000E+00 -0.28934385617E+03  0.28934385617E+03  0.00000000000E+00 0. -1.
         25    2    1    2    0    0  0.28864743374E+02  0.10004662524E+03 -0.15836758968E+03  0.22704185351E+03  0.12500083660E+03 0.  0.
          2    1    1    2  501    0  0.32752896849E+02 -0.47301588687E+01 -0.20817273783E+02  0.39095850709E+02  0.00000000000E+00 0. -1.
          1    1    1    2  502    0 -0.61617640223E+02 -0.95316466373E+02 -0.18386736184E+02  0.11497840848E+03  0.00000000000E+00 0. -1.
         22    1    3    3    0    0 -0.10470111159E+02 -0.18304356503E+02 -0.72802927793E+02  0.75795375782E+02  0.00000000000E+00 0. -1.
         22    1    3    3    0    0  0.39334854533E+02  0.11835098174E+03 -0.85564661888E+02  0.15124647773E+03  0.00000000000E+00 0. -1.
</event>
<event>
 7    1  0.6294601E-006  0.1447138E+03  0.7818608E-02  0.1374935E+00
          2   -1    0    0  502    0  0.00000000000E+00  0.00000000000E+00  0.25068032290E+03  0.25068032290E+03  0.00000000000E+00 0. -1.
          1   -1    0    0  501    0 -0.00000000000E+00 -0.00000000000E+00 -0.38752786397E+03  0.38752786397E+03  0.00000000000E+00 0. -1.
         25    2    1    2    0    0  0.12703239496E+03 -0.63612382597E+02 -0.18246475963E+02  0.19011178856E+03  0.12500317467E+03 0.  0.
          2    1    1    2  501    0  0.14380161445E+02  0.26250846912E+02 -0.24981448323E+03  0.25160121629E+03  0.00000000000E+00 0. -1.
          1    1    1    2  502    0 -0.14141255641E+03  0.37361535684E+02  0.13121341813E+03  0.19649518202E+03  0.00000000000E+00 0. -1.
         22    1    3    3    0    0  0.27270017989E+02 -0.83148383419E+02 -0.11035574969E+02  0.88199157940E+02  0.00000000000E+00 0. -1.
         22    1    3    3    0    0  0.99762376975E+02  0.19536000823E+02 -0.72109009941E+01  0.10191263063E+03  0.00000000000E+00 0. -1.
</event>
<event>
 7    1  0.6294601E-006  0.9765915E+02  0.7818608E-02  0.1333637E+00
          2   -1    0    0  502    0  0.00000000000E+00  0.00000000000E+00  0.97359119569E+03  0.97359119569E+03  0.00000000000E+00 0. -1.
          1   -1    0    0  501    0 -0.00000000000E+00 -0.00000000000E+00 -0.94465553783E+03  0.94465553783E+03  0.00000000000E+00 0. -1.
         25    2    1    2    0    0 -0.11617386957E+02 -0.13561373944E+03  0.50666267629E+03  0.53931320079E+03  0.12500244395E+03 0.  0.
          2    1    1    2  501    0 -0.33414686621E+02  0.91629661600E+02 -0.92355139256E+03  0.92868708986E+03  0.00000000000E+00 0. -1.
          1    1    1    2  502    0  0.45032073578E+02  0.43984077841E+02  0.44582437413E+03  0.45024644288E+03  0.00000000000E+00 0. -1.
         22    1    3    3    0    0  0.25921542215E+02 -0.55988487116E+02  0.67641639957E+02  0.91553418813E+02  0.00000000000E+00 0.  1.
         22    1    3    3    0    0 -0.37538929172E+02 -0.79625252324E+02  0.43902103633E+03  0.44775978197E+03  0.00000000000E+00 0.  1.
</event>
<event>
 7    1  0.6294601E-006  0.9161785E+02  0.7818608E-02  0.1405859E+00
          2   -1    0    0  502    0  0.00000000000E+00  0.00000000000E+00  0.84869790804E+03  0.84869790804E+03  0.00000000000E+00 0. -1.
          1   -1    0    0  501    0 -0.00000000000E+00 -0.00000000000E+00 -0.74542316692E+03  0.74542316692E+03  0.00000000000E+00 0. -1.
         25    2    1    2    0    0  0.22870656862E+02  0.50980548713E+02 -0.30974230120E+02  0.14038030143E+03  0.12500057122E+03 0.  0.
          2    1    1    2  501    0  0.15954395610E+02  0.33250799821E+02 -0.65651804672E+03  0.65755311884E+03  0.00000000000E+00 0. -1.
          1    1    1    2  502    0 -0.38825052472E+02 -0.84231348535E+02  0.79076701797E+03  0.79618765469E+03  0.00000000000E+00 0. -1.
         22    1    3    3    0    0  0.19160094655E+02  0.91615320862E+02 -0.89825692960E+01  0.94027457666E+02  0.00000000000E+00 0. -1.
         22    1    3    3    0    0  0.37105622064E+01 -0.40634772149E+02 -0.21991660824E+02  0.46352843767E+02  0.00000000000E+00 0. -1.
</event>
<event>
 7    1  0.6294601E-006  0.1698909E+03  0.7818608E-02  0.1353922E+00
          2   -1    0    0  502    0  0.00000000000E+00  0.00000000000E+00  0.15732386201E+04  0.15732386201E+04  0.00000000000E+00 0. -1.
          1   -1    0    0  501    0 -0.00000000000E+00 -0.00000000000E+00 -0.23562579208E+03  0.23562579208E+03  0.00000000000E+00 0. -1.
         25    2    1    2    0    0  0.68246576685E+02  0.18124050967E+03  0.52332391701E+03  0.57183788390E+03  0.12499970311E+03 0.  0.
          2    1    1    2  501    0 -0.13824043490E+02 -0.27057484065E+02 -0.20371856469E+03  0.20597200106E+03  0.00000000000E+00 0. -1.
          1    1    1    2  502    0 -0.54422533195E+02 -0.15418302560E+03  0.10180074757E+04  0.10310545272E+04  0.00000000000E+00 0. -1.
         22    1    3    3    0    0  0.10041651444E+03  0.14106394033E+03  0.34179042807E+03  0.38314906806E+03  0.00000000000E+00 0.  1.
         22    1    3    3    0    0 -0.32169937751E+02  0.40176569337E+02  0.18153348894E+03  0.18868881584E+03  0.00000000000E+00 0.  1.
</event>
<event>
 7    1  0.6294601E-006  0.7778025E+02  0.7818608E-02  0.1465833E+00
          2   -1    0    0  502    0  0.00000000000E+00  0.00000000000E+00  0.65909576154E+02  0.65909576154E+02  0.00000000000E+00 0. -1.
          1   -1    0    0  501    0 -0.00000000000E+00 -0.00000000000E+00 -0.24130349185E+04  0.24130349185E+04  0.00000000000E+00 0. -1.
         25    2    1    2    0    0  0.60331243135E+02 -0.85885315581E+02 -0.15086307678E+04  0.15174347082E+04  0.12500061506E+03 0.  0.
          2    1    1    2  501    0 -0.17109625440E+02  0.21747033007E+02 -0.87538347823E+03  0.87582070464E+03  0.00000000000E+00 0. -1.
          1    1    1    2  502    0 -0.43221617695E+02  0.64138282574E+02  0.36888903678E+02  0.85689081815E+02  0.00000000000E+00 0. -1.
         22    1    3    3    0    0  0.50064432296E+02 -0.93045797840E+02 -0.14957376918E+04  0.14994649748E+04  0.00000000000E+00 0.  1.
         22    1    3    3    0    0  0.10266810839E+02  0.71604822589E+01 -0.12893076004E+02  0.17969733438E+02  0.00000000000E+00 0.  1.
</event>
<event>
 7    1  0.6294601E-006  0.1175633E+03  0.7818608E-02  0.1312868E+00
          2   -1    0    0  502    0  0.00000000000E+00  0.00000000000E+00  0.25925470386E+04  0.25925470386E+04  0.00000000000E+00 0. -1.
          1   -1    0    0  501    0 -0.00000000000E+00 -0.00000000000E+00 -0.64968248110E+02  0.64968248110E+02  0.00000000000E+00 0. -1.
         25    2    1    2    0    0 -0.15182042706E+02 -0.11522621252E+03  0.10275143821E+04  0.10415945855E+04  0.12500360260E+03 0.  0.
          2    1    1    2  501    0 -0.47373100758E+02  0.10870638898E+03  0.41170036646E+01  0.11865175683E+03  0.00000000000E+00 0. -1.
          1    1    1    2  502    0  0.62555143464E+02  0.65198235385E+01  0.14959474047E+04  0.14972689444E+04  0.00000000000E+00 0. -1.
         22    1    3    3    0    0 -0.31751219651E+01 -0.12741199965E+03  0.10063135495E+04  0.10143524333E+04  0.00000000000E+00 0. -1.
         22    1    3    3    0    0 -0.12006920741E+02  0.12185787136E+02  0.21200832634E+02  0.27242152231E+02  0.00000000000E+00 0. -1.
</event>
<event>
 7    1  0.6294601E-006  0.6745738E+02  0.7818608E-02  0.1491338E+00
          2   -1    0    0  502    0  0.00000000000E+00  0.00000000000E+00  0.16793445796E+04  0.16793445796E+04  0.00000000000E+00 0. -1.
          1   -1    0    0  501    0 -0.00000000000E+00 -0.00000000000E+00 -0.11740282551E+03  0.11740282551E+03  0.00000000000E+00 0. -1.
         25    2    1    2    0    0  0.35171898448E+02 -0.34638625553E+02  0.10927771031E+04  0.11010101567E+04  0.12499868512E+03 0.  0.
          2    1    1    2  501    0 -0.61176826826E+02  0.28877294155E+02 -0.10284928016E+03  0.12310352021E+03  0.00000000000E+00 0. -1.
          1    1    1    2  502    0  0.26004928378E+02  0.57613313971E+01  0.57201393113E+03  0.57263372817E+03  0.00000000000E+00 0. -1.
         22    1    3    3    0    0  0.59607909496E+02 -0.20596838128E+02  0.25237054085E+03  0.26013116404E+03  0.00000000000E+00 0.  1.
         22    1    3    3    0    0 -0.24436011048E+02 -0.14041787424E+02  0.84040656226E+03  0.84087899267E+03  0.00000000000E+00 0.  1.
</event>
<event>
 7    1  0.6294601E-006  0.8089057E+02  0.7818608E-02  0.1361254E+00
          2   -1    0    0  502    0  0.00000000000E+00  0.00000000000E+00  0.19650287175E+04  0.19650287175E+04  0.00000000000E+00 0. -1.
          1   -1    0    0  501    0 -0.00000000000E+00 -0.00000000000E+00 -0.16383415442E+03  0.16383415442E+03  0.00000000000E+00 0. -1.
         25    2    1    2    0    0 -0.34141931825E+02 -0.37218619137E+02  0.20018416028E+02  0.13629689326E+03  0.12500083605E+03 0.  0.
          2    1    1    2  501    0  0.89743749120E+02  0.14701186229E+02 -0.85562354274E+02  0.12486385326E+03  0.00000000000E+00 0. -1.
          1    1    1    2  502    0 -0.55601817295E+02  0.22517432908E+02  0.18667385014E+04  0.18677021254E+04  0.00000000000E+00 0. -1.
         22    1    3    3    0    0  0.16288443925E+02  0.46392212792E+01 -0.42482404060E+02  0.45733909020E+02  0.00000000000E+00 0.  1.
         22    1    3    3    0    0 -0.50430375749E+02 -0.41857840416E+02  0.62500820088E+02  0.90562984239E+02  0.00000000000E+00 0.  1.
</event>
<event>
 7    1  0.6294601E-006  0.1458693E+03  0.7818608E-02  0.1280141E+00
          2   -1    0    0  502    0  0.00000000000E+00  0.00000000000E+00  0.11766460360E+04  0.11766460360E+04  0.00000000000E+00 0. -1.
          1   -1    0    0  501    0 -0.00000000000E+00 -0.00000000000E+00 -0.59749868551E+03  0.59749868551E+03  0.00000000000E+00 0. -1.
         25    2    1    2    0    0  0.99091599786E+02  0.35609502599E+02 -0.67614757170E+02  0.17686671964E+03  0.12499159695E+03 0.  0.
          2    1    1    2  501    0 -0.15684281787E+03  0.15168560651E+01 -0.46122504734E+03  0.48716579792E+03  0.00000000000E+00 0. -1.
          1    1    1    2  502    0  0.57751218085E+02 -0.37126358664E+02  0.11079871550E+04  0.11101122040E+04  0.00000000000E+00 0. -1.
         22    1    3    3    0    0  0.15384561371E+02  0.58735460105E+02 -0.66455761555E+02  0.90016149919E+02  0.00000000000E+00 0. -1.
         22    1    3    3    0    0  0.83707038415E+02 -0.23125957506E+02 -0.11589956143E+01  0.86850569726E+02  0.00000000000E+00 0. -1.
</event>
<event>
 7    1  0.6294601E-006  0.4247378E+02  0.7818608E-02  0.1577807E+00
          2   -1    0    0  502    0  0.00000000000E+00  0.00000000000E+00  0.30185476277E+02  0.30185476277E+02  0.00000000000E+00 0. -1.
          1   -1    0    0  501    0 -0.00000000000E+00 -0.00000000000E+00 -0.18957261955E+04  0.18957261955E+04  0.00000000000E+00 0. -1.
         25    2    1    2    0    0  0.19468488467E+02 -0.57706395684E+02 -0.51137480726E+03  0.52994030155E+03  0.12499391810E+03 0.  0.
          2    1    1    2  501    0 -0.14311289262E+01  0.41896377717E+02 -0.13677594296E+04  0.13684016998E+04  0.00000000000E+00 0. -1.
          1    1    1    2  502    0 -0.18037359541E+02  0.15810017967E+02  0.13593517656E+02  0.27569670466E+02  0.00000000000E+00 0. -1.
         22    1    3    3    0    0  0.47512372379E+02 -0.34825983081E+02 -0.47495618252E+03  0.47859549720E+03  0.00000000000E+00 0.  1.
         22    1    3    3    0    0 -0.28043883911E+02 -0.22880412604E+02 -0.36418624735E+02  0.51344804346E+02  0.00000000000E+00 0.  1.
</event>
<event>
 7    1  0.6294601E-006  0.1099691E+03  0.7818608E-02  0.1281170E+00
          2   -1    0    0  502    0  0.00000000000E+00  0.00000000000E+00  0.14953563074E+04  0.14953563074E+04  0.00000000000E+00 0. -1.
          1   -1    0    0  501    0 -0.00000000000E+00 -0.00000000000E+00 -0.13860853437E+04  0.13860853437E+04  0.00000000000E+00 0. -1.
         25    2    1    2    0    0 -0.34570465934E+02 -0.23339861901E+02  0.34964957253E+03  0.37365691057E+03  0.12499918791E+03 0.  0.
          2    1    1    2  501    0 -0.70372305733E+02 -0.56396342579E+02 -0.13687622770E+04  0.13717299223E+04  0.00000000000E+00 0. -1.
          1    1    1    2  502    0  0.10494277167E+03  0.79736204479E+02  0.11283836681E+04  0.11360548183E+04  0.00000000000E+00 0. -1.
         22    1    3    3    0    0  0.32830702699E+02 -0.10686226081E+02  0.25187029200E+03  0.25422567624E+03  0.00000000000E+00 0.  1.
         22    1    3    3    0    0 -0.67401168633E+02 -0.12653635819E+02  0.97779280535E+02  0.11943123433E+03  0.00000000000E+00 0.  1.
</event>
<event>
 7    1  0.6294601E-006  0.8582070E+02  0.7818608E-02  0.1318753E+00
          2   -1    0    0  502    0  0.00000000000E+00  0.00000000000E+00  0.14080080324E+04  0.14080080324E+04  0.00000000000E+00 0. -1.
          1   -1    0    0  501    0 -0.00000000000E+00 -0.00000000000E+00 -0.63853726420E+03  0.63853726420E+03  0.00000000000E+00 0. -1.
         25    2    1    2    0    0 -0.19349829004E+02 -0.13301671613E+03  0.20130439888E+03  0.27242919984E+03  0.12500538093E+03 0.  0.
          2    1    1    2  501    0 -0.39153775458E+02  0.71724803123E+02 -0.59866304231E+03  0.60421428628E+03  0.00000000000E+00 0. -1.
          1    1    1    2  502    0  0.58503604462E+02  0.61291913005E+02  0.11668294117E+04  0.11699018105E+04  0.00000000000E+00 0. -1.
         22    1    3    3    0    0  0.49687153695E+02 -0.26612714932E+02  0.69917890435E+02  0.89808469763E+02  0.00000000000E+00 0. -1.
         22    1    3    3    0    0 -0.69036982699E+02 -0.10640400120E+03  0.13138650845E+03  0.18262073007E+03  0.00000000000E+00 0. -1.
</event>
<event>
 7    1  0.6294601E-006  0.1458823E+03  0.7818608E-02  0.1360000E+00
          2   -1    0    0  502    0  0.00000000000E+00  0.00000000000E+00  0.67348764768E+03  0.67348764768E+03  0.00000000000E+00 0. -1.
          1   -1    0    0  501    0 -0.00000000000E+00 -0.00000000000E+00 -0.44365305909E+03  0.44365305909E+03  0.00000000000E+00 0. -1.
         25    2    1    2    0    0  0.16511275738E+03 -0.43688537438E+02  0.13157209799E+03  0.24921883012E+03  0.12501158892E+03 0.  0.
          2    1    1    2  501    0 -0.25105992581E+02  0.22353074642E+02 -0.37367946627E+03  0.37518837178E+03  0.00000000000E+00 0. -1.
          1    1    1    2  502    0 -0.14000676480E+03  0.21335462796E+02  0.47194195687E+03  0.49273350486E+03  0.00000000000E+00 0. -1.
         22    1    3    3    0    0  0.62991707022E+02 -0.20994511274E+02  0.12840753061E+03  0.14455870287E+03  0.00000000000E+00 0. -1.
         22    1    3    3    0    0  0.10212105036E+03 -0.22694026164E+02  0.31645673772E+01  0.10466012725E+03  0.00000000000E+00 0. -1.
</event>
<event>
 7    1  0.6294601E-006  0.1928587E+03  0.7818608E-02  0.1277096E+00
          2   -1    0    0  502    0  0.00000000000E+00  0.00000000000E+00  0.55600609250E+02  0.55600609250E+02  0.00000000000E+00 0. -1.
          1   -1    0    0  501    0 -0.00000000000E+00 -0.00000000000E+00 -0.36213988376E+04  0.36213988376E+04  0.00000000000E+00 0. -1.
         25    2    1    2    0    0  0.22460554598E+03  0.33192457515E+02 -0.67708479883E+03  0.72499548447E+03  0.12500094870E+03 0.  0.
          2    1    1    2  501    0 -0.50876668333E+02  0.16410797637E+02 -0.26600070453E+04  0.26605441606E+04  0.00000000000E+00 0. -1.
          1    1    1    2  502    0 -0.17372887765E+03 -0.49603255152E+02 -0.22870638423E+03  0.29145980175E+03  0.00000000000E+00 0. -1.
         22    1    3    3    0    0  0.15570382465E+02 -0.13377581697E+02 -0.72705435183E+01  0.21777449465E+02  0.00000000000E+00 0. -1.
         22    1    3    3    0    0  0.20903516351E+03  0.46570039212E+02 -0.66981425531E+03  0.70321803501E+03  0.00000000000E+00 0. -1.
</event>
<event>
 7    1  0.6294601E-006  0.4460115E+03  0.7818608E-02  0.1252386E+00
          2   -1    0    0  502    0  0.00000000000E+00  0.00000000000E+00  0.10598422058E+04  0.10598422058E+04  0.00000000000E+00 0. -1.
          1   -1    0    0  501    0 -0.00000000000E+00 -0.00000000000E+00 -0.76173734115E+03  0.76173734115E+03  0.00000000000E+00 0. -1.
         25    2    1    2    0    0  0.30824022134E+03  0.35262209365E+03 -0.53697795875E+02  0.48771044125E+03  0.12499458485E+03 0.  0.
          2    1    1    2  501    0 -0.26302812632E+02 -0.13168570751E+02 -0.43274308402E+03  0.43374165810E+03  0.00000000000E+00 0. -1.
          1    1    1    2  502    0 -0.28193740871E+03 -0.33945352290E+03  0.78454574452E+03  0.90012744758E+03  0.00000000000E+00 0. -1.
         22    1    3    3    0    0  0.16630480175E+03  0.27475190112E+03 -0.54847742443E+02  0.32581308921E+03  0.00000000000E+00 0. -1.
         22    1    3    3    0    0  0.14193541959E+03  0.77870192538E+02  0.11499465682E+01  0.16189735204E+03  0.00000000000E+00 0. -1.
</event>
<event>
 7    1  0.6294601E-006  0.2275044E+03  0.7818608E-02  0.1177805E+00
          2   -1    0    0  502    0  0.00000000000E+00  0.00000000000E+00  0.10262957773E+04  0.10262957773E+04  0.00000000000E+00 0. -1.
          1   -1    0    0  501    0 -0.00000000000E+00 -0.00000000000E+00 -0.70817044764E+03  0.70817044764E+03  0.00000000000E+00 0. -1.
         25    2    1    2    0    0 -0.11015883834E+03 -0.60703802424E+02  0.17640079632E+02  0.17820085308E+03  0.12499780132E+03 0.  0.
          2    1    1    2  501    0 -0.12542065451E+03 -0.20544364448E+02 -0.60443919747E+03  0.61765617857E+03  0.00000000000E+00 0. -1.
          1    1    1    2  502    0  0.23557949285E+03  0.81248166872E+02  0.90492444750E+03  0.93860919330E+03  0.00000000000E+00 0. -1.
         22    1    3    3    0    0 -0.14224628390E+02 -0.35057757547E+02 -0.46528688803E+02  0.59969202920E+02  0.00000000000E+00 0. -1.
         22    1    3    3    0    0 -0.95934209951E+02 -0.25646044876E+02  0.64168768435E+02  0.11823165016E+03  0.00000000000E+00 0. -1.
</event>
<event>
 7    1  0.6294601E-006  0.6304375E+02  0.7818608E-02  0.1491380E+00
          2   -1    0    0  502    0  0.00000000000E+00  0.00000000000E+00  0.25177828707E+04  0.25177828707E+04  0.00000000000E+00 0. -1.
          1   -1    0    0  501    0 -0.00000000000E+00 -0.00000000000E+00 -0.25271452479E+02  0.25271452479E+02  0.00000000000E+00 0. -1.
         25    2    1    2    0    0  0.69839616745E+02 -0.42433775736E+02  0.11628196471E+04  0.11723705660E+04  0.12500005984E+03 0.  0.
          2    1    1    2  501    0 -0.60451150785E+02  0.15533119424E+02  0.27540736968E+02  0.68221049706E+02  0.00000000000E+00 0. -1.
          1    1    1    2  502    0 -0.93884659607E+01  0.26900656312E+02  0.13021510341E+04  0.13024627074E+04  0.00000000000E+00 0. -1.
         22    1    3    3    0    0  0.85510487166E+02 -0.70932341435E+02  0.73898833006E+03  0.74729324394E+03  0.00000000000E+00 0. -1.
         22    1    3    3    0    0 -0.15670870421E+02  0.28498565700E+02  0.42383131706E+03  0.42507732208E+03  0.00000000000E+00 0. -1.
</event>
<event>
 7    1  0.6294601E-006  0.4705584E+02  0.7818608E-02  0.1505155E+00
          2   -1    0    0  502    0  0.00000000000E+00  0.00000000000E+00  0.16423801999E+04  0.16423801999E+04  0.00000000000E+00 0. -1.
          1   -1    0    0  501    0 -0.00000000000E+00 -0.00000000000E+00 -0.49245096046E+03  0.49245096046E+03  0.00000000000E+00 0. -1.
         25    2    1    2    0    0 -0.18393023981E+02  0.17105471809E+02  0.12560885199E+03  0.17897891543E+03  0.12499987189E+03 0.  0.
          2    1    1    2  501    0  0.16871897620E+02  0.30341634826E+02 -0.46474021734E+03  0.46603513317E+03  0.00000000000E+00 0. -1.
          1    1    1    2  502    0  0.15211263606E+01 -0.47447106635E+02  0.14890606048E+04  0.14898171118E+04  0.00000000000E+00 0. -1.
         22    1    3    3    0    0 -0.10324236963E+02  0.64555741422E+02  0.11074956758E+03  0.12860598874E+03  0.00000000000E+00 0. -1.
         22    1    3    3    0    0 -0.80687870176E+01 -0.47450269613E+02  0.14859284404E+02  0.50372926689E+02  0.00000000000E+00 0. -1.
</event>
<event>
 7    1  0.6294601E-006  0.1104481E+03  0.7818608E-02  0.1325089E+00
          2   -1    0    0  502    0  0.00000000000E+00  0.00000000000E+00  0.50591660410E+03  0.50591660410E+03  0.00000000000E+00 0. -1.
          1   -1    0    0  501    0 -0.00000000000E+00 -0.00000000000E+00 -0.14649745179E+03  0.14649745179E+03  0.00000000000E+00 0. -1.
         25    2    1    2    0    0  0.52324279811E+02  0.25310945734E+02  0.18915549934E+03  0.23405303361E+03  0.12499018113E+03 0.  0.
          2    1    1    2  501    0 -0.10020845326E+03 -0.61482108320E+02 -0.92022009689E+02  0.14929780312E+03  0.00000000000E+00 0. -1.
          1    1    1    2  502    0  0.47884173448E+02  0.36171162586E+02  0.26228566267E+03  0.26906321917E+03  0.00000000000E+00 0. -1.
         22    1    3    3    0    0 -0.92468995096E+01 -0.21092875536E+00 -0.15923557173E+02  0.18414920976E+02  0.00000000000E+00 0.  1.
         22    1    3    3    0    0  0.61571179321E+02  0.25521874489E+02  0.20507905651E+03  0.21563811263E+03  0.00000000000E+00 0.  1.
</event>
<event>
 7    1  0.6294601E-006  0.6598784E+02  0.7818608E-02  0.1417519E+00
          2   -1    0    0  502    0  0.00000000000E+00  0.00000000000E+00  0.12237363910E+04  0.12237363910E+04  0.00000000000E+00 0. -1.
          1   -1    0    0  501    0 -0.00000000000E+00 -0.00000000000E+00 -0.13140194293E+04  0.13140194293E+04  0.00000000000E+00 0. -1.
         25    2    1    2    0    0  0.10890682161E+03  0.19045485353E+02  0.25525767501E+02  0.16882283797E+03  0.12500463795E+03 0.  0.
          2    1    1    2  501    0 -0.46743431798E+02  0.13112330679E+01 -0.12409806669E+04  0.12418613785E+04  0.00000000000E+00 0. -1.
          1    1    1    2  502    0 -0.62163389813E+02 -0.20356718421E+02  0.11251718612E+04  0.11270716039E+04  0.00000000000E+00 0. -1.
         22    1    3    3    0    0  0.81441293251E+02  0.71039618162E+02  0.15716980150E+02  0.10920776099E+03  0.00000000000E+00 0. -1.
         22    1    3    3    0    0  0.27465528360E+02 -0.51994132809E+02  0.98087873514E+01  0.59615076985E+02  0.00000000000E+00 0. -1.
</event>
<event>
 7    1  0.6294601E-006  0.7050029E+02  0.7818608E-02  0.1472971E+00
          2   -1    0    0  502    0  0.00000000000E+00  0.00000000000E+00  0.31892879364E+03  0.31892879364E+03  0.00000000000E+00 0. -1.
          1   -1    0    0  501    0 -0.00000000000E+00 -0.00000000000E+00 -0.42373062830E+03  0.42373062830E+03  0.00000000000E+00 0. -1.
         25    2    1    2    0    0 -0.30431309521E+02 -0.36557280744E+02  0.42393272225E+02  0.14030372218E+03  0.12500178220E+03 0.  0.
          2    1    1    2  501    0 -0.28844447026E+01 -0.28861509194E+02 -0.36826979202E+03  0.36941026847E+03  0.00000000000E+00 0. -1.
          1    1    1    2  502    0  0.33315754224E+02  0.65418789938E+02  0.22107468513E+03  0.23294543130E+03  0.00000000000E+00 0. -1.
         22    1    3    3    0    0 -0.23434759630E+02  0.10291323835E+02  0.77323245693E+02  0.81449270284E+02  0.00000000000E+00 0. -1.
         22    1    3    3    0    0 -0.69965498907E+01 -0.46848604579E+02 -0.34929973468E+02  0.58854451895E+02  0.00000000000E+00 0. -1.
</event>
<event>
 7    1  0.6294601E-006  0.2589710E+03  0.7818608E-02  0.1204248E+00
          2   -1    0    0  502    0  0.00000000000E+00  0.00000000000E+00  0.33359708396E+04  0.33359708396E+04  0.00000000000E+00 0. -1.
          1   -1    0    0  501    0 -0.00000000000E+00 -0.00000000000E+00 -0.42125139442E+03  0.42125139442E+03  0.00000000000E+00 0. -1.
         25    2    1    2    0    0  0.40652901982E+02 -0.21215049429E+03  0.33786654408E+03  0.42004761749E+03  0.12500283470E+03 0.  0.
          2    1    1    2  501    0 -0.12051518112E+03  0.23620661453E+03 -0.33324863300E+03  0.42587806356E+03  0.00000000000E+00 0. -1.
          1    1    1    2  502    0  0.79862279136E+02 -0.24056120238E+02  0.29101015341E+04  0.29112965530E+04  0.00000000000E+00 0. -1.
         22    1    3    3    0    0  0.11144506966E+02 -0.20475735347E+03  0.23076964990E+03  0.30871411557E+03  0.00000000000E+00 0. -1.
         22    1    3    3    0    0  0.29508395016E+02 -0.73931408224E+01  0.10709689418E+03  0.11133350192E+03  0.00000000000E+00 0. -1.
</event>
<event>
 7    1  0.6294601E-006  0.1674494E+03  0.7818608E-02  0.1181830E+00
          2   -1    0    0  502    0  0.00000000000E+00  0.00000000000E+00  0.23700956209E+04  0.23700956209E+04  0.00000000000E+00 0. -1.
          1   -1    0    0  501    0 -0.00000000000E+00 -0.00000000000E+00 -0.77194466085E+03  0.77194466085E+03  0.00000000000E+00 0. -1.
         25    2    1    2    0    0 -0.22255996045E+02 -0.13892282511E+02 -0.13086506022E+03  0.18286335780E+03  0.12500007507E+03 0.  0.
          2    1    1    2  501    0 -0.81321741847E+02  0.14637644127E+03 -0.60059648178E+03  0.62350254385E+03  0.00000000000E+00 0. -1.
          1    1    1    2  502    0  0.10357773789E+03 -0.13248415876E+03  0.23296125020E+04  0.23356743801E+04  0.00000000000E+00 0. -1.
         22    1    3    3    0    0  0.17429759789E+02 -0.18856732511E+02 -0.13958624903E+03  0.14192848130E+03  0.00000000000E+00 0.  1.
         22    1    3    3    0    0 -0.39685755833E+02  0.49644500001E+01  0.87211888123E+01  0.40934876501E+02  0.00000000000E+00 0.  1.
</event>
<event>
 7    1  0.6294601E-006  0.1582995E+03  0.7818608E-02  0.1264577E+00
          2   -1    0    0  502    0  0.00000000000E+00  0.00000000000E+00  0.36088618702E+04  0.36088618702E+04  0.00000000000E+00 0. -1.
          1   -1    0    0  501    0 -0.00000000000E+00 -0.00000000000E+00 -0.12302239063E+03  0.12302239063E+03  0.00000000000E+00 0. -1.
         25    2    1    2    0    0  0.74533419005E+02  0.66449229241E+02  0.11475916412E+03  0.19688889752E+03  0.12499936640E+03 0.  0.
          2    1    1    2  501    0  0.73455919821E+02 -0.24923122538E+01 -0.63199338471E+02  0.96933689501E+02  0.00000000000E+00 0. -1.
          1    1    1    2  502    0 -0.14798933883E+03 -0.63956916987E+02  0.34342796539E+04  0.34380616738E+04  0.00000000000E+00 0. -1.
         22    1    3    3    0    0  0.50244813289E+02  0.64072461192E+02  0.19258150617E+01  0.81446487397E+02  0.00000000000E+00 0. -1.
         22    1    3    3    0    0  0.24288605716E+02  0.23767680484E+01  0.11283334906E+03  0.11544241012E+03  0.00000000000E+00 0. -1.
</event>
<event>
 7    1  0.6294601E-006  0.5413028E+02  0.7818608E-02  0.1497144E+00
          2   -1    0    0  502    0  0.00000000000E+00  0.00000000000E+00  0.85156964330E+03  0.85156964330E+03  0.00000000000E+00 0. -1.
          1   -1    0    0  501    0 -0.00000000000E+00 -0.00000000000E+00 -0.77479232514E+02  0.77479232514E+02  0.00000000000E+00 0. -1.
         25    2    1    2    0    0  0.36672479262E+02  0.39747703827E+02  0.14816118395E+03  0.20125034549E+03  0.12500085774E+03 0.  0.
          2    1    1    2  501    0 -0.82713457817E+01 -0.54239828965E+02 -0.35662814643E+02  0.65438601417E+02  0.00000000000E+00 0. -1.
          1    1    1    2  502    0 -0.28401133481E+02  0.14492125138E+02  0.66159204147E+03  0.66235992890E+03  0.00000000000E+00 0. -1.
         22    1    3    3    0    0  0.19608571432E+02  0.84994751894E+02  0.85986171986E+02  0.12248357317E+03  0.00000000000E+00 0. -1.
         22    1    3    3    0    0  0.17063907831E+02 -0.45247048068E+02  0.62175011967E+02  0.78766772324E+02  0.00000000000E+00 0. -1.
</event>
<event>
 7    1  0.6294601E-006  0.1052271E+03  0.7818608E-02  0.1275531E+00
          2   -1    0    0  502    0  0.00000000000E+00  0.00000000000E+00  0.15209923579E+04  0.15209923579E+04  0.00000000000E+00 0. -1.
          1   -1    0    0  501    0 -0.00000000000E+00 -0.00000000000E+00 -0.10655054501E+04  0.10655054501E+04  0.00000000000E+00 0. -1.
         25    2    1    2    0    0  0.20494940939E+02  0.79047560332E+02  0.61198060923E+03  0.62993150107E+03  0.12499948227E+03 0.  0.
          2    1    1    2  501    0  0.96546795630E+02 -0.23878272326E+02 -0.10495164133E+04  0.10542182684E+04  0.00000000000E+00 0. -1.
          1    1    1    2  502    0 -0.11704173657E+03 -0.55169288007E+02  0.89302271191E+03  0.90234803841E+03  0.00000000000E+00 0. -1.
         22    1    3    3    0    0 -0.70921690716E+01  0.91327494820E+02  0.24258751635E+03  0.25930621524E+03  0.00000000000E+00 0. -1.
         22    1    3    3    0    0  0.27587110010E+02 -0.12279934488E+02  0.36939309288E+03  0.37062528583E+03  0.00000000000E+00 0. -1.
</event>
<event>
 7    1  0.6294601E-006  0.3425342E+03  0.7818608E-02  0.1182947E+00
          2   -1    0    0  502    0  0.00000000000E+00  0.00000000000E+00  0.62280440967E+03  0.62280440967E+03  0.00000000000E+00 0. -1.
          1   -1    0    0  501    0 -0.00000000000E+00 -0.00000000000E+00 -0.12180515532E+04  0.12180515532E+04  0.00000000000E+00 0. -1.
         25    2    1    2    0    0  0.37942419655E+03  0.16589091182E+03 -0.38800544672E+03  0.58108111332E+03  0.12499807204E+03 0.  0.
          2    1    1    2  501    0 -0.74954802900E+02 -0.27014994628E+02 -0.67773839878E+03  0.68240557559E+03  0.00000000000E+00 0. -1.
          1    1    1    2  502    0 -0.30446939365E+03 -0.13887591719E+03  0.47049670193E+03  0.57736927401E+03  0.00000000000E+00 0. -1.
         22    1    3    3    0    0  0.74554763678E+02  0.75671870170E+02 -0.15055540181E+03  0.18425952821E+03  0.00000000000E+00 0. -1.
         22    1    3    3    0    0  0.30486943287E+03  0.90219041646E+02 -0.23745004491E+03  0.39682158511E+03  0.00000000000E+00 0. -1.
</event>
<event>
 7    1  0.6294601E-006  0.4181914E+02  0.7818608E-02  0.1552806E+00
          2   -1    0    0  502    0  0.00000000000E+00  0.00000000000E+00  0.11618302801E+04  0.11618302801E+04  0.00000000000E+00 0. -1.
          1   -1    0    0  501    0 -0.00000000000E+00 -0.00000000000E+00 -0.58326042660E+02  0.58326042660E+02  0.00000000000E+00 0. -1.
         25    2    1    2    0    0  0.31463927804E+02 -0.13620143287E+02  0.20458725970E+03  0.24219113752E+03  0.12500045282E+03 0.  0.
          2    1    1    2  501    0 -0.40473930223E+02 -0.13431806175E+02 -0.27737840828E+02  0.50871802196E+02  0.00000000000E+00 0. -1.
          1    1    1    2  502    0  0.90100024198E+01  0.27051949462E+02  0.92665481858E+03  0.92709338306E+03  0.00000000000E+00 0. -1.
         22    1    3    3    0    0  0.58627880494E+02 -0.43362487356E+02  0.67708432126E+02  0.99508620037E+02  0.00000000000E+00 0.  1.
         22    1    3    3    0    0 -0.27163952690E+02  0.29742344069E+02  0.13687882758E+03  0.14268251748E+03  0.00000000000E+00 0.  1.
</event>
<event>
 7    1  0.6294601E-006  0.4144863E+02  0.7818608E-02  0.1560069E+00
          2   -1    0    0  502    0  0.00000000000E+00  0.00000000000E+00  0.49550041885E+03  0.49550041885E+03  0.00000000000E+00 0. -1.
          1   -1    0    0  501    0 -0.00000000000E+00 -0.00000000000E+00 -0.14332531355E+04  0.14332531355E+04  0.00000000000E+00 0. -1.
         25    2    1    2    0    0  0.67896123017E+02 -0.76144476020E+01  0.44173364162E+03  0.46414515577E+03  0.12503700315E+03 0.  0.
          2    1    1    2  501    0 -0.40459580662E+02  0.89187274632E+01 -0.14172812459E+04  0.14178866849E+04  0.00000000000E+00 0. -1.
          1    1    1    2  502    0 -0.27436542355E+02 -0.13042798612E+01  0.37794887584E+02  0.46721713687E+02  0.00000000000E+00 0. -1.
         22    1    3    3    0    0  0.57758421285E+02 -0.56625716211E+02  0.35415586658E+03  0.36327521908E+03  0.00000000000E+00 0.  1.
         22    1    3    3    0    0  0.10137701732E+02  0.49011268609E+02  0.87577775035E+02  0.10086993669E+03  0.00000000000E+00 0.  1.
</event>
<event>
 7    1  0.6294601E-006  0.3861708E+03  0.7818608E-02  0.1148466E+00
          2   -1    0    0  502    0  0.00000000000E+00  0.00000000000E+00  0.27888161480E+04  0.27888161480E+04  0.00000000000E+00 0. -1.
          1   -1    0    0  501    0 -0.00000000000E+00 -0.00000000000E+00 -0.32195774215E+04  0.32195774215E+04  0.00000000000E+00 0. -1.
         25    2    1    2    0    0  0.29128649645E+03 -0.30060913120E+03  0.36783409430E+03  0.57108641313E+03  0.12499639019E+03 0.  0.
          2    1    1    2  501    0 -0.32840022005E+03  0.20221841512E+03 -0.31048225519E+04  0.31286837601E+04  0.00000000000E+00 0. -1.
          1    1    1    2  502    0  0.37113723596E+02  0.98390716073E+02  0.23062271840E+04  0.23086233963E+04  0.00000000000E+00 0. -1.
         22    1    3    3    0    0  0.26864256192E+03 -0.23987226589E+03  0.35360638369E+03  0.50472270070E+03  0.00000000000E+00 0.  1.
         22    1    3    3    0    0  0.22643934537E+02 -0.60736865303E+02  0.14227710608E+02  0.66363712428E+02  0.00000000000E+00 0.  1.
</event>
<event>
 7    1  0.6294601E-006  0.2503597E+03  0.7818608E-02  0.1254369E+00
          2   -1    0    0  502    0  0.00000000000E+00  0.00000000000E+00  0.23003414065E+04  0.23003414065E+04  0.00000000000E+00 0. -1.
          1   -1    0    0  501    0 -0.00000000000E+00 -0.00000000000E+00 -0.42823847562E+03  0.42823847562E+03  0.00000000000E+00 0. -1.
         25    2    1    2    0    0 -0.16066709221E+03  0.24273189368E+03  0.67855802850E+03  0.74886519587E+03  0.12500158727E+03 0.  0.
          2    1    1    2  501    0  0.31197176702E+02 -0.40824649841E+02 -0.38229176075E+03  0.38572905802E+03  0.00000000000E+00 0. -1.
          1    1    1    2  502    0  0.12946991550E+03 -0.20190724384E+03  0.15758366632E+04  0.15939856283E+04  0.00000000000E+00 0. -1.
         22    1    3    3    0    0 -0.65817134892E+01 -0.12505094454E+02  0.67374560434E+02  0.68840596551E+02  0.00000000000E+00 0. -1.
         22    1    3    3    0    0 -0.15408537872E+03  0.25523698813E+03  0.61118346807E+03  0.68002459932E+03  0.00000000000E+00 0. -1.
</event>
<event>
 7    1  0.6294601E-006  0.5602962E+02  0.7818608E-02  0.1425645E+00
          2   -1    0    0  502    0  0.00000000000E+00  0.00000000000E+00  0.13724601923E+04  0.13724601923E+04  0.00000000000E+00 0. -1.
          1   -1    0    0  501    0 -0.00000000000E+00 -0.00000000000E+00 -0.48406628675E+02  0.48406628675E+02  0.00000000000E+00 0. -1.
         25    2    1    2    0    0  0.14382106513E+02 -0.47650328462E+02  0.49314915271E+03  0.51117357049E+03  0.12499973427E+03 0.  0.
          2    1    1    2  501    0  0.37195466566E+02  0.43500558795E+02 -0.17393094060E+02  0.59819069447E+02  0.00000000000E+00 0. -1.
          1    1    1    2  502    0 -0.51577573078E+02  0.41497696661E+01  0.84829750495E+03  0.84987418101E+03  0.00000000000E+00 0. -1.
         22    1    3    3    0    0 -0.33557452792E+02 -0.13992422908E+01  0.36148022883E+02  0.49343085384E+02  0.00000000000E+00 0. -1.
         22    1    3    3    0    0  0.47939559305E+02 -0.46251086171E+02  0.45700112982E+03  0.46183048511E+03  0.00000000000E+00 0. -1.
</event>
<event>
 7    1  0.6294601E-006  0.3182875E+02  0.7818608E-02  0.1617703E+00
          2   -1    0    0  502    0  0.00000000000E+00  0.00000000000E+00  0.16726397879E+04  0.16726397879E+04  0.00000000000E+00 0. -1.
          1   -1    0    0  501    0 -0.00000000000E+00 -0.00000000000E+00 -0.26041585302E+02  0.26041585302E+02  0.00000000000E+00 0. -1.
         25    2    1    2    0    0 -0.16048809326E+02  0.99242621100E+01  0.97292752369E+03  0.98110550217E+03  0.12499593898E+03 0.  0.
          2    1    1    2  501    0 -0.16416647362E+02 -0.19064518059E+02 -0.14192848983E+02  0.28885967556E+02  0.00000000000E+00 0. -1.
          1    1    1    2  502    0  0.32465456688E+02  0.91402559492E+01  0.68786352786E+03  0.68868990345E+03  0.00000000000E+00 0. -1.
         22    1    3    3    0    0  0.16073141412E+02 -0.41066342132E+02  0.16057451310E+03  0.16652016270E+03  0.00000000000E+00 0. -1.
         22    1    3    3    0    0 -0.32121950738E+02  0.50990604242E+02  0.81235301060E+03  0.81458533946E+03  0.00000000000E+00 0. -1.
</event>
<event>
 7    1  0.6294601E-006  0.1588969E+03  0.7818608E-02  0.1222157E+00
          2   -1    0    0  502    0  0.00000000000E+00  0.00000000000E+00  0.65049923253E+03  0.65049923253E+03  0.00000000000E+00 0. -1.
          1   -1    0    0  501    0 -0.00000000000E+00 -0.00000000000E+00 -0.44152795502E+03  0.44152795502E+03  0.00000000000E+00 0. -1.
         25    2    1    2    0    0  0.11175690286E+03 -0.30258136638E+02 -0.49206282208E+02  0.17734488129E+03  0.12499915416E+03 0.  0.
          2    1    1    2  501    0  0.36313182496E+02  0.10636404059E+03 -0.30624543191E+03  0.32621805732E+03  0.00000000000E+00 0. -1.
          1    1    1    2  502    0 -0.14807008536E+03 -0.76105903950E+02  0.56442299164E+03  0.58846424894E+03  0.00000000000E+00 0. -1.
         22    1    3    3    0    0  0.12155092965E+03  0.65629509521E+01 -0.91647891464E+01  0.12207249561E+03  0.00000000000E+00 0.  1.
         22    1    3    3    0    0 -0.97940267928E+01 -0.36821087590E+02 -0.40041493062E+02  0.55272385680E+02  0.00000000000E+00 0.  1.
</event>
<event>
 7    1  0.6294601E-006  0.1025382E+03  0.7818608E-02  0.1405686E+00
          2   -1    0    0  502    0  0.00000000000E+00  0.00000000000E+00  0.25156338717E+04  0.25156338717E+04  0.00000000000E+00 0. -1.
          1   -1    0    0  501    0 -0.00000000000E+00 -0.00000000000E+00 -0.77077877605E+02  0.77077877605E+02  0.00000000000E+00 0. -1.
         25    2    1    2    0    0 -0.73164422820E+02 -0.19161812913E+02  0.11604720668E+03  0.18658487014E+03  0.12500700680E+03 0.  0.
          2    1    1    2  501    0 -0.19666829124E+02 -0.26496080501E+02 -0.33981819882E+02  0.47366554996E+02  0.00000000000E+00 0. -1.
          1    1    1    2  502    0  0.92831251944E+02  0.45657893414E+02  0.23564906073E+04  0.23587603241E+04  0.00000000000E+00 0. -1.
         22    1    3    3    0    0  0.33716523028E+02  0.76345711584E+01  0.39084333114E+02  0.52179265008E+02  0.00000000000E+00 0. -1.
         22    1    3    3    0    0 -0.10688094585E+03 -0.26796384071E+02  0.76962873565E+02  0.13440560514E+03  0.00000000000E+00 0. -1.
</event>
<event>
 7    1  0.6294601E-006  0.4351626E+02  0.7818608E-02  0.1578354E+00
          2   -1    0    0  502    0  0.00000000000E+00  0.00000000000E+00  0.43491790532E+03  0.43491790532E+03  0.00000000000E+00 0. -1.
          1   -1    0    0  501    0 -0.00000000000E+00 -0.00000000000E+00 -0.34485605706E+04  0.34485605706E+04  0.00000000000E+00 0. -1.
         25    2    1    2    0    0 -0.56404919750E+02  0.39494522336E+01 -0.82919025365E+03  0.84046350411E+03  0.12500124739E+03 0.  0.
          2    1    1    2  501    0  0.38739626591E+02 -0.19191080130E+02 -0.26132377414E+04  0.26135953300E+04  0.00000000000E+00 0. -1.
          1    1    1    2  502    0  0.17665293159E+02  0.15241627897E+02  0.42878532971E+03  0.42941964181E+03  0.00000000000E+00 0. -1.
         22    1    3    3    0    0 -0.88107517823E+02  0.33044136249E+02 -0.55685614760E+03  0.56475093515E+03  0.00000000000E+00 0.  1.
         22    1    3    3    0    0  0.31702598073E+02 -0.29094684016E+02 -0.27233410605E+03  0.27571256896E+03  0.00000000000E+00 0.  1.
</event>
<event>
 7    1  0.6294601E-006  0.4698196E+02  0.7818608E-02  0.1588181E+00
          2   -1    0    0  502    0  0.00000000000E+00  0.00000000000E+00  0.19862966755E+03  0.19862966755E+03  0.00000000000E+00 0. -1.
          1   -1    0    0  501    0 -0.00000000000E+00 -0.00000000000E+00 -0.73233930475E+03  0.73233930475E+03  0.00000000000E+00 0. -1.
         25    2    1    2    0    0 -0.27428741298E+02 -0.58539658033E+02 -0.12145354581E+03  0.18588983972E+03  0.12499936524E+03 0.  0.
          2    1    1    2  501    0  0.26478778853E+02  0.38218147361E+02 -0.57710740235E+03  0.57897729348E+03  0.00000000000E+00 0. -1.
          1    1    1    2  502    0  0.94996244501E+00  0.20321510672E+02  0.16485131097E+03  0.16610183910E+03  0.00000000000E+00 0. -1.
         22    1    3    3    0    0  0.32373209714E+02 -0.69265802424E+02 -0.87842071150E+02  0.11645602413E+03  0.00000000000E+00 0.  1.
         22    1    3    3    0    0 -0.59801951012E+02  0.10726144391E+02 -0.33611474665E+02  0.69433815591E+02  0.00000000000E+00 0.  1.
</event>
<event>
 7    1  0.6294601E-006  0.7200077E+02  0.7818608E-02  0.1401314E+00
          2   -1    0    0  502    0  0.00000000000E+00  0.00000000000E+00  0.76058040079E+03  0.76058040079E+03  0.00000000000E+00 0. -1.
          1   -1    0    0  501    0 -0.00000000000E+00 -0.00000000000E+00 -0.29729281231E+03  0.29729281231E+03  0.00000000000E+00 0. -1.
         25    2    1    2    0    0  0.32508219802E+02 -0.10469354644E+03 -0.75322419489E+02  0.18251965941E+03  0.12498974427E+03 0.  0.
          2    1    1    2  501    0  0.10489538915E+02  0.47494137479E+02 -0.16300088344E+03  0.17010294391E+03  0.00000000000E+00 0. -1.
          1    1    1    2  502    0 -0.42997758717E+02  0.57199408962E+02  0.70161089142E+03  0.70525060978E+03  0.00000000000E+00 0. -1.
         22    1    3    3    0    0  0.58674638561E+02 -0.19258380813E+02  0.55500639780E+01  0.62003239044E+02  0.00000000000E+00 0. -1.
         22    1    3    3    0    0 -0.26166418759E+02 -0.85435165629E+02 -0.80872483467E+02  0.12051642037E+03  0.00000000000E+00 0. -1.
</event>
<event>
 7    1  0.6294601E-006  0.9555539E+02  0.7818608E-02  0.1308343E+00
          2   -1    0    0  502    0  0.00000000000E+00  0.00000000000E+00  0.15257654608E+04  0.15257654608E+04  0.00000000000E+00 0. -1.
          1   -1    0    0  501    0 -0.00000000000E+00 -0.00000000000E+00 -0.51618193735E+02  0.51618193735E+02  0.00000000000E+00 0. -1.
         25    2    1    2    0    0  0.25537829860E+02 -0.31663138126E+02  0.51316865509E+03  0.52973786381E+03  0.12500160285E+03 0.  0.
          2    1    1    2  501    0  0.37298629977E+02 -0.71472543914E+02  0.15381613547E+01  0.80634225190E+02  0.00000000000E+00 0. -1.
          1    1    1    2  502    0 -0.62836459837E+02  0.10313568204E+03  0.95944045061E+03  0.96701156553E+03  0.00000000000E+00 0. -1.
         22    1    3    3    0    0 -0.17868867812E+02  0.11156519338E+02  0.40516169803E+03  0.40570896701E+03  0.00000000000E+00 0.  1.
         22    1    3    3    0    0  0.43406697672E+02 -0.42819657463E+02  0.10800695706E+03  0.12402889680E+03  0.00000000000E+00 0.  1.
</event>
<event>
 7    1  0.6294601E-006  0.4261715E+02  0.7818608E-02  0.1580989E+00
          2   -1    0    0  502    0  0.00000000000E+00  0.00000000000E+00  0.27360849630E+03  0.27360849630E+03  0.00000000000E+00 0. -1.
          1   -1    0    0  501    0 -0.00000000000E+00 -0.00000000000E+00 -0.63241513729E+02  0.63241513729E+02  0.00000000000E+00 0. -1.
         25    2    1    2    0    0  0.26593985507E+02  0.23773655884E+02  0.21718775150E+03  0.25312269375E+03  0.12501260701E+03 0.  0.
          2    1    1    2  501    0 -0.42702689179E+02 -0.67467872123E+01 -0.28514808614E+02  0.51789314642E+02  0.00000000000E+00 0. -1.
          1    1    1    2  502    0  0.16108703671E+02 -0.17026868672E+02  0.21694039692E+02  0.31938001642E+02  0.00000000000E+00 0. -1.
         22    1    3    3    0    0  0.34567310713E+02  0.58342821681E+02  0.20449119478E+03  0.21544241122E+03  0.00000000000E+00 0.  1.
         22    1    3    3    0    0 -0.79733252060E+01 -0.34569165797E+02  0.12696556720E+02  0.37680282527E+02  0.00000000000E+00 0.  1.
</event>
<event>
 7    1  0.6294601E-006  0.7575414E+02  0.7818608E-02  0.1500482E+00
          2   -1    0    0  502    0  0.00000000000E+00  0.00000000000E+00  0.17398112041E+03  0.17398112041E+03  0.00000000000E+00 0. -1.
          1   -1    0    0  501    0 -0.00000000000E+00 -0.00000000000E+00 -0.80424919005E+03  0.80424919005E+03  0.00000000000E+00 0. -1.
         25    2    1    2    0    0 -0.39173625918E+02  0.56968342484E+02 -0.92303342736E+01  0.14314043858E+03  0.12499608424E+03 0.  0.
          2    1    1    2  501    0  0.59343653348E+02 -0.47537271089E+02 -0.72489536887E+03  0.72887225022E+03  0.00000000000E+00 0. -1.
          1    1    1    2  502    0 -0.20170027430E+02 -0.94310713955E+01  0.10385763350E+03  0.10621762165E+03  0.00000000000E+00 0. -1.
         22    1    3    3    0    0 -0.50460388168E+02  0.36327169633E+02 -0.60485996456E+02  0.86743701759E+02  0.00000000000E+00 0. -1.
         22    1    3    3    0    0  0.11286762250E+02  0.20641172851E+02  0.51255662182E+02  0.56396736825E+02  0.00000000000E+00 0. -1.
</event>
<event>
 7    1  0.6294601E-006  0.8001110E+02  0.7818608E-02  0.1455040E+00
          2   -1    0    0  502    0  0.00000000000E+00  0.00000000000E+00  0.43621202949E+04  0.43621202949E+04  0.00000000000E+00 0. -1.
          1   -1    0    0  501    0 -0.00000000000E+00 -0.00000000000E+00 -0.50398378095E+03  0.50398378095E+03  0.00000000000E+00 0. -1.
         25    2    1    2    0    0 -0.10347880819E+03  0.23619807047E+02  0.10824661044E+04  0.10948167529E+04  0.12500038516E+03 0.  0.
          2    1    1    2  501    0  0.29091521404E+02  0.65230042729E-01 -0.49691753370E+03  0.49776837602E+03  0.00000000000E+00 0. -1.
          1    1    1    2  502    0  0.74387286790E+02 -0.23685037090E+02  0.32725879432E+04  0.32735189469E+04  0.00000000000E+00 0. -1.
         22    1    3    3    0    0 -0.22502451042E+02  0.17780813081E+02  0.81011445989E+03  0.81062195612E+03  0.00000000000E+00 0.  1.
         22    1    3    3    0    0 -0.80976357152E+02  0.58389939664E+01  0.27235164451E+03  0.28419479681E+03  0.00000000000E+00 0.  1.
</event>
<event>
 7    1  0.6294601E-006  0.6432249E+02  0.7818608E-02  0.1511414E+00
          2   -1    0    0  502    0  0.00000000000E+00  0.00000000000E+00  0.12022627302E+02  0.12022627302E+02  0.00000000000E+00 0. -1.
          1   -1    0    0  501    0 -0.00000000000E+00 -0.00000000000E+00 -0.12182125818E+04  0.12182125818E+04  0.00000000000E+00 0. -1.
         25    2    1    2    0    0 -0.27812406712E+02  0.68461267314E+02 -0.79179836844E+03  0.80500314771E+03  0.12499974588E+03 0.  0.
          2    1    1    2  501    0 -0.12698385538E+02 -0.20765519885E+02 -0.21184751680E+03  0.21324123942E+03  0.00000000000E+00 0. -1.
          1    1    1    2  502    0  0.40510792249E+02 -0.47695747429E+02 -0.20254406921E+03  0.21199082193E+03  0.00000000000E+00 0. -1.
         22    1    3    3    0    0  0.37822805558E+02  0.23511693098E+02 -0.11143341446E+03  0.12000320908E+03  0.00000000000E+00 0. -1.
         22    1    3    3    0    0 -0.65635212270E+02  0.44949574215E+02 -0.68036495398E+03  0.68499993862E+03  0.00000000000E+00 0. -1.
</event>
<event>
 7    1  0.6294601E-006  0.6465569E+02  0.7818608E-02  0.1453322E+00
          2   -1    0    0  502    0  0.00000000000E+00  0.00000000000E+00  0.13995493365E+04  0.13995493365E+04  0.00000000000E+00 0. -1.
          1   -1    0    0  501    0 -0.00000000000E+00 -0.00000000000E+00 -0.15526026413E+03  0.15526026413E+03  0.00000000000E+00 0. -1.
         25    2    1    2    0    0 -0.63938798886E+02 -0.41025710308E+02  0.11464360832E+04  0.11557301232E+04  0.12500058341E+03 0.  0.
          2    1    1    2  501    0  0.47120397628E+01  0.36150590938E+02 -0.14476735041E+03  0.14928715379E+03  0.00000000000E+00 0. -1.
          1    1    1    2  502    0  0.59226759123E+02  0.48751193701E+01  0.24262033949E+03  0.24979232358E+03  0.00000000000E+00 0. -1.
         22    1    3    3    0    0 -0.43332770428E+02 -0.22922807137E+02  0.11047045371E+04  0.11057917066E+04  0.00000000000E+00 0. -1.
         22    1    3    3    0    0 -0.20606028458E+02 -0.18102903171E+02  0.41731546145E+02  0.49938416631E+02  0.00000000000E+00 0. -1.
</event>
<event>
 7    1  0.6294601E-006  0.2714059E+02  0.7818608E-02  0.1640953E+00
          2   -1    0    0  502    0  0.00000000000E+00  0.00000000000E+00  0.24973494610E+02  0.24973494610E+02  0.00000000000E+00 0. -1.
          1   -1    0    0  501    0 -0.00000000000E+00 -0.00000000000E+00 -0.82921177584E+03  0.82921177584E+03  0.00000000000E+00 0. -1.
         25    2    1    2    0    0 -0.50774956099E+02  0.12085055869E+02 -0.44089596869E+03  0.46123539541E+03  0.12499876010E+03 0.  0.
          2    1    1    2  501    0  0.25336720552E+02 -0.47874533462E+01 -0.36549013730E+03  0.36639856657E+03  0.00000000000E+00 0. -1.
          1    1    1    2  502    0  0.25438235547E+02 -0.72976025224E+01  0.21478247670E+01  0.26551308472E+02  0.00000000000E+00 0. -1.
         22    1    3    3    0    0  0.73311715505E+01 -0.46609164803E+02 -0.10143303802E+03  0.11186966310E+03  0.00000000000E+00 0. -1.
         22    1    3    3    0    0 -0.58106127650E+02  0.58694220672E+02 -0.33946293067E+03  0.34936573231E+03  0.00000000000E+00 0. -1.
</event>
<event>
 7    1  0.6294601E-006  0.5560203E+02  0.7818608E-02  0.1478909E+00
          2   -1    0    0  502    0  0.00000000000E+00  0.00000000000E+00  0.12097149222E+04  0.12097149222E+04  0.00000000000E+00 0. -1.
          1   -1    0    0  501    0 -0.00000000000E+00 -0.00000000000E+00 -0.92773031885E+02  0.92773031885E+02  0.00000000000E+00 0. -1.
         25    2    1    2    0    0 -0.19512123075E+02  0.17221546846E+02  0.20621904665E+03  0.24254492408E+03  0.12499776146E+03 0.  0.
          2    1    1    2  501    0 -0.35239487909E+02 -0.11454204176E+01 -0.69568107145E+02  0.77992660089E+02  0.00000000000E+00 0. -1.
          1    1    1    2  502    0  0.54751610984E+02 -0.16076126429E+02  0.98029095083E+03  0.98195036994E+03  0.00000000000E+00 0. -1.
         22    1    3    3    0    0  0.45997905288E+02  0.31271750600E+02  0.12794329584E+03  0.13951063267E+03  0.00000000000E+00 0. -1.
         22    1    3    3    0    0 -0.65510028363E+02 -0.14050203754E+02  0.78275750813E+02  0.10303429141E+03  0.00000000000E+00 0. -1.
</event>
<event>
 7    1  0.6294601E-006  0.7636674E+02  0.7818608E-02  0.1366807E+00
          2   -1    0    0  502    0  0.00000000000E+00  0.00000000000E+00  0.15333572959E+04  0.15333572959E+04  0.00000000000E+00 0. -1.
          1   -1    0    0  501    0 -0.00000000000E+00 -0.00000000000E+00 -0.14702714071E+04  0.14702714071E+04  0.00000000000E+00 0. -1.
         25    2    1    2    0    0 -0.19637805403E+02 -0.27118356026E+02  0.35641710319E+03  0.37918091494E+03  0.12499586463E+03 0.  0.
          2    1    1    2  501    0 -0.18582814038E+02  0.74225539920E+02 -0.14570956878E+04  0.14591033531E+04  0.00000000000E+00 0. -1.
          1    1    1    2  502    0  0.38220619441E+02 -0.47107183894E+02  0.11637644734E+04  0.11653444349E+04  0.00000000000E+00 0. -1.
         22    1    3    3    0    0  0.14248591655E+02  0.23508928573E+02  0.13012081431E+02  0.30413917045E+02  0.00000000000E+00 0.  1.
         22    1    3    3    0    0 -0.33886397058E+02 -0.50627284599E+02  0.34340502176E+03  0.34876699789E+03  0.00000000000E+00 0.  1.
</event>
<event>
 7    1  0.6294601E-006  0.7961130E+02  0.7818608E-02  0.1367615E+00
          2   -1    0    0  502    0  0.00000000000E+00  0.00000000000E+00  0.69097585613E+03  0.69097585613E+03  0.00000000000E+00 0. -1.
          1   -1    0    0  501    0 -0.00000000000E+00 -0.00000000000E+00 -0.35279394118E+03  0.35279394118E+03  0.00000000000E+00 0. -1.
         25    2    1    2    0    0 -0.10217689771E+03  0.66284307521E+02  0.74086442653E+01  0.17468273358E+03  0.12500176619E+03 0.  0.
          2    1    1    2  501    0  0.57782138318E+02 -0.14420136989E+01 -0.26343680867E+03  0.26970318328E+03  0.00000000000E+00 0. -1.
          1    1    1    2  502    0  0.44394759393E+02 -0.64842293822E+02  0.59421007936E+03  0.59938388045E+03  0.00000000000E+00 0. -1.
         22    1    3    3    0    0 -0.12968416120E+03  0.54974740189E+02  0.20220254792E+02  0.14229920038E+03  0.00000000000E+00 0. -1.
         22    1    3    3    0    0  0.27507263490E+02  0.11309567332E+02 -0.12811610526E+02  0.32383533195E+02  0.00000000000E+00 0. -1.
</event>
<event>
 7    1  0.6294601E-006  0.6225892E+02  0.7818608E-02  0.1477629E+00
          2   -1    0    0  502    0  0.00000000000E+00  0.00000000000E+00  0.27386015703E+02  0.27386015703E+02  0.00000000000E+00 0. -1.
          1   -1    0    0  501    0 -0.00000000000E+00 -0.00000000000E+00 -0.32473407391E+04  0.32473407391E+04  0.00000000000E+00 0. -1.
         25    2    1    2    0    0  0.66048494682E+02 -0.64089424765E+02 -0.12459643672E+04  0.12555964108E+04  0.12500113820E+03 0.  0.
          2    1    1    2  501    0 -0.17781515771E+02  0.26333575601E+02 -0.19545967690E+04  0.19548550250E+04  0.00000000000E+00 0. -1.
          1    1    1    2  502    0 -0.48266978911E+02  0.37755849164E+02 -0.19393587190E+02  0.64275318929E+02  0.00000000000E+00 0. -1.
         22    1    3    3    0    0  0.44735094607E+02 -0.60298837744E+01 -0.12454457415E+03  0.13247240897E+03  0.00000000000E+00 0. -1.
         22    1    3    3    0    0  0.21313400074E+02 -0.58059540990E+02 -0.11214197930E+04  0.11231240018E+04  0.00000000000E+00 0. -1.
</event>
<event>
 7    1  0.6294601E-006  0.2801063E+02  0.7818608E-02  0.1661074E+00
          2   -1    0    0  502    0  0.00000000000E+00  0.00000000000E+00  0.31323573434E+03  0.31323573434E+03  0.00000000000E+00 0. -1.
          1   -1    0    0  501    0 -0.00000000000E+00 -0.00000000000E+00 -0.80656300443E+03  0.80656300443E+03  0.00000000000E+00 0. -1.
         25    2    1    2    0    0  0.36756273889E+02  0.58604944384E+01 -0.14918778136E+03  0.19816151327E+03  0.12500248865E+03 0.  0.
          2    1    1    2  501    0 -0.24799992551E+02  0.12968074091E+02 -0.63214759485E+03  0.63276677556E+03  0.00000000000E+00 0. -1.
          1    1    1    2  502    0 -0.11956281338E+02 -0.18828568530E+02  0.28800810612E+03  0.28887044994E+03  0.00000000000E+00 0. -1.
         22    1    3    3    0    0 -0.68193193616E+01 -0.51558097083E+02 -0.33524088319E+02  0.61875722129E+02  0.00000000000E+00 0. -1.
         22    1    3    3    0    0  0.43575593251E+02  0.57418591521E+02 -0.11566369304E+03  0.13628579114E+03  0.00000000000E+00 0. -1.
</event>
<event>
 7    1  0.6949840E-006  0.8473074E+02  0.7818608E-02  0.1336179E+00
          2   -1    0    0  502    0  0.00000000000E+00  0.00000000000E+00  0.78174175275E+03  0.78174175275E+03  0.00000000000E+00 0. -1.
          1   -1    0    0  501    0 -0.00000000000E+00 -0.00000000000E+00 -0.14086441833E+04  0.14086441833E+04  0.00000000000E+00 0. -1.
         25    2    1    2    0    0 -0.10138881526E+03 -0.71760460880E+02 -0.11724582757E+03  0.21166339969E+03  0.12500222030E+03 0.  0.
          2    1    1    2  501    0  0.16993889462E+02  0.68895667265E+02 -0.12407454972E+04  0.12427730260E+04  0.00000000000E+00 0. -1.
          1    1    1    2  502    0  0.84394925802E+02  0.28647936143E+01  0.73108889424E+03  0.73594951037E+03  0.00000000000E+00 0. -1.
         22    1    3    3    0    0  0.18642508979E+02 -0.51097212905E+02 -0.34254577454E+02  0.64279424268E+02  0.00000000000E+00 0. -1.
         22    1    3    3    0    0 -0.12003132424E+03 -0.20663247975E+02 -0.82991250117E+02  0.14738397543E+03  0.00000000000E+00 0. -1.
</event>
<event>
 7    1  0.6294601E-006  0.4188137E+02  0.7818608E-02  0.1554906E+00
          2   -1    0    0  502    0  0.00000000000E+00  0.00000000000E+00  0.39594439466E+03  0.39594439466E+03  0.00000000000E+00 0. -1.
          1   -1    0    0  501    0 -0.00000000000E+00 -0.00000000000E+00 -0.20275449156E+04  0.20275449156E+04  0.00000000000E+00 0. -1.
         25    2    1    2    0    0 -0.35336892193E+02  0.40493602233E+02 -0.67031056140E+02  0.15168140054E+03  0.12500262801E+03 0.  0.
          2    1    1    2  501    0  0.28082133871E+02  0.70603521446E+00 -0.19168481797E+04  0.19170540025E+04  0.00000000000E+00 0. -1.
          1    1    1    2  502    0  0.72547583217E+01 -0.41199637448E+02  0.35227871492E+03  0.35475390714E+03  0.00000000000E+00 0. -1.
         22    1    3    3    0    0  0.21748336699E+02  0.68486883886E+02 -0.42820694251E+02  0.83648402673E+02  0.00000000000E+00 0. -1.
         22    1    3    3    0    0 -0.57085228892E+02 -0.27993281653E+02 -0.24210361889E+02  0.68032997863E+02  0.00000000000E+00 0. -1.
</event>
<event>
 7    1  0.6294601E-006  0.6493438E+02  0.7818608E-02  0.1428748E+00
          2   -1    0    0  502    0  0.00000000000E+00  0.00000000000E+00  0.67898251623E+03  0.67898251623E+03  0.00000000000E+00 0. -1.
          1   -1    0    0  501    0 -0.00000000000E+00 -0.00000000000E+00 -0.31993932036E+04  0.31993932036E+04  0.00000000000E+00 0. -1.
         25    2    1    2    0    0 -0.56337756407E+02  0.31298790071E+02 -0.12061521069E+04  0.12143218508E+04  0.12498437981E+03 0.  0.
          2    1    1    2  501    0  0.25182005342E+02 -0.61807981274E+02 -0.19878912480E+04  0.19890113056E+04  0.00000000000E+00 0. -1.
          1    1    1    2  502    0  0.31155751066E+02  0.30509191203E+02  0.67363266759E+03  0.67504256341E+03  0.00000000000E+00 0. -1.
         22    1    3    3    0    0  0.26351097597E+00 -0.42545291450E+02 -0.24399695182E+03  0.24767858963E+03  0.00000000000E+00 0.  1.
         22    1    3    3    0    0 -0.56601267383E+02  0.73844081521E+02 -0.96215515512E+03  0.96664326117E+03  0.00000000000E+00 0.  1.
</event>
<event>
 7    1  0.6294601E-006  0.5786423E+02  0.7818608E-02  0.1523063E+00
          2   -1    0    0  502    0  0.00000000000E+00  0.00000000000E+00  0.28410641518E+03  0.28410641518E+03  0.00000000000E+00 0. -1.
          1   -1    0    0  501    0 -0.00000000000E+00 -0.00000000000E+00 -0.36655181533E+03  0.36655181533E+03  0.00000000000E+00 0. -1.
         25    2    1    2    0    0  0.53853910360E+02 -0.59732437283E+02 -0.11026535690E+03  0.18507168787E+03  0.12499949197E+03 0.  0.
          2    1    1    2  501    0 -0.34756636072E+02  0.43564359449E+02 -0.21468165279E+03  0.22179740578E+03  0.00000000000E+00 0. -1.
          1    1    1    2  502    0 -0.19097274287E+02  0.16168077835E+02  0.24250160954E+03  0.24378913687E+03  0.00000000000E+00 0. -1.
         22    1    3    3    0    0  0.27641402395E+02 -0.77921202239E+02 -0.12504741580E+03  0.14990869582E+03  0.00000000000E+00 0. -1.
         22    1    3    3    0    0  0.26212507964E+02  0.18188764956E+02  0.14782058899E+02  0.35162992047E+02  0.00000000000E+00 0. -1.
</event>
<event>
 7    1  0.6294601E-006  0.6092988E+02  0.7818608E-02  0.1440503E+00
          2   -1    0    0  502    0  0.00000000000E+00  0.00000000000E+00  0.20065112554E+03  0.20065112554E+03  0.00000000000E+00 0. -1.
          1   -1    0    0  501    0 -0.00000000000E+00 -0.00000000000E+00 -0.97406111827E+03  0.97406111827E+03  0.00000000000E+00 0. -1.
         25    2    1    2    0    0 -0.33157456886E+02  0.95088214844E+02 -0.28363935018E+02  0.16300613107E+03  0.12500120163E+03 0.  0.
          2    1    1    2  501    0  0.16167362447E+02 -0.39342590097E+02 -0.87146440048E+03  0.87250181908E+03  0.00000000000E+00 0. -1.
          1    1    1    2  502    0  0.16990094439E+02 -0.55745624746E+02  0.12641834276E+03  0.13920429366E+03  0.00000000000E+00 0. -1.
         22    1    3    3    0    0 -0.38956856487E+02 -0.55523867275E+01  0.27260228345E+02  0.47870509869E+02  0.00000000000E+00 0. -1.
         22    1    3    3    0    0  0.57993996009E+01  0.10064060157E+03 -0.55624163363E+02  0.11513562120E+03  0.00000000000E+00 0. -1.
</event>
<event>
 7    1  0.6294601E-006  0.7317068E+02  0.7818608E-02  0.1370155E+00
          2   -1    0    0  502    0  0.00000000000E+00  0.00000000000E+00  0.10453041157E+04  0.10453041157E+04  0.00000000000E+00 0. -1.
          1   -1    0    0  501    0 -0.00000000000E+00 -0.00000000000E+00 -0.31213482731E+03  0.31213482731E+03  0.00000000000E+00 0. -1.
         25    2    1    2    0    0  0.51349996057E+02  0.48202722742E+02  0.45773768932E+02  0.15060189190E+03  0.12500146937E+03 0.  0.
          2    1    1    2  501    0 -0.74103855963E+02  0.90165407745E+01 -0.25332918996E+03  0.26409914419E+03  0.00000000000E+00 0. -1.
          1    1    1    2  502    0  0.22753859905E+02 -0.57219263516E+02  0.94072470944E+03  0.94273790695E+03  0.00000000000E+00 0. -1.
         22    1    3    3    0    0 -0.25877289032E+02  0.51192385904E+02  0.45662249207E+02  0.73316679309E+02  0.00000000000E+00 0. -1.
         22    1    3    3    0    0  0.77227285089E+02 -0.29896631624E+01  0.11151972526E+00  0.77285212588E+02  0.00000000000E+00 0. -1.
</event>
<event>
 7    1  0.6294601E-006  0.1443695E+03  0.7818608E-02  0.1210077E+00
          2   -1    0    0  502    0  0.00000000000E+00  0.00000000000E+00  0.49854154188E+03  0.49854154188E+03  0.00000000000E+00 0. -1.
          1   -1    0    0  501    0 -0.00000000000E+00 -0.00000000000E+00 -0.12041369216E+04  0.12041369216E+04  0.00000000000E+00 0. -1.
         25    2    1    2    0    0 -0.27267732033E+02  0.95156391833E+02 -0.19715758740E+03  0.25356306959E+03  0.12499939150E+03 0.  0.
          2    1    1    2  501    0 -0.11805632995E+03 -0.83097905549E+02 -0.96195634871E+03  0.97272944634E+03  0.00000000000E+00 0. -1.
          1    1    1    2  502    0  0.14532406198E+03 -0.12058486285E+02  0.45351855637E+03  0.47638594758E+03  0.00000000000E+00 0. -1.
         22    1    3    3    0    0 -0.57975762583E+02  0.10851837732E+03 -0.13293240974E+03  0.18113103771E+03  0.00000000000E+00 0.  1.
         22    1    3    3    0    0  0.30708030550E+02 -0.13361985492E+02 -0.64225177658E+02  0.72432031876E+02  0.00000000000E+00 0.  1.
</event>
<event>
 7    1  0.6294601E-006  0.7494708E+02  0.7818608E-02  0.1466055E+00
          2   -1    0    0  502    0  0.00000000000E+00  0.00000000000E+00  0.37046970428E+04  0.37046970428E+04  0.00000000000E+00 0. -1.
          1   -1    0    0  501    0 -0.00000000000E+00 -0.00000000000E+00 -0.61395711115E+03  0.61395711115E+03  0.00000000000E+00 0. -1.
         25    2    1    2    0    0  0.50216567254E+02 -0.84216675266E+02  0.23108433094E+04  0.23162979002E+04  0.12500003809E+03 0.  0.
          2    1    1    2  501    0 -0.50284944283E+02  0.55545810269E+02 -0.60878513469E+03  0.61337855593E+03  0.00000000000E+00 0. -1.
          1    1    1    2  502    0  0.68377029030E-01  0.28670864997E+02  0.13886817569E+04  0.13889776979E+04  0.00000000000E+00 0. -1.
         22    1    3    3    0    0  0.24874074565E+02 -0.10702295636E+03  0.20852627640E+04  0.20881555085E+04  0.00000000000E+00 0.  1.
         22    1    3    3    0    0  0.25342492689E+02  0.22806281095E+02  0.22558054544E+03  0.22814239167E+03  0.00000000000E+00 0.  1.
</event>
<event>
 7    1  0.6294601E-006  0.5945380E+02  0.7818608E-02  0.1410570E+00
          2   -1    0    0  502    0  0.00000000000E+00  0.00000000000E+00  0.37881682941E+02  0.37881682941E+02  0.00000000000E+00 0. -1.
          1   -1    0    0  501    0 -0.00000000000E+00 -0.00000000000E+00 -0.19686194695E+04  0.19686194695E+04  0.00000000000E+00 0. -1.
         25    2    1    2    0    0  0.16448581279E+02  0.10688352450E+03 -0.83441698087E+03  0.85063003864E+03  0.12500048419E+03 0.  0.
          2    1    1    2  501    0  0.21660657124E+01 -0.55367888799E+02 -0.10996021156E+04  0.11009973241E+04  0.00000000000E+00 0. -1.
          1    1    1    2  502    0 -0.18614646991E+02 -0.51515635704E+02  0.32813099183E+01  0.54873789730E+02  0.00000000000E+00 0. -1.
         22    1    3    3    0    0  0.54674563709E+02  0.88077471415E+02 -0.73767000591E+03  0.74491877847E+03  0.00000000000E+00 0. -1.
         22    1    3    3    0    0 -0.38225982430E+02  0.18806053088E+02 -0.96746974951E+02  0.10571126017E+03  0.00000000000E+00 0. -1.
</event>
<event>
 7    1  0.6294601E-006  0.7798010E+02  0.7818608E-02  0.1373563E+00
          2   -1    0    0  502    0  0.00000000000E+00  0.00000000000E+00  0.13855232138E+04  0.13855232138E+04  0.00000000000E+00 0. -1.
          1   -1    0    0  501    0 -0.00000000000E+00 -0.00000000000E+00 -0.29842178637E+03  0.29842178637E+03  0.00000000000E+00 0. -1.
         25    2    1    2    0    0  0.79729016439E+02  0.77533300542E+01  0.38599969261E+03  0.41356649270E+03  0.12499860398E+03 0.  0.
          2    1    1    2  501    0 -0.53248401873E+02 -0.57297022642E+02 -0.27844460280E+03  0.28922264423E+03  0.00000000000E+00 0. -1.
          1    1    1    2  502    0 -0.26480614566E+02  0.49543692588E+02  0.97954633758E+03  0.98115586319E+03  0.00000000000E+00 0. -1.
         22    1    3    3    0    0 -0.49227502969E+00 -0.26672207460E+01  0.28102587889E+03  0.28103896706E+03  0.00000000000E+00 0. -1.
         22    1    3    3    0    0  0.80221291468E+02  0.10420550800E+02  0.10497381372E+03  0.13252752564E+03  0.00000000000E+00 0. -1.
</event>
<event>
 7    1  0.6294601E-006  0.2044227E+03  0.7818608E-02  0.1273932E+00
          2   -1    0    0  502    0  0.00000000000E+00  0.00000000000E+00  0.22844423844E+04  0.22844423844E+04  0.00000000000E+00 0. -1.
          1   -1    0    0  501    0 -0.00000000000E+00 -0.00000000000E+00 -0.40313694873E+03  0.40313694873E+03  0.00000000000E+00 0. -1.
         25    2    1    2    0    0 -0.12117700575E+03  0.13486164735E+03 -0.87252883706E+02  0.23687388892E+03  0.12499857155E+03 0.  0.
          2    1    1    2  501    0  0.11854018521E+03 -0.18678144991E+03 -0.18994341892E+03  0.29157775624E+03  0.00000000000E+00 0. -1.
          1    1    1    2  502    0  0.26368205445E+01  0.51919802563E+02  0.21585017383E+04  0.21591276880E+04  0.00000000000E+00 0. -1.
         22    1    3    3    0    0  0.67848283299E+00  0.80604091826E+02 -0.60606081591E+02  0.10084927904E+03  0.00000000000E+00 0. -1.
         22    1    3    3    0    0 -0.12185548859E+03  0.54257555522E+02 -0.26646802115E+02  0.13602460988E+03  0.00000000000E+00 0. -1.
</event>
<event>
 7    1  0.7670177E-006  0.1128708E+03  0.7818608E-02  0.1304645E+00
          2   -1    0    0  502    0  0.00000000000E+00  0.00000000000E+00  0.18832166110E+04  0.18832166110E+04  0.00000000000E+00 0. -1.
          1   -1    0    0  501    0 -0.00000000000E+00 -0.00000000000E+00 -0.10304628828E+04  0.10304628828E+04  0.00000000000E+00 0. -1.
         25    2    1    2    0    0  0.14563434983E+02 -0.12921699878E+03 -0.61944816772E+02  0.19071061126E+03  0.12499700200E+03 0.  0.
          2    1    1    2  501    0 -0.64770387819E+02  0.28076275730E+02 -0.90100066848E+03  0.90376196258E+03  0.00000000000E+00 0. -1.
          1    1    1    2  502    0  0.50206952837E+02  0.10114072305E+03  0.18156992134E+04  0.18192069199E+04  0.00000000000E+00 0. -1.
         22    1    3    3    0    0 -0.50621080052E+02 -0.84738366399E+02 -0.50804908118E+02  0.11101451786E+03  0.00000000000E+00 0.  1.
         22    1    3    3    0    0  0.65184515035E+02 -0.44478632383E+02 -0.11139908653E+02  0.79696093403E+02  0.00000000000E+00 0.  1.
</event>
<event>
 7    1  0.6294601E-006  0.6194358E+02  0.7818608E-02  0.1445453E+00
          2   -1    0    0  502    0  0.00000000000E+00  0.00000000000E+00  0.55962170921E+02  0.55962170921E+02  0.00000000000E+00 0. -1.
          1   -1    0    0  501    0 -0.00000000000E+00 -0.00000000000E+00 -0.80901864884E+03  0.80901864884E+03  0.00000000000E+00 0. -1.
         25    2    1    2    0    0  0.91549264042E+02  0.16705486825E+02 -0.44055523115E+03  0.46730005092E+03  0.12498033788E+03 0.  0.
          2    1    1    2  501    0 -0.56751022782E+02  0.36728748029E+01 -0.34264576260E+03  0.34733310701E+03  0.00000000000E+00 0. -1.
          1    1    1    2  502    0 -0.34798241260E+02 -0.20378361628E+02  0.30144515834E+02  0.50347661835E+02  0.00000000000E+00 0. -1.
         22    1    3    3    0    0  0.11872684654E+03  0.27465982249E+02 -0.39318887517E+03  0.41164054201E+03  0.00000000000E+00 0. -1.
         22    1    3    3    0    0 -0.27177582503E+02 -0.10760495425E+02 -0.47366355981E+02  0.55659508904E+02  0.00000000000E+00 0. -1.
</event>
<event>
 7    1  0.6294601E-006  0.2117990E+03  0.7818608E-02  0.1152250E+00
          2   -1    0    0  502    0  0.00000000000E+00  0.00000000000E+00  0.17281988646E+04  0.17281988646E+04  0.00000000000E+00 0. -1.
          1   -1    0    0  501    0 -0.00000000000E+00 -0.00000000000E+00 -0.82019385826E+03  0.82019385826E+03  0.00000000000E+00 0. -1.
         25    2    1    2    0    0  0.10811322576E+02 -0.83757056039E+02 -0.92199698964E+02  0.17679090742E+03  0.12498844476E+03 0.  0.
          2    1    1    2  501    0  0.17596872862E+03  0.18361708342E+03 -0.65513496450E+03  0.70276742133E+03  0.00000000000E+00 0. -1.
          1    1    1    2  502    0 -0.18678005120E+03 -0.99860027379E+02  0.16553396698E+04  0.16688343941E+04  0.00000000000E+00 0. -1.
         22    1    3    3    0    0  0.48796963771E+02 -0.86479336933E+02 -0.29771627201E+02  0.10366373125E+03  0.00000000000E+00 0.  1.
         22    1    3    3    0    0 -0.37985641196E+02  0.27222808944E+01 -0.62428071764E+02  0.73127176169E+02  0.00000000000E+00 0.  1.
</event>
<event>
 7    1  0.6294601E-006  0.9109591E+02  0.7818608E-02  0.1310682E+00
          2   -1    0    0  502    0  0.00000000000E+00  0.00000000000E+00  0.54733488573E+03  0.54733488573E+03  0.00000000000E+00 0. -1.
          1   -1    0    0  501    0 -0.00000000000E+00 -0.00000000000E+00 -0.14434188445E+03  0.14434188445E+03  0.00000000000E+00 0. -1.
         25    2    1    2    0    0 -0.26038213408E+02 -0.21157153819E+01  0.90968237362E+02  0.15678685630E+03  0.12499773314E+03 0.  0.
          2    1    1    2  501    0  0.97302663500E+02 -0.40019813400E+02 -0.81289890021E+02  0.13295653428E+03  0.00000000000E+00 0. -1.
          1    1    1    2  502    0 -0.71264450093E+02  0.42135528782E+02  0.39331465394E+03  0.40193337960E+03  0.00000000000E+00 0. -1.
         22    1    3    3    0    0 -0.14413828371E+02  0.53505641855E+02  0.76531173352E+01  0.55939095127E+02  0.00000000000E+00 0. -1.
         22    1    3    3    0    0 -0.11624385037E+02 -0.55621357237E+02  0.83315120027E+02  0.10084776117E+03  0.00000000000E+00 0. -1.
</event>
<event>
 7    1  0.6294601E-006  0.9800316E+02  0.7818608E-02  0.1319947E+00
          2   -1    0    0  502    0  0.00000000000E+00  0.00000000000E+00  0.13304898394E+04  0.13304898394E+04  0.00000000000E+00 0. -1.
          1   -1    0    0  501    0 -0.00000000000E+00 -0.00000000000E+00 -0.49710268211E+03  0.49710268211E+03  0.00000000000E+00 0. -1.
         25    2    1    2    0    0 -0.44034178600E+02  0.12956901749E+03  0.62285867915E+03  0.64984883756E+03  0.12499375308E+03 0.  0.
          2    1    1    2  501    0 -0.18353536188E+02 -0.96100897956E+02 -0.47682232442E+03  0.48675637021E+03  0.00000000000E+00 0. -1.
          1    1    1    2  502    0  0.62387714788E+02 -0.33468119531E+02  0.68735080256E+03  0.69098731375E+03  0.00000000000E+00 0. -1.
         22    1    3    3    0    0  0.16081435871E+02  0.97715876904E+02  0.49708947668E+03  0.50685792191E+03  0.00000000000E+00 0. -1.
         22    1    3    3    0    0 -0.60115614471E+02  0.31853140583E+02  0.12576920247E+03  0.14299091565E+03  0.00000000000E+00 0. -1.
</event>
<event>
 7    1  0.6294601E-006  0.6947750E+02  0.7818608E-02  0.1436090E+00
          2   -1    0    0  502    0  0.00000000000E+00  0.00000000000E+00  0.48286204145E+03  0.48286204145E+03  0.00000000000E+00 0. -1.
          1   -1    0    0  501    0 -0.00000000000E+00 -0.00000000000E+00 -0.17582169109E+04  0.17582169109E+04  0.00000000000E+00 0. -1.
         25    2    1    2    0    0 -0.74468119564E+02  0.46791321685E+01 -0.37257654973E+03  0.40000719868E+03  0.12500031391E+03 0.  0.
          2    1    1    2  501    0  0.57622485993E+02 -0.39360288470E+02 -0.13702434973E+04  0.13720192510E+04  0.00000000000E+00 0. -1.
          1    1    1    2  502    0  0.16845633571E+02  0.34681156302E+02  0.46746517761E+03  0.46905250266E+03  0.00000000000E+00 0. -1.
         22    1    3    3    0    0 -0.32920738818E+02  0.59309209239E+02 -0.25496380765E+03  0.26383309223E+03  0.00000000000E+00 0. -1.
         22    1    3    3    0    0 -0.41547380747E+02 -0.54630077071E+02 -0.11761274208E+03  0.13617410645E+03  0.00000000000E+00 0. -1.
</event>
<event>
 7    1  0.6294601E-006  0.1272685E+03  0.7818608E-02  0.1237732E+00
          2   -1    0    0  502    0  0.00000000000E+00  0.00000000000E+00  0.35060880120E+03  0.35060880120E+03  0.00000000000E+00 0. -1.
          1   -1    0    0  501    0 -0.00000000000E+00 -0.00000000000E+00 -0.11863255525E+04  0.11863255525E+04  0.00000000000E+00 0. -1.
         25    2    1    2    0    0 -0.81534649224E+02  0.10104235689E+03 -0.22196368562E+02  0.18159322545E+03  0.12500385531E+03 0.  0.
          2    1    1    2  501    0 -0.35559660906E+02 -0.12478379344E+03 -0.10671343198E+04  0.10749935540E+04  0.00000000000E+00 0. -1.
          1    1    1    2  502    0  0.11709431013E+03  0.23741436551E+02  0.25361393711E+03  0.28034757422E+03  0.00000000000E+00 0. -1.
         22    1    3    3    0    0 -0.44052481357E+02  0.61639914831E+02  0.50319209903E+02  0.90951212742E+02  0.00000000000E+00 0. -1.
         22    1    3    3    0    0 -0.37482167868E+02  0.39402442055E+02 -0.72515578465E+02  0.90642012710E+02  0.00000000000E+00 0. -1.
</event>
<event>
 7    1  0.6294601E-006  0.3171378E+02  0.7818608E-02  0.1617529E+00
          2   -1    0    0  502    0  0.00000000000E+00  0.00000000000E+00  0.52581310600E+03  0.52581310600E+03  0.00000000000E+00 0. -1.
          1   -1    0    0  501    0 -0.00000000000E+00 -0.00000000000E+00 -0.22456316522E+02  0.22456316522E+02  0.00000000000E+00 0. -1.
         25    2    1    2    0    0 -0.20299750808E+02 -0.42777285193E+02  0.36276438704E+03  0.38660781372E+03  0.12500250043E+03 0.  0.
          2    1    1    2  501    0 -0.20336252694E+01  0.30941377726E+02  0.16704080942E+02  0.35221169876E+02  0.00000000000E+00 0. -1.
          1    1    1    2  502    0  0.22333376078E+02  0.11835907467E+02  0.12388832150E+03  0.12644043893E+03  0.00000000000E+00 0. -1.
         22    1    3    3    0    0 -0.53030365783E+02 -0.37152616775E+02  0.34055430641E+03  0.34665512003E+03  0.00000000000E+00 0. -1.
         22    1    3    3    0    0  0.32730614975E+02 -0.56246684185E+01  0.22210080626E+02  0.39952693687E+02  0.00000000000E+00 0. -1.
</event>
<event>
 7    1  0.6294601E-006  0.1326354E+03  0.7818608E-02  0.1305471E+00
          2   -1    0    0  502    0  0.00000000000E+00  0.00000000000E+00  0.12718867643E+04  0.12718867643E+04  0.00000000000E+00 0. -1.
          1   -1    0    0  501    0 -0.00000000000E+00 -0.00000000000E+00 -0.14420837588E+03  0.14420837588E+03  0.00000000000E+00 0. -1.
         25    2    1    2    0    0 -0.83278538721E+02 -0.23414175900E+02  0.61859523232E+02  0.16412276474E+03  0.12500457051E+03 0.  0.
          2    1    1    2  501    0 -0.31505379219E+02 -0.50618436489E+02 -0.79033721207E+02  0.99000727877E+02  0.00000000000E+00 0. -1.
          1    1    1    2  502    0  0.11478391794E+03  0.74032612389E+02  0.11448525864E+04  0.11529716476E+04  0.00000000000E+00 0. -1.
         22    1    3    3    0    0 -0.10107099007E+02  0.36263179951E+02  0.58593571191E+02  0.69644657048E+02  0.00000000000E+00 0. -1.
         22    1    3    3    0    0 -0.73171439714E+02 -0.59677355851E+02  0.32659520412E+01  0.94478107696E+02  0.00000000000E+00 0. -1.
</event>
<event>
 7    1  0.6294601E-006  0.9498194E+02  0.7818608E-02  0.1303274E+00
          2   -1    0    0  502    0  0.00000000000E+00  0.00000000000E+00  0.25347288941E+04  0.25347288941E+04  0.00000000000E+00 0. -1.
          1   -1    0    0  501    0 -0.00000000000E+00 -0.00000000000E+00 -0.29060461014E+03  0.29060461014E+03  0.00000000000E+00 0. -1.
         25    2    1    2    0    0  0.85655745583E+02  0.12110765671E+03  0.24375567552E+03  0.31152160262E+03  0.12499963314E+03 0.  0.
          2    1    1    2  501    0  0.11794684003E+01 -0.84941283060E+02 -0.24868402722E+03  0.26279299479E+03  0.00000000000E+00 0. -1.
          1    1    1    2  502    0 -0.86835213983E+02 -0.36166373647E+02  0.22490526357E+04  0.22510189069E+04  0.00000000000E+00 0. -1.
         22    1    3    3    0    0  0.37644717129E+02  0.28853949227E+01  0.14593807040E+03  0.15074272992E+03  0.00000000000E+00 0. -1.
         22    1    3    3    0    0  0.48011028454E+02  0.11822226178E+03  0.97817605125E+02  0.16077887270E+03  0.00000000000E+00 0. -1.
</event>
<event>
 7    1  0.6294601E-006  0.1183391E+03  0.7818608E-02  0.1414367E+00
          2   -1    0    0  502    0  0.00000000000E+00  0.00000000000E+00  0.55134819986E+03  0.55134819986E+03  0.00000000000E+00 0. -1.
          1   -1    0    0  501    0 -0.00000000000E+00 -0.00000000000E+00 -0.15054805264E+03  0.15054805264E+03  0.00000000000E+00 0. -1.
         25    2    1    2    0    0 -0.98019039497E+02 -0.52719775164E+02  0.17421725482E+03  0.24158566613E+03  0.12499950161E+03 0.  0.
          2    1    1    2  501    0  0.58967860763E+01 -0.26060034663E+02 -0.10443425212E+03  0.10779800791E+03  0.00000000000E+00 0. -1.
          1    1    1    2  502    0  0.92122253421E+02  0.78779809827E+02  0.33101714452E+03  0.35251257847E+03  0.00000000000E+00 0. -1.
         22    1    3    3    0    0 -0.56105569600E+02 -0.30794165124E+02  0.18264954310E+03  0.19353803538E+03  0.00000000000E+00 0. -1.
         22    1    3    3    0    0 -0.41913469897E+02 -0.21925610040E+02 -0.84322882756E+01  0.48047630743E+02  0.00000000000E+00 0. -1.
</event>
<event>
 7    1  0.6294601E-006  0.4903673E+02  0.7818608E-02  0.1567902E+00
          2   -1    0    0  502    0  0.00000000000E+00  0.00000000000E+00  0.13460027504E+03  0.13460027504E+03  0.00000000000E+00 0. -1.
          1   -1    0    0  501    0 -0.00000000000E+00 -0.00000000000E+00 -0.97337728667E+03  0.97337728667E+03  0.00000000000E+00 0. -1.
         25    2    1    2    0    0  0.34673305360E+02  0.77856885687E+01 -0.70442442950E+03  0.71631122490E+03  0.12500055595E+03 0.  0.
          2    1    1    2  501    0  0.13505505516E+02 -0.17490902408E+02 -0.25782604213E+03  0.25877132443E+03  0.00000000000E+00 0. -1.
          1    1    1    2  502    0 -0.48178810876E+02  0.97052138389E+01  0.12347346000E+03  0.13289501238E+03  0.00000000000E+00 0. -1.
         22    1    3    3    0    0 -0.48809173001E+01 -0.47002414832E+02 -0.46918094241E+03  0.47155467029E+03  0.00000000000E+00 0. -1.
         22    1    3    3    0    0  0.39554222660E+02  0.54788103401E+02 -0.23524348709E+03  0.24475655461E+03  0.00000000000E+00 0. -1.
</event>
<event>
 7    1  0.6294601E-006  0.1492048E+03  0.7818608E-02  0.1341344E+00
          2   -1    0    0  502    0  0.00000000000E+00  0.00000000000E+00  0.80137916293E+03  0.80137916293E+03  0.00000000000E+00 0. -1.
          1   -1    0    0  501    0 -0.00000000000E+00 -0.00000000000E+00 -0.30330039795E+03  0.30330039795E+03  0.00000000000E+00 0. -1.
         25    2    1    2    0    0  0.97283759105E+02  0.55927527335E+02  0.50637602780E+03  0.53351019206E+03  0.12499770161E+03 0.  0.
          2    1    1    2  501    0 -0.13241847301E+03 -0.71744703482E+02 -0.26864777387E+03  0.30798308537E+03  0.00000000000E+00 0. -1.
          1    1    1    2  502    0  0.35134713901E+02  0.15817176147E+02  0.26035051105E+03  0.26318628343E+03  0.00000000000E+00 0. -1.
         22    1    3    3    0    0  0.10757157776E+03  0.47972458082E+02  0.24531856813E+03  0.27212901525E+03  0.00000000000E+00 0. -1.
         22    1    3    3    0    0 -0.10287818655E+02  0.79550692530E+01  0.26105745967E+03  0.26138117681E+03  0.00000000000E+00 0. -1.
</event>
<event>
 7    1  0.6294601E-006  0.4482776E+02  0.7818608E-02  0.1478398E+00
          2   -1    0    0  502    0  0.00000000000E+00  0.00000000000E+00  0.94170298092E+03  0.94170298092E+03  0.00000000000E+00 0. -1.
          1   -1    0    0  501    0 -0.00000000000E+00 -0.00000000000E+00 -0.11499996310E+04  0.11499996310E+04  0.00000000000E+00 0. -1.
         25    2    1    2    0    0 -0.43888074454E+02 -0.61157207337E+02 -0.16854631954E+02  0.14688979747E+03  0.12500466748E+03 0.  0.
          2    1    1    2  501    0  0.40637185934E+02  0.16583419945E+02 -0.10671064160E+04  0.10680086581E+04  0.00000000000E+00 0. -1.
          1    1    1    2  502    0  0.32508885203E+01  0.44573787392E+02  0.87566439790E+03  0.87680415633E+03  0.00000000000E+00 0. -1.
         22    1    3    3    0    0 -0.83930834696E+02 -0.29730343627E+02  0.95407595350E+01  0.89550569164E+02  0.00000000000E+00 0. -1.
         22    1    3    3    0    0  0.40042760242E+02 -0.31426863709E+02 -0.26395391489E+02  0.57339228302E+02  0.00000000000E+00 0. -1.
</event>
<event>
 7    1  0.6294601E-006  0.1692505E+03  0.7818608E-02  0.1249953E+00
          2   -1    0    0  502    0  0.00000000000E+00  0.00000000000E+00  0.17768056496E+04  0.17768056496E+04  0.00000000000E+00 0. -1.
          1   -1    0    0  501    0 -0.00000000000E+00 -0.00000000000E+00 -0.42363264347E+03  0.42363264347E+03  0.00000000000E+00 0. -1.
         25    2    1    2    0    0  0.77347132236E+02  0.53234148387E+02 -0.44081348122E+02  0.16243499515E+03  0.12500203589E+03 0.  0.
          2    1    1    2  501    0  0.73134839288E+02  0.30961109437E+02 -0.31104473466E+03  0.32102355361E+03  0.00000000000E+00 0. -1.
          1    1    1    2  502    0 -0.15048197152E+03 -0.84195257824E+02  0.17082990889E+04  0.17169797443E+04  0.00000000000E+00 0. -1.
         22    1    3    3    0    0  0.41479926932E+02  0.86575611154E+02 -0.57185879062E+02  0.11174142271E+03  0.00000000000E+00 0. -1.
         22    1    3    3    0    0  0.35867205304E+02 -0.33341462767E+02  0.13104530940E+02  0.50693572442E+02  0.00000000000E+00 0. -1.
</event>
<event>
 7    1  0.6294601E-006  0.8094647E+02  0.7818608E-02  0.1369863E+00
          2   -1    0    0  502    0  0.00000000000E+00  0.00000000000E+00  0.58430316732E+03  0.58430316732E+03  0.00000000000E+00 0. -1.
          1   -1    0    0  501    0 -0.00000000000E+00 -0.00000000000E+00 -0.83012061313E+03  0.83012061313E+03  0.00000000000E+00 0. -1.
         25    2    1    2    0    0 -0.30845224056E+02 -0.92062656339E+01 -0.28239468346E+03  0.31049689318E+03  0.12500152101E+03 0.  0.
          2    1    1    2  501    0 -0.48536621031E+02  0.27522157102E+02 -0.52929123875E+03  0.53222409579E+03  0.00000000000E+00 0. -1.
          1    1    1    2  502    0  0.79381845088E+02 -0.18315891468E+02  0.56586847640E+03  0.57170279149E+03  0.00000000000E+00 0. -1.
         22    1    3    3    0    0  0.18505829237E+02  0.13053773917E+02  0.31631068183E+00  0.22648769982E+02  0.00000000000E+00 0. -1.
         22    1    3    3    0    0 -0.49351053294E+02 -0.22260039551E+02 -0.28271099414E+03  0.28784812320E+03  0.00000000000E+00 0. -1.
</event>
<event>
 7    1  0.6294601E-006  0.6099909E+02  0.7818608E-02  0.1488050E+00
          2   -1    0    0  502    0  0.00000000000E+00  0.00000000000E+00  0.16859684342E+03  0.16859684342E+03  0.00000000000E+00 0. -1.
          1   -1    0    0  501    0 -0.00000000000E+00 -0.00000000000E+00 -0.39179623446E+03  0.39179623446E+03  0.00000000000E+00 0. -1.
         25    2    1    2    0    0 -0.45430184538E+02  0.62757332974E+02 -0.14227147157E+03  0.20461788725E+03  0.12499969460E+03 0.  0.
          2    1    1    2  501    0  0.49458462507E+02 -0.32889544642E+02 -0.21257777076E+03  0.22071966446E+03  0.00000000000E+00 0. -1.
          1    1    1    2  502    0 -0.40282779686E+01 -0.29867788333E+02  0.13164985129E+03  0.13505552616E+03  0.00000000000E+00 0. -1.
         22    1    3    3    0    0  0.22790182031E+02  0.20130291754E+01 -0.10244438031E+03  0.10496807010E+03  0.00000000000E+00 0. -1.
         22    1    3    3    0    0 -0.68220366569E+02  0.60744303799E+02 -0.39827091254E+02  0.99649817142E+02  0.00000000000E+00 0. -1.
</event>
<event>
 7    1  0.6294601E-006  0.9613004E+02  0.7818608E-02  0.1336785E+00
          2   -1    0    0  502    0  0.00000000000E+00  0.00000000000E+00  0.11084863510E+04  0.11084863510E+04  0.00000000000E+00 0. -1.
          1   -1    0    0  501    0 -0.00000000000E+00 -0.00000000000E+00 -0.25539630339E+04  0.25539630339E+04  0.00000000000E+00 0. -1.
         25    2    1    2    0    0 -0.35178418839E+02 -0.85729441536E+01  0.37092273649E+03  0.39308975297E+03  0.12499944368E+03 0.  0.
          2    1    1    2  501    0  0.96212640817E+02 -0.35008361834E+01 -0.25406339991E+04  0.25424575209E+04  0.00000000000E+00 0. -1.
          1    1    1    2  502    0 -0.61034221978E+02  0.12073780337E+02  0.72423457978E+03  0.72690211100E+03  0.00000000000E+00 0. -1.
         22    1    3    3    0    0  0.12628734776E+02 -0.35719256284E+02  0.30458456377E+03  0.30693176229E+03  0.00000000000E+00 0. -1.
         22    1    3    3    0    0 -0.47807153615E+02  0.27146312130E+02  0.66338172717E+02  0.86157990683E+02  0.00000000000E+00 0. -1.
</event>
<event>
 7    1  0.6294601E-006  0.4239207E+02  0.7818608E-02  0.1494653E+00
          2   -1    0    0  502    0  0.00000000000E+00  0.00000000000E+00  0.26344576665E+03  0.26344576665E+03  0.00000000000E+00 0. -1.
          1   -1    0    0  501    0 -0.00000000000E+00 -0.00000000000E+00 -0.62107198956E+02  0.62107198956E+02  0.00000000000E+00 0. -1.
         25    2    1    2    0    0  0.93154195437E+01 -0.42247850572E+01  0.97513839174E+02  0.15886331535E+03  0.12499591307E+03 0.  0.
          2    1    1    2  501    0 -0.17351897073E+02  0.44858377811E+02 -0.67897425957E+01  0.48574303870E+02  0.00000000000E+00 0. -1.
          1    1    1    2  502    0  0.80364775297E+01 -0.40633592754E+02  0.11061447112E+03  0.11811534638E+03  0.00000000000E+00 0. -1.
         22    1    3    3    0    0 -0.35298836980E+02 -0.39539995603E+02  0.85674258367E+02  0.10074471545E+03  0.00000000000E+00 0.  1.
         22    1    3    3    0    0  0.44614256524E+02  0.35315210546E+02  0.11839580807E+02  0.58118599904E+02  0.00000000000E+00 0.  1.
</event>
<event>
 7    1  0.6294601E-006  0.7440045E+02  0.7818608E-02  0.1496253E+00
          2   -1    0    0  502    0  0.00000000000E+00  0.00000000000E+00  0.43202984472E+04  0.43202984472E+04  0.00000000000E+00 0. -1.
          1   -1    0    0  501    0 -0.00000000000E+00 -0.00000000000E+00 -0.21639327330E+02  0.21639327330E+02  0.00000000000E+00 0. -1.
         25    2    1    2    0    0 -0.51570298630E+02 -0.99369178034E+01  0.57210460645E+03  0.58795070841E+03  0.12499646700E+03 0.  0.
          2    1    1    2  501    0 -0.21378891418E+02 -0.93673375658E+01 -0.31205494681E+01  0.23548712074E+02  0.00000000000E+00 0. -1.
          1    1    1    2  502    0  0.72949190049E+02  0.19304255369E+02  0.37296750629E+04  0.37304383540E+04  0.00000000000E+00 0. -1.
         22    1    3    3    0    0 -0.33836715855E+02  0.40247706602E+02  0.46880844381E+03  0.47174798168E+03  0.00000000000E+00 0. -1.
         22    1    3    3    0    0 -0.17733582775E+02 -0.50184624406E+02  0.10329616264E+03  0.11620272674E+03  0.00000000000E+00 0. -1.
</event>
<event>
 7    1  0.6294601E-006  0.1122456E+03  0.7818608E-02  0.1363113E+00
          2   -1    0    0  502    0  0.00000000000E+00  0.00000000000E+00  0.86719112071E+03  0.86719112071E+03  0.00000000000E+00 0. -1.
          1   -1    0    0  501    0 -0.00000000000E+00 -0.00000000000E+00 -0.41245965362E+03  0.41245965362E+03  0.00000000000E+00 0. -1.
         25    2    1    2    0    0  0.13201549300E+03  0.49340303152E+02 -0.96417532627E+02  0.21162122104E+03  0.12499857875E+03 0.  0.
          2    1    1    2  501    0 -0.40160891157E+02  0.14096265483E+02 -0.25280473526E+03  0.25636270409E+03  0.00000000000E+00 0. -1.
          1    1    1    2  502    0 -0.91854601844E+02 -0.63436568635E+02  0.80395373498E+03  0.81166684921E+03  0.00000000000E+00 0. -1.
         22    1    3    3    0    0  0.36590568107E+02  0.13524383235E+02  0.30015094160E+02  0.49220772989E+02  0.00000000000E+00 0.  1.
         22    1    3    3    0    0  0.95424924894E+02  0.35815919917E+02 -0.12643262679E+03  0.16240044805E+03  0.00000000000E+00 0.  1.
</event>
<event>
 7    1  0.6294601E-006  0.1461273E+03  0.7818608E-02  0.1416831E+00
          2   -1    0    0  502    0  0.00000000000E+00  0.00000000000E+00  0.12871126484E+04  0.12871126484E+04  0.00000000000E+00 0. -1.
          1   -1    0    0  501    0 -0.00000000000E+00 -0.00000000000E+00 -0.20919045885E+03  0.20919045885E+03  0.00000000000E+00 0. -1.
         25    2    1    2    0    0  0.10629184458E+03 -0.68310232667E+02  0.38328487898E+03  0.42248871396E+03  0.12500068344E+03 0.  0.
          2    1    1    2  501    0 -0.12488276950E+03  0.78559910635E+02 -0.16073345844E+03  0.21818022445E+03  0.00000000000E+00 0. -1.
          1    1    1    2  502    0  0.18590924920E+02 -0.10249677968E+02  0.85537076899E+03  0.85563416880E+03  0.00000000000E+00 0. -1.
         22    1    3    3    0    0  0.74874194160E+02 -0.91037617020E+02  0.17743963181E+03  0.21302304007E+03  0.00000000000E+00 0.  1.
         22    1    3    3    0    0  0.31417650420E+02  0.22727384353E+02  0.20584524716E+03  0.20946567389E+03  0.00000000000E+00 0.  1.
</event>
<event>
 7    1  0.6294601E-006  0.2358808E+03  0.7818608E-02  0.1327957E+00
          2   -1    0    0  502    0  0.00000000000E+00  0.00000000000E+00  0.76250046201E+03  0.76250046201E+03  0.00000000000E+00 0. -1.
          1   -1    0    0  501    0 -0.00000000000E+00 -0.00000000000E+00 -0.26693808344E+03  0.26693808344E+03  0.00000000000E+00 0. -1.
         25    2    1    2    0    0  0.17353861445E+03  0.15848651870E+03  0.37480829582E+03  0.45971738339E+03  0.12500074663E+03 0.  0.
          2    1    1    2  501    0 -0.15477372704E+03 -0.17844614193E+03 -0.16149587920E+03  0.28614480801E+03  0.00000000000E+00 0. -1.
          1    1    1    2  502    0 -0.18764887409E+02  0.19959623231E+02  0.28224996195E+03  0.28357635405E+03  0.00000000000E+00 0. -1.
         22    1    3    3    0    0  0.54595626344E+01  0.26897704096E+02  0.13882699417E+03  0.14151405450E+03  0.00000000000E+00 0. -1.
         22    1    3    3    0    0  0.16807905182E+03  0.13158881460E+03  0.23598130165E+03  0.31820332889E+03  0.00000000000E+00 0. -1.
</event>
<event>
 7    1  0.6294601E-006  0.1668056E+03  0.7818608E-02  0.1246512E+00
          2   -1    0    0  502    0  0.00000000000E+00  0.00000000000E+00  0.28921147330E+04  0.28921147330E+04  0.00000000000E+00 0. -1.
          1   -1    0    0  501    0 -0.00000000000E+00 -0.00000000000E+00 -0.31212655501E+03  0.31212655501E+03  0.00000000000E+00 0. -1.
         25    2    1    2    0    0  0.92495903783E+02  0.22665498362E+03  0.21714191585E+03  0.35027241626E+03  0.12494871011E+03 0.  0.
          2    1    1    2  501    0 -0.15771015690E+02 -0.81903952622E+02 -0.23582389185E+03  0.25013974166E+03  0.00000000000E+00 0. -1.
          1    1    1    2  502    0 -0.76724888093E+02 -0.14475103099E+03  0.25986701540E+04  0.26038291301E+04  0.00000000000E+00 0. -1.
         22    1    3    3    0    0  0.17959891507E+02 -0.14050264691E+02  0.20104530726E+02  0.30399996654E+02  0.00000000000E+00 0.  1.
         22    1    3    3    0    0  0.74536012276E+02  0.24070524831E+03  0.19703738512E+03  0.31987241960E+03  0.00000000000E+00 0.  1.
</event>
<event>
 7    1  0.6294601E-006  0.8467323E+02  0.7818608E-02  0.1337295E+00
          2   -1    0    0  502    0  0.00000000000E+00  0.00000000000E+00  0.34295917207E+03  0.34295917207E+03  0.00000000000E+00 0. -1.
          1   -1    0    0  501    0 -0.00000000000E+00 -0.00000000000E+00 -0.29886724894E+03  0.29886724894E+03  0.00000000000E+00 0. -1.
         25    2    1    2    0    0  0.35386007622E+02  0.10667968039E+03  0.13044889556E+03  0.21278712412E+03  0.12501488749E+03 0.  0.
          2    1    1    2  501    0 -0.63914599259E+02 -0.29328427656E+02 -0.24248728106E+03  0.25247834391E+03  0.00000000000E+00 0. -1.
          1    1    1    2  502    0  0.28528591637E+02 -0.77351252735E+02  0.15613030864E+03  0.17656095298E+03  0.00000000000E+00 0. -1.
         22    1    3    3    0    0 -0.63002287859E+01  0.97310095596E+02  0.27489597269E+02  0.10131448833E+03  0.00000000000E+00 0. -1.
         22    1    3    3    0    0  0.41686236408E+02  0.93695847946E+01  0.10295929830E+03  0.11147263579E+03  0.00000000000E+00 0. -1.
</event>
<event>
 7    1  0.6294601E-006  0.7991775E+02  0.7818608E-02  0.1417120E+00
          2   -1    0    0  502    0  0.00000000000E+00  0.00000000000E+00  0.37473686140E+03  0.37473686140E+03  0.00000000000E+00 0. -1.
          1   -1    0    0  501    0 -0.00000000000E+00 -0.00000000000E+00 -0.14316202643E+04  0.14316202643E+04  0.00000000000E+00 0. -1.
         25    2    1    2    0    0  0.45973555577E+02 -0.71024313080E+02 -0.23758518003E+03  0.28148142567E+03  0.12500821720E+03 0.  0.
          2    1    1    2  501    0 -0.69379706392E+02  0.40166536152E+02 -0.11696477443E+04  0.11723918884E+04  0.00000000000E+00 0. -1.
          1    1    1    2  502    0  0.23406150815E+02  0.30857776929E+02  0.35034952142E+03  0.35248381162E+03  0.00000000000E+00 0. -1.
         22    1    3    3    0    0  0.71270095841E+02 -0.91574201621E+02 -0.16299317790E+03  0.20008007648E+03  0.00000000000E+00 0. -1.
         22    1    3    3    0    0 -0.25296540263E+02  0.20549888540E+02 -0.74592002130E+02  0.81401349191E+02  0.00000000000E+00 0. -1.
</event>
<event>
 7    1  0.6294601E-006  0.5728794E+02  0.7818608E-02  0.1411439E+00
          2   -1    0    0  502    0  0.00000000000E+00  0.00000000000E+00  0.51870397414E+03  0.51870397414E+03  0.00000000000E+00 0. -1.
          1   -1    0    0  501    0 -0.00000000000E+00 -0.00000000000E+00 -0.75396382674E+03  0.75396382674E+03  0.00000000000E+00 0. -1.
         25    2    1    2    0    0 -0.12142126071E+02 -0.66233445864E+02  0.16661089207E+03  0.21890060648E+03  0.12499594227E+03 0.  0.
          2    1    1    2  501    0  0.51657962799E+02  0.22792971204E+02 -0.72406590417E+03  0.72626406922E+03  0.00000000000E+00 0. -1.
          1    1    1    2  502    0 -0.39515836728E+02  0.43440474660E+02  0.32219515951E+03  0.32750312518E+03  0.00000000000E+00 0. -1.
         22    1    3    3    0    0 -0.44680582330E+02  0.13721990016E+02  0.24876372525E+02  0.52947911737E+02  0.00000000000E+00 0. -1.
         22    1    3    3    0    0  0.32538456258E+02 -0.79955435881E+02  0.14173451954E+03  0.16595269474E+03  0.00000000000E+00 0. -1.
</event>
<event>
 7    1  0.6294601E-006  0.2900885E+02  0.7818608E-02  0.1620777E+00
          2   -1    0    0  502    0  0.00000000000E+00  0.00000000000E+00  0.32103623748E+03  0.32103623748E+03  0.00000000000E+00 0. -1.
          1   -1    0    0  501    0 -0.00000000000E+00 -0.00000000000E+00 -0.17989990944E+04  0.17989990944E+04  0.00000000000E+00 0. -1.
         25    2    1    2    0    0  0.48107655245E+02  0.14119806964E+02  0.11163631890E+03  0.17493151035E+03  0.12499860069E+03 0.  0.
          2    1    1    2  501    0 -0.28609248183E+02  0.47164841786E+01 -0.17661980778E+04  0.17664360686E+04  0.00000000000E+00 0. -1.
          1    1    1    2  502    0 -0.19498407062E+02 -0.18836291143E+02  0.17659890202E+03  0.17866775293E+03  0.00000000000E+00 0. -1.
         22    1    3    3    0    0  0.62751688184E+02  0.35106029710E+02  0.12637593353E+03  0.14539973957E+03  0.00000000000E+00 0.  1.
         22    1    3    3    0    0 -0.14644032939E+02 -0.20986222746E+02 -0.14739614629E+02  0.29531770778E+02  0.00000000000E+00 0.  1.
</event>
<event>
 7    1  0.6294601E-006  0.1300497E+03  0.7818608E-02  0.1312771E+00
          2   -1    0    0  502    0  0.00000000000E+00  0.00000000000E+00  0.66123332655E+03  0.66123332655E+03  0.00000000000E+00 0. -1.
          1   -1    0    0  501    0 -0.00000000000E+00 -0.00000000000E+00 -0.19299917502E+03  0.19299917502E+03  0.00000000000E+00 0. -1.
         25    2    1    2    0    0 -0.21006364382E+02  0.15415668909E+03  0.10853672431E+03  0.22717949999E+03  0.12499901022E+03 0.  0.
          2    1    1    2  501    0  0.59335002437E+02 -0.11209645493E+03 -0.10144610928E+03  0.16241173237E+03  0.00000000000E+00 0. -1.
          1    1    1    2  502    0 -0.38328638056E+02 -0.42060234162E+02  0.46114353650E+03  0.46464126920E+03  0.00000000000E+00 0. -1.
         22    1    3    3    0    0  0.47754589923E+02  0.26604602446E+02  0.30404706234E+02  0.62551993503E+02  0.00000000000E+00 0.  1.
         22    1    3    3    0    0 -0.68760954304E+02  0.12755208665E+03  0.78132018073E+02  0.16462750649E+03  0.00000000000E+00 0.  1.
</event>
<event>
 7    1  0.6294601E-006  0.1338002E+03  0.7818608E-02  0.1321982E+00
          2   -1    0    0  502    0  0.00000000000E+00  0.00000000000E+00  0.20001849220E+04  0.20001849220E+04  0.00000000000E+00 0. -1.
          1   -1    0    0  501    0 -0.00000000000E+00 -0.00000000000E+00 -0.81899272111E+02  0.81899272111E+02  0.00000000000E+00 0. -1.
         25    2    1    2    0    0  0.49906335721E+02  0.11669867892E+03  0.91206173058E+03  0.92929552863E+03  0.12499742047E+03 0.  0.
          2    1    1    2  501    0 -0.45010963309E+02  0.23816795086E+02 -0.59222079497E+02  0.78105577560E+02  0.00000000000E+00 0. -1.
          1    1    1    2  502    0 -0.48953724120E+01 -0.14051547401E+03  0.10654459988E+04  0.10746830879E+04  0.00000000000E+00 0. -1.
         22    1    3    3    0    0  0.17440975751E+01  0.15530279424E+02  0.55158391274E+03  0.55180525936E+03  0.00000000000E+00 0. -1.
         22    1    3    3    0    0  0.48162238145E+02  0.10116839950E+03  0.36047781784E+03  0.37749026927E+03  0.00000000000E+00 0. -1.
</event>
<event>
 7    1  0.6294601E-006  0.1898965E+03  0.7818608E-02  0.1210556E+00
          2   -1    0    0  502    0  0.00000000000E+00  0.00000000000E+00  0.12830830337E+04  0.12830830337E+04  0.00000000000E+00 0. -1.
          1   -1    0    0  501    0 -0.00000000000E+00 -0.00000000000E+00 -0.44642266741E+03  0.44642266741E+03  0.00000000000E+00 0. -1.
         25    2    1    2    0    0  0.16822681971E+03 -0.22920167454E+03 -0.69060260600E+02  0.31816273577E+03  0.12499814543E+03 0.  0.
          2    1    1    2  501    0 -0.86601250611E+02  0.61653252820E+02 -0.23372013486E+03  0.25676059205E+03  0.00000000000E+00 0. -1.
          1    1    1    2  502    0 -0.81625569097E+02  0.16754842172E+03  0.11394407617E+04  0.11545823732E+04  0.00000000000E+00 0. -1.
         22    1    3    3    0    0  0.93017231323E+02 -0.36117587122E+02 -0.45318877736E+02  0.10959236334E+03  0.00000000000E+00 0.  1.
         22    1    3    3    0    0  0.75209588385E+02 -0.19308408741E+03 -0.23741382864E+02  0.20857037244E+03  0.00000000000E+00 0.  1.
</event>
<event>
 7    1  0.6294601E-006  0.5184112E+02  0.7818608E-02  0.1448460E+00
          2   -1    0    0  502    0  0.00000000000E+00  0.00000000000E+00  0.30541437315E+03  0.30541437315E+03  0.00000000000E+00 0. -1.
          1   -1    0    0  501    0 -0.00000000000E+00 -0.00000000000E+00 -0.65468747895E+02  0.65468747895E+02  0.00000000000E+00 0. -1.
         25    2    1    2    0    0  0.18202927588E+02 -0.84597507866E+01  0.17468993427E+03  0.21574217211E+03  0.12500079092E+03 0.  0.
          2    1    1    2  501    0  0.44311361052E+02  0.26907349251E+02 -0.12851673677E+02  0.53410370513E+02  0.00000000000E+00 0. -1.
          1    1    1    2  502    0 -0.62514288640E+02 -0.18447598464E+02  0.78107364657E+02  0.10173057843E+03  0.00000000000E+00 0. -1.
         22    1    3    3    0    0  0.31063880405E+02  0.28993206920E+02  0.17073771491E+03  0.17594583828E+03  0.00000000000E+00 0. -1.
         22    1    3    3    0    0 -0.12860952817E+02 -0.37452957707E+02  0.39522193629E+01  0.39796333829E+02  0.00000000000E+00 0. -1.
</event>
<event>
 7    1  0.6294601E-006  0.1886442E+03  0.7818608E-02  0.1181732E+00
          2   -1    0    0  502    0  0.00000000000E+00  0.00000000000E+00  0.75715551029E+03  0.75715551029E+03  0.00000000000E+00 0. -1.
          1   -1    0    0  501    0 -0.00000000000E+00 -0.00000000000E+00 -0.12184736625E+04  0.12184736625E+04  0.00000000000E+00 0. -1.
         25    2    1    2    0    0 -0.18405758248E+03 -0.36118781063E+02  0.56253199382E+00  0.22540242428E+03  0.12499670561E+03 0.  0.
          2    1    1    2  501    0  0.21875040387E+02  0.14501212205E+03 -0.10862018029E+04  0.10960572018E+04  0.00000000000E+00 0. -1.
          1    1    1    2  502    0  0.16218254209E+03 -0.10889334098E+03  0.62432111868E+03  0.65416954675E+03  0.00000000000E+00 0. -1.
         22    1    3    3    0    0 -0.90500438160E+02  0.41696073126E+02 -0.20962255659E+02  0.10182488882E+03  0.00000000000E+00 0. -1.
         22    1    3    3    0    0 -0.93557144321E+02 -0.77814854189E+02  0.21524787652E+02  0.12357753546E+03  0.00000000000E+00 0. -1.
</event>
<event>
 7    1  0.6294601E-006  0.5500034E+02  0.7818608E-02  0.1445514E+00
          2   -1    0    0  502    0  0.00000000000E+00  0.00000000000E+00  0.10587268128E+03  0.10587268128E+03  0.00000000000E+00 0. -1.
          1   -1    0    0  501    0 -0.00000000000E+00 -0.00000000000E+00 -0.10461324503E+04  0.10461324503E+04  0.00000000000E+00 0. -1.
         25    2    1    2    0    0 -0.27170101069E+02 -0.26516529593E+02 -0.34913749374E+03  0.37277747950E+03  0.12499887579E+03 0.  0.
          2    1    1    2  501    0 -0.55892716893E+01  0.57943139549E+02 -0.67837707014E+03  0.68087010264E+03  0.00000000000E+00 0. -1.
          1    1    1    2  502    0  0.32759372758E+02 -0.31426609956E+02  0.87254794833E+02  0.98357549472E+02  0.00000000000E+00 0. -1.
         22    1    3    3    0    0  0.24539444466E+02  0.14305871586E+02 -0.26201328517E+03  0.26354848492E+03  0.00000000000E+00 0. -1.
         22    1    3    3    0    0 -0.51709545535E+02 -0.40822401179E+02 -0.87124208570E+02  0.10922899458E+03  0.00000000000E+00 0. -1.
</event>
<event>
 7    1  0.6294601E-006  0.1558450E+03  0.7818608E-02  0.1263970E+00
          2   -1    0    0  502    0  0.00000000000E+00  0.00000000000E+00  0.12771574998E+04  0.12771574998E+04  0.00000000000E+00 0. -1.
          1   -1    0    0  501    0 -0.00000000000E+00 -0.00000000000E+00 -0.84281446040E+03  0.84281446040E+03  0.00000000000E+00 0. -1.
         25    2    1    2    0    0  0.16583565376E+02  0.18667813611E+03  0.24751874821E+03  0.33468633675E+03  0.12500268859E+03 0.  0.
          2    1    1    2  501    0  0.47723167241E+02 -0.14788975527E+03 -0.79022226060E+03  0.80535712671E+03  0.00000000000E+00 0. -1.
          1    1    1    2  502    0 -0.64306732617E+02 -0.38788380831E+02  0.97704655175E+03  0.97992849670E+03  0.00000000000E+00 0. -1.
         22    1    3    3    0    0 -0.93414764734E+01  0.19710052152E+03  0.21798768435E+03  0.29403147671E+03  0.00000000000E+00 0. -1.
         22    1    3    3    0    0  0.25925041849E+02 -0.10422385417E+02  0.29531063856E+02  0.40654860044E+02  0.00000000000E+00 0. -1.
</event>
<event>
 7    1  0.6294601E-006  0.8586664E+02  0.7818608E-02  0.1341222E+00
          2   -1    0    0  502    0  0.00000000000E+00  0.00000000000E+00  0.47051907090E+03  0.47051907090E+03  0.00000000000E+00 0. -1.
          1   -1    0    0  501    0 -0.00000000000E+00 -0.00000000000E+00 -0.11901993647E+03  0.11901993647E+03  0.00000000000E+00 0. -1.
         25    2    1    2    0    0  0.55129415696E+02  0.56503027199E+02  0.13401854823E+03  0.19954816305E+03  0.12500661402E+03 0.  0.
          2    1    1    2  501    0  0.28813371083E+01 -0.90072119225E+02 -0.57539972290E+02  0.10692117272E+03  0.00000000000E+00 0. -1.
          1    1    1    2  502    0 -0.58010752805E+02  0.33569092026E+02  0.27502055849E+03  0.28306967159E+03  0.00000000000E+00 0. -1.
         22    1    3    3    0    0 -0.45610587682E+01 -0.36580626921E+02  0.40081659521E+02  0.54456266425E+02  0.00000000000E+00 0. -1.
         22    1    3    3    0    0  0.59690474464E+02  0.93083654121E+02  0.93936888712E+02  0.14509189663E+03  0.00000000000E+00 0. -1.
</event>
<event>
 7    1  0.6294601E-006  0.1135585E+03  0.7818608E-02  0.1394372E+00
          2   -1    0    0  502    0  0.00000000000E+00  0.00000000000E+00  0.11046665809E+04  0.11046665809E+04  0.00000000000E+00 0. -1.
          1   -1    0    0  501    0 -0.00000000000E+00 -0.00000000000E+00 -0.28285964045E+03  0.28285964045E+03  0.00000000000E+00 0. -1.
         25    2    1    2    0    0 -0.48564094150E+02 -0.87269559354E+02 -0.53765351503E+02  0.16879020661E+03  0.12499989438E+03 0.  0.
          2    1    1    2  501    0 -0.31935097333E+02  0.64864557851E+01 -0.16689627538E+03  0.17004790880E+03  0.00000000000E+00 0. -1.
          1    1    1    2  502    0  0.80499191483E+02  0.80783103568E+02  0.10424685673E+04  0.10486881059E+04  0.00000000000E+00 0. -1.
         22    1    3    3    0    0 -0.83608875726E+02 -0.23664888157E+02 -0.22736490521E+02  0.89818812244E+02  0.00000000000E+00 0.  1.
         22    1    3    3    0    0  0.35044781577E+02 -0.63604671196E+02 -0.31028860983E+02  0.78971394363E+02  0.00000000000E+00 0.  1.
</event>
<event>
 7    1  0.6294601E-006  0.1477239E+03  0.7818608E-02  0.1382873E+00
          2   -1    0    0  502    0  0.00000000000E+00  0.00000000000E+00  0.83584652809E+03  0.83584652809E+03  0.00000000000E+00 0. -1.
          1   -1    0    0  501    0 -0.00000000000E+00 -0.00000000000E+00 -0.82390939511E+03  0.82390939511E+03  0.00000000000E+00 0. -1.
         25    2    1    2    0    0  0.86154484815E+02  0.91768962614E+02 -0.80768894167E+02  0.19491713384E+03  0.12499974818E+03 0.  0.
          2    1    1    2  501    0  0.27028046839E+02  0.49672561253E+01 -0.67866937937E+03  0.67922552620E+03  0.00000000000E+00 0. -1.
          1    1    1    2  502    0 -0.11318253165E+03 -0.96736218739E+02  0.77137540651E+03  0.78561326316E+03  0.00000000000E+00 0. -1.
         22    1    3    3    0    0  0.68818176177E+02  0.11828210502E+03 -0.87638794111E+02  0.16250278759E+03  0.00000000000E+00 0.  1.
         22    1    3    3    0    0  0.17336308638E+02 -0.26513142408E+02  0.68698999432E+01  0.32414346249E+02  0.00000000000E+00 0.  1.
</event>
<event>
 7    1  0.6294601E-006  0.7640559E+02  0.7818608E-02  0.1342626E+00
          2   -1    0    0  502    0  0.00000000000E+00  0.00000000000E+00  0.10206629683E+04  0.10206629683E+04  0.00000000000E+00 0. -1.
          1   -1    0    0  501    0 -0.00000000000E+00 -0.00000000000E+00 -0.28373898717E+03  0.28373898717E+03  0.00000000000E+00 0. -1.
         25    2    1    2    0    0  0.11339720434E+02 -0.13010212382E+03  0.18861491972E+03  0.26125548305E+03  0.12499475029E+03 0.  0.
          2    1    1    2  501    0 -0.42305582007E+02  0.62436477242E+02 -0.23987777023E+03  0.25145460945E+03  0.00000000000E+00 0. -1.
          1    1    1    2  502    0  0.30965861572E+02  0.67665646582E+02  0.78818683167E+03  0.79169186299E+03  0.00000000000E+00 0. -1.
         22    1    3    3    0    0  0.31721362458E+02 -0.12272151722E+03  0.78647306680E+02  0.14917176165E+03  0.00000000000E+00 0.  1.
         22    1    3    3    0    0 -0.20381642024E+02 -0.73806065998E+01  0.10996761304E+03  0.11208372140E+03  0.00000000000E+00 0.  1.
</event>
<event>
 7    1  0.6294601E-006  0.2594597E+02  0.7818608E-02  0.1668513E+00
          2   -1    0    0  502    0  0.00000000000E+00  0.00000000000E+00  0.71558051662E+03  0.71558051662E+03  0.00000000000E+00 0. -1.
          1   -1    0    0  501    0 -0.00000000000E+00 -0.00000000000E+00 -0.38786803992E+02  0.38786803992E+02  0.00000000000E+00 0. -1.
         25    2    1    2    0    0 -0.31233696486E+02 -0.23738915162E+02  0.14507271488E+03  0.19547385817E+03  0.12499942695E+03 0.  0.
          2    1    1    2  501    0  0.54000766979E+01  0.22466186559E+02 -0.32183963236E+01  0.23329132897E+02  0.00000000000E+00 0. -1.
          1    1    1    2  502    0  0.25833619788E+02  0.12727286035E+01  0.53493939407E+03  0.53556432954E+03  0.00000000000E+00 0. -1.
         22    1    3    3    0    0 -0.39736816608E+02 -0.20416402052E+02 -0.51529419511E+01  0.44971067117E+02  0.00000000000E+00 0.  1.
         22    1    3    3    0    0  0.85031201218E+01 -0.33225131103E+01  0.15022565683E+03  0.15050279106E+03  0.00000000000E+00 0.  1.
</event>
<event>
 7    1  0.6294601E-006  0.9794758E+02  0.7818608E-02  0.1412600E+00
          2   -1    0    0  502    0  0.00000000000E+00  0.00000000000E+00  0.29929704291E+03  0.29929704291E+03  0.00000000000E+00 0. -1.
          1   -1    0    0  501    0 -0.00000000000E+00 -0.00000000000E+00 -0.14135292483E+04  0.14135292483E+04  0.00000000000E+00 0. -1.
         25    2    1    2    0    0  0.10390361383E+03  0.33373406291E+02 -0.41085714941E+03  0.44310775740E+03  0.12502456652E+03 0.  0.
          2    1    1    2  501    0 -0.79586441099E+02 -0.55276504442E+02 -0.98321148667E+03  0.98797485853E+03  0.00000000000E+00 0. -1.
          1    1    1    2  502    0 -0.24317172733E+02  0.21903098151E+02  0.27983643071E+03  0.28174367527E+03  0.00000000000E+00 0. -1.
         22    1    3    3    0    0  0.63695222237E+02  0.19068743646E+02 -0.59671869249E+02  0.89338851010E+02  0.00000000000E+00 0. -1.
         22    1    3    3    0    0  0.40208391595E+02  0.14304662645E+02 -0.35118528016E+03  0.35376890639E+03  0.00000000000E+00 0. -1.
</event>
<event>
 7    1  0.6294601E-006  0.1337693E+03  0.7818608E-02  0.1243736E+00
          2   -1    0    0  502    0  0.00000000000E+00  0.00000000000E+00  0.91422310966E+03  0.91422310966E+03  0.00000000000E+00 0. -1.
          1   -1    0    0  501    0 -0.00000000000E+00 -0.00000000000E+00 -0.76529515511E+03  0.76529515511E+03  0.00000000000E+00 0. -1.
         25    2    1    2    0    0  0.18831960024E+03  0.74712256841E+02 -0.26200099512E+03  0.35400058214E+03  0.12500279018E+03 0.  0.
          2    1    1    2  501    0 -0.82841681612E+02 -0.92427280297E+02 -0.44548411865E+03  0.46245177730E+03  0.00000000000E+00 0. -1.
          1    1    1    2  502    0 -0.10547791863E+03  0.17715023456E+02  0.85641306832E+03  0.86306590534E+03  0.00000000000E+00 0. -1.
         22    1    3    3    0    0 -0.15817517524E+01 -0.21547630304E+02 -0.91790758907E+01  0.23474619156E+02  0.00000000000E+00 0. -1.
         22    1    3    3    0    0  0.18990135199E+03  0.96259887145E+02 -0.25282191923E+03  0.33052596298E+03  0.00000000000E+00 0. -1.
</event>
<event>
 7    1  0.6294601E-006  0.1074340E+03  0.7818608E-02  0.1376616E+00
          2   -1    0    0  502    0  0.00000000000E+00  0.00000000000E+00  0.13835188638E+04  0.13835188638E+04  0.00000000000E+00 0. -1.
          1   -1    0    0  501    0 -0.00000000000E+00 -0.00000000000E+00 -0.34995138434E+03  0.34995138434E+03  0.00000000000E+00 0. -1.
         25    2    1    2    0    0 -0.82758633798E+02  0.82952348991E+02 -0.34161926595E+02  0.17470731194E+03  0.12500209576E+03 0.  0.
          2    1    1    2  501    0  0.96542231336E+02 -0.45652350884E+02 -0.23358587719E+03  0.25684022581E+03  0.00000000000E+00 0. -1.
          1    1    1    2  502    0 -0.13783597538E+02 -0.37299998108E+02  0.13013152832E+04  0.13019227104E+04  0.00000000000E+00 0. -1.
         22    1    3    3    0    0 -0.10366698480E+03  0.92973839826E+02 -0.76134609006E+01  0.13945946873E+03  0.00000000000E+00 0.  1.
         22    1    3    3    0    0  0.20908351005E+02 -0.10021490835E+02 -0.26548465694E+02  0.35247843211E+02  0.00000000000E+00 0.  1.
</event>
<event>
 7    1  0.6294601E-006  0.1031897E+03  0.7818608E-02  0.1324097E+00
          2   -1    0    0  502    0  0.00000000000E+00  0.00000000000E+00  0.16016905185E+03  0.16016905185E+03  0.00000000000E+00 0. -1.
          1   -1    0    0  501    0 -0.00000000000E+00 -0.00000000000E+00 -0.19547249229E+03  0.19547249229E+03  0.00000000000E+00 0. -1.
         25    2    1    2    0    0  0.56801927332E+02 -0.46370990904E+02  0.50635008421E+02  0.15350893810E+03  0.12499744899E+03 0.  0.
          2    1    1    2  501    0 -0.11421296610E+03  0.16321876818E+02 -0.71537845133E+02  0.13575223230E+03  0.00000000000E+00 0. -1.
          1    1    1    2  502    0  0.57411038768E+02  0.30049114086E+02 -0.14400603723E+02  0.66380373736E+02  0.00000000000E+00 0. -1.
         22    1    3    3    0    0 -0.32960910669E+02  0.80013931424E+01  0.32560947044E+02  0.47017647716E+02  0.00000000000E+00 0. -1.
         22    1    3    3    0    0  0.89762838002E+02 -0.54372384046E+02  0.18074061376E+02  0.10649129038E+03  0.00000000000E+00 0. -1.
</event>
<event>
 7    1  0.6294601E-006  0.1001503E+03  0.7818608E-02  0.1353108E+00
          2   -1    0    0  502    0  0.00000000000E+00  0.00000000000E+00  0.26160919565E+04  0.26160919565E+04  0.00000000000E+00 0. -1.
          1   -1    0    0  501    0 -0.00000000000E+00 -0.00000000000E+00 -0.34142299796E+03  0.34142299796E+03  0.00000000000E+00 0. -1.
         25    2    1    2    0    0  0.54672486237E+02  0.13753319541E+03  0.57747601967E+03  0.60909700736E+03  0.12496459698E+03 0.  0.
          2    1    1    2  501    0 -0.22192877830E+02 -0.97052705448E+02 -0.31766044234E+03  0.33289624222E+03  0.00000000000E+00 0. -1.
          1    1    1    2  502    0 -0.32479608407E+02 -0.40480489957E+02  0.20148533812E+04  0.20155217049E+04  0.00000000000E+00 0. -1.
         22    1    3    3    0    0  0.50344192905E+02  0.91101682281E+02  0.17268526826E+03  0.20162900621E+03  0.00000000000E+00 0. -1.
         22    1    3    3    0    0  0.43282933322E+01  0.46431513124E+02  0.40479075141E+03  0.40746800115E+03  0.00000000000E+00 0. -1.
</event>
<event>
 7    1  0.6294601E-006  0.3207910E+02  0.7818608E-02  0.1623135E+00
          2   -1    0    0  502    0  0.00000000000E+00  0.00000000000E+00  0.40899096515E+03  0.40899096515E+03  0.00000000000E+00 0. -1.
          1   -1    0    0  501    0 -0.00000000000E+00 -0.00000000000E+00 -0.84785913363E+03  0.84785913363E+03  0.00000000000E+00 0. -1.
         25    2    1    2    0    0 -0.29085509324E+02 -0.16389579732E+02  0.18676830166E+03  0.22720678356E+03  0.12500375522E+03 0.  0.
          2    1    1    2  501    0  0.19249696779E+02 -0.14633026781E+02 -0.82615105271E+03  0.82650483253E+03  0.00000000000E+00 0. -1.
          1    1    1    2  502    0  0.98358125459E+01  0.31022606513E+02  0.20051458257E+03  0.20313848269E+03  0.00000000000E+00 0. -1.
         22    1    3    3    0    0  0.45650061415E+02 -0.23045914452E+02  0.51827851379E+02  0.72809123457E+02  0.00000000000E+00 0. -1.
         22    1    3    3    0    0 -0.74735570739E+02  0.66563347193E+01  0.13494045028E+03  0.15439766011E+03  0.00000000000E+00 0. -1.
</event>
<event>
 7    1  0.6294601E-006  0.7770860E+02  0.7818608E-02  0.1390397E+00
          2   -1    0    0  502    0  0.00000000000E+00  0.00000000000E+00  0.40042597149E+03  0.40042597149E+03  0.00000000000E+00 0. -1.
          1   -1    0    0  501    0 -0.00000000000E+00 -0.00000000000E+00 -0.26616109957E+03  0.26616109957E+03  0.00000000000E+00 0. -1.
         25    2    1    2    0    0 -0.27920747017E+02  0.50031390030E+02 -0.30287007206E+02  0.14079934474E+03  0.12499777827E+03 0.  0.
          2    1    1    2  501    0 -0.45275914070E+02 -0.19154551036E+02 -0.17256802883E+03  0.17943391484E+03  0.00000000000E+00 0. -1.
          1    1    1    2  502    0  0.73196661087E+02 -0.30876838994E+02  0.33711990796E+03  0.34635381148E+03  0.00000000000E+00 0. -1.
         22    1    3    3    0    0 -0.68723668407E+02  0.64297730754E+02 -0.17530062129E+02  0.95731101831E+02  0.00000000000E+00 0.  1.
         22    1    3    3    0    0  0.40802921390E+02 -0.14266340724E+02 -0.12756945077E+02  0.45068242913E+02  0.00000000000E+00 0.  1.
</event>
<event>
 7    1  0.6294601E-006  0.3743082E+02  0.7818608E-02  0.1566921E+00
          2   -1    0    0  502    0  0.00000000000E+00  0.00000000000E+00  0.83169747620E+03  0.83169747620E+03  0.00000000000E+00 0. -1.
          1   -1    0    0  501    0 -0.00000000000E+00 -0.00000000000E+00 -0.43931989839E+03  0.43931989839E+03  0.00000000000E+00 0. -1.
         25    2    1    2    0    0 -0.49409957357E+02 -0.35584125817E+02 -0.13987444110E+03  0.19722635361E+03  0.12500320552E+03 0.  0.
          2    1    1    2  501    0  0.13301952522E+02  0.25914293546E+02 -0.26954939387E+03  0.27111873467E+03  0.00000000000E+00 0. -1.
          1    1    1    2  502    0  0.36108004834E+02  0.96698322707E+01  0.80180141279E+03  0.80267228631E+03  0.00000000000E+00 0. -1.
         22    1    3    3    0    0 -0.30367995262E+02  0.45577833372E+02 -0.66673203262E+02  0.86283660472E+02  0.00000000000E+00 0. -1.
         22    1    3    3    0    0 -0.19041962095E+02 -0.81161959189E+02 -0.73201237839E+02  0.11094269314E+03  0.00000000000E+00 0. -1.
</event>
<event>
 7    1  0.6294601E-006  0.1377225E+03  0.7818608E-02  0.1351210E+00
          2   -1    0    0  502    0  0.00000000000E+00  0.00000000000E+00  0.30763644903E+03  0.30763644903E+03  0.00000000000E+00 0. -1.
          1   -1    0    0  501    0 -0.00000000000E+00 -0.00000000000E+00 -0.26348925885E+03  0.26348925885E+03  0.00000000000E+00 0. -1.
         25    2    1    2    0    0  0.11470774700E+03 -0.34078191773E+01  0.28370019681E+01  0.16971572506E+03  0.12500359315E+03 0.  0.
          2    1    1    2  501    0  0.28304652648E+02  0.25883731614E+02 -0.15377038833E+03  0.15848171267E+03  0.00000000000E+00 0. -1.
          1    1    1    2  502    0 -0.14301239965E+03 -0.22475912437E+02  0.19508057654E+03  0.24292827015E+03  0.00000000000E+00 0. -1.
         22    1    3    3    0    0  0.85879829737E+02 -0.13477716694E+02 -0.56013779396E+02  0.10341439690E+03  0.00000000000E+00 0.  1.
         22    1    3    3    0    0  0.28827917265E+02  0.10069897517E+02  0.58850781365E+02  0.66301328170E+02  0.00000000000E+00 0.  1.
</event>
<event>
 7    1  0.6294601E-006  0.1897932E+03  0.7818608E-02  0.1268683E+00
          2   -1    0    0  502    0  0.00000000000E+00  0.00000000000E+00  0.28037407295E+04  0.28037407295E+04  0.00000000000E+00 0. -1.
          1   -1    0    0  501    0 -0.00000000000E+00 -0.00000000000E+00 -0.73758372509E+03  0.73758372509E+03  0.00000000000E+00 0. -1.
         25    2    1    2    0    0  0.17635003279E+03 -0.15160782978E+03  0.50225644983E+03  0.56742451555E+03  0.12499908535E+03 0.  0.
          2    1    1    2  501    0 -0.17659100564E+02  0.56193506945E+02 -0.69998276127E+03  0.70245670339E+03  0.00000000000E+00 0. -1.
          1    1    1    2  502    0 -0.15869093223E+03  0.95414322832E+02  0.22638833158E+04  0.22714432356E+04  0.00000000000E+00 0. -1.
         22    1    3    3    0    0  0.27878128106E+02  0.19895679928E+02  0.98824799222E+02  0.10459143869E+03  0.00000000000E+00 0.  1.
         22    1    3    3    0    0  0.14847190468E+03 -0.17150350971E+03  0.40343165060E+03  0.46283307686E+03  0.00000000000E+00 0.  1.
</event>
<event>
 7    1  0.6294601E-006  0.6890921E+02  0.7818608E-02  0.1474783E+00
          2   -1    0    0  502    0  0.00000000000E+00  0.00000000000E+00  0.41083334414E+03  0.41083334414E+03  0.00000000000E+00 0. -1.
          1   -1    0    0  501    0 -0.00000000000E+00 -0.00000000000E+00 -0.12567355914E+04  0.12567355914E+04  0.00000000000E+00 0. -1.
         25    2    1    2    0    0  0.95592133632E+02  0.13108438169E+02 -0.11457025541E+03  0.19509325917E+03  0.12500139674E+03 0.  0.
          2    1    1    2  501    0 -0.66399874675E+02 -0.15551857571E+02 -0.11002675073E+04  0.11023789690E+04  0.00000000000E+00 0. -1.
          1    1    1    2  502    0 -0.29192258957E+02  0.24434194013E+01  0.36893551543E+03  0.37009670740E+03  0.00000000000E+00 0. -1.
         22    1    3    3    0    0  0.97667410581E+02  0.28219816860E+02 -0.13537402182E+03  0.16929680132E+03  0.00000000000E+00 0. -1.
         22    1    3    3    0    0 -0.20752769489E+01 -0.15111378691E+02  0.20803766417E+02  0.25796457848E+02  0.00000000000E+00 0. -1.
</event>
<event>
 7    1  0.6294601E-006  0.6354671E+02  0.7818608E-02  0.1420910E+00
          2   -1    0    0  502    0  0.00000000000E+00  0.00000000000E+00  0.13704174216E+04  0.13704174216E+04  0.00000000000E+00 0. -1.
          1   -1    0    0  501    0 -0.00000000000E+00 -0.00000000000E+00 -0.82121693311E+02  0.82121693311E+02  0.00000000000E+00 0. -1.
         25    2    1    2    0    0 -0.68347632922E+02  0.74722668566E+02  0.22133212558E+03  0.27361891349E+03  0.12499809550E+03 0.  0.
          2    1    1    2  501    0  0.44085657029E+02 -0.17158086523E+02 -0.44947878527E+02  0.65255320648E+02  0.00000000000E+00 0. -1.
          1    1    1    2  502    0  0.24261975893E+02 -0.57564582043E+02  0.11119114812E+04  0.11136648807E+04  0.00000000000E+00 0. -1.
         22    1    3    3    0    0 -0.88539167196E+02  0.22399043710E+02  0.79436248553E+02  0.12104139321E+03  0.00000000000E+00 0.  1.
         22    1    3    3    0    0  0.20191534275E+02  0.52323624856E+02  0.14189587703E+03  0.15257752027E+03  0.00000000000E+00 0.  1.
</event>
<event>
 7    1  0.6294601E-006  0.1035634E+03  0.7818608E-02  0.1383208E+00
          2   -1    0    0  502    0  0.00000000000E+00  0.00000000000E+00  0.14062485488E+03  0.14062485488E+03  0.00000000000E+00 0. -1.
          1   -1    0    0  501    0 -0.00000000000E+00 -0.00000000000E+00 -0.10119867567E+04  0.10119867567E+04  0.00000000000E+00 0. -1.
         25    2    1    2    0    0 -0.23808211961E+02 -0.82624809547E+02 -0.12053405710E+03  0.19377253018E+03  0.12500257766E+03 0.  0.
          2    1    1    2  501    0 -0.80494018409E+01  0.10528059532E+03 -0.84776564338E+03  0.85431573948E+03  0.00000000000E+00 0. -1.
          1    1    1    2  502    0  0.31857613802E+02 -0.22655785769E+02  0.96937798691E+02  0.10452334190E+03  0.00000000000E+00 0. -1.
         22    1    3    3    0    0 -0.53151621385E+02 -0.10208995772E+03 -0.80496376185E+02  0.14045326946E+03  0.00000000000E+00 0.  1.
         22    1    3    3    0    0  0.29343409424E+02  0.19465148177E+02 -0.40037680915E+02  0.53319260715E+02  0.00000000000E+00 0.  1.
</event>
<event>
 7    1  0.6294601E-006  0.5180882E+02  0.7818608E-02  0.1474182E+00
          2   -1    0    0  502    0  0.00000000000E+00  0.00000000000E+00  0.31796335596E+03  0.31796335596E+03  0.00000000000E+00 0. -1.
          1   -1    0    0  501    0 -0.00000000000E+00 -0.00000000000E+00 -0.17263737119E+03  0.17263737119E+03  0.00000000000E+00 0. -1.
         25    2    1    2    0    0 -0.51783775899E+02  0.72627969512E+02  0.25894472646E+02  0.15572762474E+03  0.12499675193E+03 0.  0.
          2    1    1    2  501    0  0.20794238966E+02 -0.33148079559E+02 -0.10125407831E+03  0.10855221752E+03  0.00000000000E+00 0. -1.
          1    1    1    2  502    0  0.30989536933E+02 -0.39479889953E+02  0.22068559043E+03  0.22632088489E+03  0.00000000000E+00 0. -1.
         22    1    3    3    0    0 -0.35852244740E+02  0.50207036168E+02  0.76411521805E+02  0.98208200260E+02  0.00000000000E+00 0.  1.
         22    1    3    3    0    0 -0.15931531158E+02  0.22420933344E+02 -0.50517049159E+02  0.57519424482E+02  0.00000000000E+00 0.  1.
</event>
<event>
 7    1  0.6294601E-006  0.9603234E+02  0.7818608E-02  0.1316378E+00
          2   -1    0    0  502    0  0.00000000000E+00  0.00000000000E+00  0.94943702866E+03  0.94943702866E+03  0.00000000000E+00 0. -1.
          1   -1    0    0  501    0 -0.00000000000E+00 -0.00000000000E+00 -0.24985658123E+03  0.24985658123E+03  0.00000000000E+00 0. -1.
         25    2    1    2    0    0  0.82003887231E+02  0.14667096700E+03  0.44651805443E+03  0.49319569287E+03  0.12500643364E+03 0.  0.
          2    1    1    2  501    0 -0.37631647240E+02 -0.86704218515E+02 -0.21356455934E+03  0.23354567730E+03  0.00000000000E+00 0. -1.
          1    1    1    2  502    0 -0.44372239991E+02 -0.59966748487E+02  0.46662695234E+03  0.47255223972E+03  0.00000000000E+00 0. -1.
         22    1    3    3    0    0  0.57842930664E+01  0.12858331965E+03  0.24031643574E+03  0.27261532866E+03  0.00000000000E+00 0.  1.
         22    1    3    3    0    0  0.76219594165E+02  0.18087647357E+02  0.20620161869E+03  0.22058036420E+03  0.00000000000E+00 0.  1.
</event>
<event>
 7    1  0.6294601E-006  0.8131969E+02  0.7818608E-02  0.1454240E+00
          2   -1    0    0  502    0  0.00000000000E+00  0.00000000000E+00  0.24512151673E+04  0.24512151673E+04  0.00000000000E+00 0. -1.
          1   -1    0    0  501    0 -0.00000000000E+00 -0.00000000000E+00 -0.54213133775E+02  0.54213133775E+02  0.00000000000E+00 0. -1.
         25    2    1    2    0    0 -0.31286234717E+02 -0.10430214207E+03  0.36599939873E+03  0.40179433739E+03  0.12500145746E+03 0.  0.
          2    1    1    2  501    0  0.74147928582E+01  0.27820346401E+02 -0.29705609984E+02  0.41368757433E+02  0.00000000000E+00 0. -1.
          1    1    1    2  502    0  0.23871441859E+02  0.76481795664E+02  0.20607082448E+04  0.20622652062E+04  0.00000000000E+00 0. -1.
         22    1    3    3    0    0  0.12954757224E+01 -0.11982137198E+03  0.32884953367E+03  0.35000122177E+03  0.00000000000E+00 0.  1.
         22    1    3    3    0    0 -0.32581710439E+02  0.15519229918E+02  0.37149865055E+02  0.51793115624E+02  0.00000000000E+00 0.  1.
</event>
<event>
 7    1  0.6294601E-006  0.9592315E+02  0.7818608E-02  0.1367113E+00
          2   -1    0    0  502    0  0.00000000000E+00  0.00000000000E+00  0.16676720788E+04  0.16676720788E+04  0.00000000000E+00 0. -1.
          1   -1    0    0  501    0 -0.00000000000E+00 -0.00000000000E+00 -0.93997053315E+02  0.93997053315E+02  0.00000000000E+00 0. -1.
         25    2    1    2    0    0 -0.87058226862E+02  0.62809471936E+01  0.33850927238E+03  0.37125811373E+03  0.12500189740E+03 0.  0.
          2    1    1    2  501    0  0.88151375025E+02  0.41878525367E+02 -0.46314622357E+02  0.10802555276E+03  0.00000000000E+00 0. -1.
          1    1    1    2  502    0 -0.10931481622E+01 -0.48159472561E+02  0.12814803755E+04  0.12823854656E+04  0.00000000000E+00 0. -1.
         22    1    3    3    0    0 -0.75988719102E+02  0.58917273584E+02  0.24778914742E+03  0.26579125669E+03  0.00000000000E+00 0.  1.
         22    1    3    3    0    0 -0.11069507760E+02 -0.52636326390E+02  0.90720124967E+02  0.10546685703E+03  0.00000000000E+00 0.  1.
</event>
<event>
 7    1  0.6294601E-006  0.5270262E+02  0.7818608E-02  0.1448282E+00
          2   -1    0    0  502    0  0.00000000000E+00  0.00000000000E+00  0.12588031227E+04  0.12588031227E+04  0.00000000000E+00 0. -1.
          1   -1    0    0  501    0 -0.00000000000E+00 -0.00000000000E+00 -0.17891617676E+02  0.17891617676E+02  0.00000000000E+00 0. -1.
         25    2    1    2    0    0  0.25771801211E+02 -0.48040730807E+02  0.48216530763E+03  0.50107836448E+03  0.12499618360E+03 0.  0.
          2    1    1    2  501    0  0.27691596089E+02  0.37249243835E+02  0.65778277443E+02  0.80505356614E+02  0.00000000000E+00 0. -1.
          1    1    1    2  502    0 -0.53463397300E+02  0.10791486972E+02  0.69296791996E+03  0.69511101929E+03  0.00000000000E+00 0. -1.
         22    1    3    3    0    0  0.15841187585E+02 -0.47330762628E+02  0.48731850453E+03  0.48986780785E+03  0.00000000000E+00 0. -1.
         22    1    3    3    0    0  0.99306136260E+01 -0.70996817873E+00 -0.51531968936E+01  0.11210556633E+02  0.00000000000E+00 0. -1.
</event>
<event>
 7    1  0.6294601E-006  0.9927545E+02  0.7818608E-02  0.1345407E+00
          2   -1    0    0  502    0  0.00000000000E+00  0.00000000000E+00  0.12335143000E+03  0.12335143000E+03  0.00000000000E+00 0. -1.
          1   -1    0    0  501    0 -0.00000000000E+00 -0.00000000000E+00 -0.20031790789E+04  0.20031790789E+04  0.00000000000E+00 0. -1.
         25    2    1    2    0    0 -0.53420187312E+01 -0.56299660048E+02 -0.49300388689E+03  0.51173790110E+03  0.12499863219E+03 0.  0.
          2    1    1    2  501    0  0.37717878437E+02  0.10189010754E+03 -0.14918540344E+04  0.14958050315E+04  0.00000000000E+00 0. -1.
          1    1    1    2  502    0 -0.32375859706E+02 -0.45590447497E+02  0.10503027238E+03  0.11898757629E+03  0.00000000000E+00 0. -1.
         22    1    3    3    0    0 -0.31171260092E+02 -0.80110779841E+02 -0.43883347302E+03  0.44717356982E+03  0.00000000000E+00 0.  1.
         22    1    3    3    0    0  0.25829241361E+02  0.23811119794E+02 -0.54170413871E+02  0.64564331283E+02  0.00000000000E+00 0.  1.
</event>
<event>
 7    1  0.6294601E-006  0.8327929E+02  0.7818608E-02  0.1439212E+00
          2   -1    0    0  502    0  0.00000000000E+00  0.00000000000E+00  0.76252293658E+03  0.76252293658E+03  0.00000000000E+00 0. -1.
          1   -1    0    0  501    0 -0.00000000000E+00 -0.00000000000E+00 -0.43735379574E+02  0.43735379574E+02  0.00000000000E+00 0. -1.
         25    2    1    2    0    0  0.27771136279E+01 -0.87746010480E+02  0.35943751276E+03  0.39054740945E+03  0.12499951493E+03 0.  0.
          2    1    1    2  501    0  0.29444356483E+02  0.10970967820E+02 -0.13117848324E+02  0.34050113190E+02  0.00000000000E+00 0. -1.
          1    1    1    2  502    0 -0.32221470111E+02  0.76775042660E+02  0.37246789256E+03  0.38166079351E+03  0.00000000000E+00 0. -1.
         22    1    3    3    0    0  0.19517430009E+02 -0.11160722854E+03  0.33088228880E+03  0.34974303793E+03  0.00000000000E+00 0. -1.
         22    1    3    3    0    0 -0.16740316381E+02  0.23861218060E+02  0.28555223960E+02  0.40804371521E+02  0.00000000000E+00 0. -1.
</event>
<event>
 7    1  0.6294601E-006  0.1571198E+03  0.7818608E-02  0.1279853E+00
          2   -1    0    0  502    0  0.00000000000E+00  0.00000000000E+00  0.46530551199E+04  0.46530551199E+04  0.00000000000E+00 0. -1.
          1   -1    0    0  501    0 -0.00000000000E+00 -0.00000000000E+00 -0.47233886683E+02  0.47233886683E+02  0.00000000000E+00 0. -1.
         25    2    1    2    0    0 -0.24145458077E+02 -0.19721307087E+03  0.92060966773E+03  0.95006515689E+03  0.12500257423E+03 0.  0.
          2    1    1    2  501    0  0.53410026013E+02  0.14039160161E+03  0.14285918737E+03  0.20729491093E+03  0.00000000000E+00 0. -1.
          1    1    1    2  502    0 -0.29264567936E+02  0.56821469262E+02  0.35423523781E+04  0.35429289388E+04  0.00000000000E+00 0. -1.
         22    1    3    3    0    0 -0.63855510888E+02 -0.12680150432E+03  0.42975562620E+03  0.45259921124E+03  0.00000000000E+00 0. -1.
         22    1    3    3    0    0  0.39710052811E+02 -0.70411566556E+02  0.49085404153E+03  0.49746594565E+03  0.00000000000E+00 0. -1.
</event>
<event>
 7    1  0.6294601E-006  0.5960044E+02  0.7818608E-02  0.1518458E+00
          2   -1    0    0  502    0  0.00000000000E+00  0.00000000000E+00  0.47197992616E+03  0.47197992616E+03  0.00000000000E+00 0. -1.
          1   -1    0    0  501    0 -0.00000000000E+00 -0.00000000000E+00 -0.52861925793E+03  0.52861925793E+03  0.00000000000E+00 0. -1.
         25    2    1    2    0    0  0.49515940127E+02 -0.12439750623E+02  0.32317264682E+03  0.35024652163E+03  0.12500196215E+03 0.  0.
          2    1    1    2  501    0 -0.46559087558E+02  0.37316742690E+02 -0.51217539321E+03  0.51563933260E+03  0.00000000000E+00 0. -1.
          1    1    1    2  502    0 -0.29568525697E+01 -0.24876992066E+02  0.13236341461E+03  0.13471332985E+03  0.00000000000E+00 0. -1.
         22    1    3    3    0    0 -0.11464362442E+02  0.37677585665E+02  0.20080043572E+03  0.20462611528E+03  0.00000000000E+00 0. -1.
         22    1    3    3    0    0  0.60980302570E+02 -0.50117336289E+02  0.12237221110E+03  0.14562040635E+03  0.00000000000E+00 0. -1.
</event>
<event>
 7    1  0.6294601E-006  0.6552194E+02  0.7818608E-02  0.1435770E+00
          2   -1    0    0  502    0  0.00000000000E+00  0.00000000000E+00  0.17645435010E+04  0.17645435010E+04  0.00000000000E+00 0. -1.
          1   -1    0    0  501    0 -0.00000000000E+00 -0.00000000000E+00 -0.95816756446E+03  0.95816756446E+03  0.00000000000E+00 0. -1.
         25    2    1    2    0    0 -0.64328637956E+02  0.60484203870E+02  0.51917321551E+03  0.54125991261E+03  0.12499981086E+03 0.  0.
          2    1    1    2  501    0  0.23352688063E+02 -0.61187193086E+02 -0.94565115710E+03  0.94791631042E+03  0.00000000000E+00 0. -1.
          1    1    1    2  502    0  0.40975949893E+02  0.70298921630E+00  0.12328538781E+04  0.12335348424E+04  0.00000000000E+00 0. -1.
         22    1    3    3    0    0 -0.30797855509E+02 -0.33341022774E+02  0.25321220252E+03  0.25724803441E+03  0.00000000000E+00 0. -1.
         22    1    3    3    0    0 -0.33530782447E+02  0.93825226644E+02  0.26596101299E+03  0.28401187820E+03  0.00000000000E+00 0. -1.
</event>
<event>
 7    1  0.6294601E-006  0.5923699E+02  0.7818608E-02  0.1501026E+00
          2   -1    0    0  502    0  0.00000000000E+00  0.00000000000E+00  0.18497845566E+04  0.18497845566E+04  0.00000000000E+00 0. -1.
          1   -1    0    0  501    0 -0.00000000000E+00 -0.00000000000E+00 -0.12099053685E+03  0.12099053685E+03  0.00000000000E+00 0. -1.
         25    2    1    2    0    0 -0.20345574046E+02  0.43344994640E+02  0.23239037243E+03  0.26818516980E+03  0.12500107662E+03 0.  0.
          2    1    1    2  501    0  0.47753383039E+02 -0.36025716086E+02 -0.94278813222E+02  0.11165452267E+03  0.00000000000E+00 0. -1.
          1    1    1    2  502    0 -0.27407808992E+02 -0.73192785535E+01  0.15906824606E+04  0.15909354010E+04  0.00000000000E+00 0. -1.
         22    1    3    3    0    0  0.47411140342E+02  0.44165323622E+02  0.94996376485E+02  0.11499001515E+03  0.00000000000E+00 0.  1.
         22    1    3    3    0    0 -0.67756714389E+02 -0.82032898181E+00  0.13739399595E+03  0.15319515465E+03  0.00000000000E+00 0.  1.
</event>
<event>
 7    1  0.6294601E-006  0.2859763E+03  0.7818608E-02  0.1276646E+00
          2   -1    0    0  502    0  0.00000000000E+00  0.00000000000E+00  0.13974983297E+04  0.13974983297E+04  0.00000000000E+00 0. -1.
          1   -1    0    0  501    0 -0.00000000000E+00 -0.00000000000E+00 -0.34806196193E+03  0.34806196193E+03  0.00000000000E+00 0. -1.
         25    2    1    2    0    0  0.26532789186E+03 -0.13754343795E+02  0.41161284454E+01  0.29364957593E+03  0.12500023502E+03 0.  0.
          2    1    1    2  501    0  0.19737811210E+02 -0.30353771203E+02 -0.18485549271E+03  0.18836795323E+03  0.00000000000E+00 0. -1.
          1    1    1    2  502    0 -0.28506570307E+03  0.44108114998E+02  0.12301757320E+04  0.12635427624E+04  0.00000000000E+00 0. -1.
         22    1    3    3    0    0  0.16815769186E+03 -0.54941446225E+02  0.41459648585E+02  0.18169885610E+03  0.00000000000E+00 0. -1.
         22    1    3    3    0    0  0.97170200001E+02  0.41187102430E+02 -0.37343520140E+02  0.11195071983E+03  0.00000000000E+00 0. -1.
</event>
<event>
 7    1  0.6294601E-006  0.3887344E+02  0.7818608E-02  0.1619445E+00
          2   -1    0    0  502    0  0.00000000000E+00  0.00000000000E+00  0.10203120218E+04  0.10203120218E+04  0.00000000000E+00 0. -1.
          1   -1    0    0  501    0 -0.00000000000E+00 -0.00000000000E+00 -0.93244541449E+03  0.93244541449E+03  0.00000000000E+00 0. -1.
         25    2    1    2    0    0 -0.19544974543E+02 -0.74912979477E+01 -0.18381129645E+03  0.22326973640E+03  0.12499862766E+03 0.  0.
          2    1    1    2  501    0 -0.10095360520E+02 -0.17715054644E+02 -0.72838392268E+03  0.72866925163E+03  0.00000000000E+00 0. -1.
          1    1    1    2  502    0  0.29640335063E+02  0.25206352591E+02  0.10000618264E+04  0.10008184483E+04  0.00000000000E+00 0. -1.
         22    1    3    3    0    0  0.34808761037E+02  0.36261370669E+02 -0.11389134644E+03  0.12449006242E+03  0.00000000000E+00 0. -1.
         22    1    3    3    0    0 -0.54353735580E+02 -0.43752668617E+02 -0.69919950012E+02  0.98779673984E+02  0.00000000000E+00 0. -1.
</event>
<event>
 7    1  0.6294601E-006  0.9892879E+02  0.7818608E-02  0.1378028E+00
          2   -1    0    0  502    0  0.00000000000E+00  0.00000000000E+00  0.36091649500E+03  0.36091649500E+03  0.00000000000E+00 0. -1.
          1   -1    0    0  501    0 -0.00000000000E+00 -0.00000000000E+00 -0.16893188133E+04  0.16893188133E+04  0.00000000000E+00 0. -1.
         25    2    1    2    0    0  0.62217723301E+02  0.10743144791E+03  0.17914631293E+03  0.25125831671E+03  0.12499911674E+03 0.  0.
          2    1    1    2  501    0 -0.37243029618E+02 -0.20861544119E+02 -0.16390302042E+04  0.16395860019E+04  0.00000000000E+00 0. -1.
          1    1    1    2  502    0 -0.24974693683E+02 -0.86569903789E+02  0.13148157298E+03  0.15939098971E+03  0.00000000000E+00 0. -1.
         22    1    3    3    0    0  0.97893478971E+02  0.63139657409E+02  0.14043807231E+03  0.18246260361E+03  0.00000000000E+00 0.  1.
         22    1    3    3    0    0 -0.35675755670E+02  0.44291790498E+02  0.38708240627E+02  0.68795713098E+02  0.00000000000E+00 0.  1.
</event>
<event>
 7    1  0.6294601E-006  0.8953945E+02  0.7818608E-02  0.1343368E+00
          2   -1    0    0  502    0  0.00000000000E+00  0.00000000000E+00  0.11355990972E+04  0.11355990972E+04  0.00000000000E+00 0. -1.
          1   -1    0    0  501    0 -0.00000000000E+00 -0.00000000000E+00 -0.22579795960E+03  0.22579795960E+03  0.00000000000E+00 0. -1.
         25    2    1    2    0    0  0.13923392692E+03  0.29872513292E+02 -0.41916557350E+02  0.19406469413E+03  0.12500261707E+03 0.  0.
          2    1    1    2  501    0 -0.77423003282E+02 -0.17211254523E+02 -0.92137273672E+02  0.12157230737E+03  0.00000000000E+00 0. -1.
          1    1    1    2  502    0 -0.61810923636E+02 -0.12661258769E+02  0.10438549686E+04  0.10457600553E+04  0.00000000000E+00 0. -1.
         22    1    3    3    0    0  0.55619418224E+02 -0.47862778841E+02 -0.30011732617E+02  0.79278429453E+02  0.00000000000E+00 0.  1.
         22    1    3    3    0    0  0.83614508695E+02  0.77735292133E+02 -0.11904824733E+02  0.11478626468E+03  0.00000000000E+00 0.  1.
</event>
<event>
 7    1  0.6294601E-006  0.9708236E+02  0.7818608E-02  0.1341977E+00
          2   -1    0    0  502    0  0.00000000000E+00  0.00000000000E+00  0.60878179905E+03  0.60878179905E+03  0.00000000000E+00 0. -1.
          1   -1    0    0  501    0 -0.00000000000E+00 -0.00000000000E+00 -0.56708704141E+03  0.56708704141E+03  0.00000000000E+00 0. -1.
         25    2    1    2    0    0 -0.68753127671E+02 -0.45459845513E+02  0.12225237385E+03  0.19329850542E+03  0.12500031667E+03 0.  0.
          2    1    1    2  501    0  0.32982200613E+02  0.92247118727E+02 -0.52509147370E+03  0.53415204972E+03  0.00000000000E+00 0. -1.
          1    1    1    2  502    0  0.35770927057E+02 -0.46787273214E+02  0.44453385748E+03  0.44841828531E+03  0.00000000000E+00 0. -1.
         22    1    3    3    0    0 -0.10500029078E+03 -0.30094555723E+02  0.99918919693E+02  0.14803558309E+03  0.00000000000E+00 0. -1.
         22    1    3    3    0    0  0.36247163106E+02 -0.15365289790E+02  0.22333454162E+02  0.45262922336E+02  0.00000000000E+00 0. -1.
</event>
<event>
 7    1  0.6294601E-006  0.4253185E+02  0.7818608E-02  0.1598646E+00
          2   -1    0    0  502    0  0.00000000000E+00  0.00000000000E+00  0.40576651188E+03  0.40576651188E+03  0.00000000000E+00 0. -1.
          1   -1    0    0  501    0 -0.00000000000E+00 -0.00000000000E+00 -0.78687609786E+02  0.78687609786E+02  0.00000000000E+00 0. -1.
         25    2    1    2    0    0 -0.32671908222E+02 -0.50576419955E+02  0.23144055534E+03  0.26984317519E+03  0.12500072279E+03 0.  0.
          2    1    1    2  501    0  0.65792965159E+01  0.20037153367E+02 -0.54896998651E+02  0.58808631328E+02  0.00000000000E+00 0. -1.
          1    1    1    2  502    0  0.26092611706E+02  0.30539266588E+02  0.15053534541E+03  0.15580231515E+03  0.00000000000E+00 0. -1.
         22    1    3    3    0    0  0.35431602420E+02  0.19943836925E+02  0.71208076830E+02  0.81998446858E+02  0.00000000000E+00 0. -1.
         22    1    3    3    0    0 -0.68103510642E+02 -0.70520256880E+02  0.16023247851E+03  0.18784472833E+03  0.00000000000E+00 0. -1.
</event>
<event>
 7    1  0.6294601E-006  0.6201560E+02  0.7818608E-02  0.1444759E+00
          2   -1    0    0  502    0  0.00000000000E+00  0.00000000000E+00  0.28036375522E+02  0.28036375522E+02  0.00000000000E+00 0. -1.
          1   -1    0    0  501    0 -0.00000000000E+00 -0.00000000000E+00 -0.86728314599E+03  0.86728314599E+03  0.00000000000E+00 0. -1.
         25    2    1    2    0    0 -0.66620674445E+01  0.33261240678E+02 -0.40760553880E+03  0.42768934763E+03  0.12500083817E+03 0.  0.
          2    1    1    2  501    0  0.36343545334E+02 -0.60796934731E+02 -0.41939099797E+03  0.42533037716E+03  0.00000000000E+00 0. -1.
          1    1    1    2  502    0 -0.29681477890E+02  0.27535694053E+02 -0.12250233699E+02  0.42299796718E+02  0.00000000000E+00 0. -1.
         22    1    3    3    0    0  0.30823996526E+01 -0.23441719861E+02 -0.33120698583E+03  0.33204981988E+03  0.00000000000E+00 0.  1.
         22    1    3    3    0    0 -0.97444670971E+01  0.56702960539E+02 -0.76398552965E+02  0.95639527748E+02  0.00000000000E+00 0.  1.
</event>
<event>
 7    1  0.6294601E-006  0.9492907E+02  0.7818608E-02  0.1366623E+00
          2   -1    0    0  502    0  0.00000000000E+00  0.00000000000E+00  0.22638608169E+03  0.22638608169E+03  0.00000000000E+00 0. -1.
          1   -1    0    0  501    0 -0.00000000000E+00 -0.00000000000E+00 -0.11512685342E+04  0.11512685342E+04  0.00000000000E+00 0. -1.
         25    2    1    2    0    0 -0.84079889533E+02  0.10815624054E+03 -0.37447820702E+02  0.18919532341E+03  0.12500132372E+03 0.  0.
          2    1    1    2  501    0  0.37854158683E+02 -0.30916184798E+02 -0.10238529189E+04  0.10250188034E+04  0.00000000000E+00 0. -1.
          1    1    1    2  502    0  0.46225730851E+02 -0.77240055741E+02  0.13641828711E+03  0.16344048905E+03  0.00000000000E+00 0. -1.
         22    1    3    3    0    0 -0.30228993122E+02  0.77570257485E+02 -0.78877405983E+02  0.11468470712E+03  0.00000000000E+00 0.  1.
         22    1    3    3    0    0 -0.53850896411E+02  0.30585983054E+02  0.41429585281E+02  0.74510616292E+02  0.00000000000E+00 0.  1.
</event>
<event>
 7    1  0.6294601E-006  0.2713690E+03  0.7818608E-02  0.1206629E+00
          2   -1    0    0  502    0  0.00000000000E+00  0.00000000000E+00  0.19820795759E+04  0.19820795759E+04  0.00000000000E+00 0. -1.
          1   -1    0    0  501    0 -0.00000000000E+00 -0.00000000000E+00 -0.27235094866E+03  0.27235094866E+03  0.00000000000E+00 0. -1.
         25    2    1    2    0    0  0.21341093626E+03  0.69119909526E+02  0.16902401402E+03  0.30743470412E+03  0.12500076151E+03 0.  0.
          2    1    1    2  501    0  0.27970705238E+02  0.72364522717E+02 -0.18402974907E+03  0.19971462901E+03  0.00000000000E+00 0. -1.
          1    1    1    2  502    0 -0.24138164149E+03 -0.14148443224E+03  0.17247343623E+04  0.17472811914E+04  0.00000000000E+00 0. -1.
         22    1    3    3    0    0  0.19390843750E+03  0.11127201045E+02  0.11439831280E+03  0.22541355485E+03  0.00000000000E+00 0.  1.
         22    1    3    3    0    0  0.19502498752E+02  0.57992708482E+02  0.54625701214E+02  0.82021149271E+02  0.00000000000E+00 0.  1.
</event>
<event>
 7    1  0.6294601E-006  0.1413487E+03  0.7818608E-02  0.1289473E+00
          2   -1    0    0  502    0  0.00000000000E+00  0.00000000000E+00  0.77051839428E+03  0.77051839428E+03  0.00000000000E+00 0. -1.
          1   -1    0    0  501    0 -0.00000000000E+00 -0.00000000000E+00 -0.16156973537E+04  0.16156973537E+04  0.00000000000E+00 0. -1.
         25    2    1    2    0    0 -0.12277579814E+03  0.15314916294E+03 -0.30070799637E+02  0.23463496273E+03  0.12498299896E+03 0.  0.
          2    1    1    2  501    0  0.18239119782E+02 -0.62258631703E+02 -0.14754450353E+04  0.14768706290E+04  0.00000000000E+00 0. -1.
          1    1    1    2  502    0  0.10453667835E+03 -0.90890531238E+02  0.66033687549E+03  0.67471015623E+03  0.00000000000E+00 0. -1.
         22    1    3    3    0    0 -0.31695523595E+02 -0.19631140952E+02 -0.22955120008E+01  0.37353142925E+02  0.00000000000E+00 0.  1.
         22    1    3    3    0    0 -0.91080274541E+02  0.17278030389E+03 -0.27775287636E+02  0.19728181981E+03  0.00000000000E+00 0.  1.
</event>
<event>
 7    1  0.6294601E-006  0.3626052E+02  0.7818608E-02  0.1577230E+00
          2   -1    0    0  502    0  0.00000000000E+00  0.00000000000E+00  0.88473748726E+03  0.88473748726E+03  0.00000000000E+00 0. -1.
          1   -1    0    0  501    0 -0.00000000000E+00 -0.00000000000E+00 -0.11314380804E+03  0.11314380804E+03  0.00000000000E+00 0. -1.
         25    2    1    2    0    0 -0.40112774775E+02  0.13473190342E+02  0.27707818064E+03  0.30690093783E+03  0.12500122357E+03 0.  0.
          2    1    1    2  501    0  0.33526143958E+02  0.13942733240E+02 -0.94528333145E+02  0.10126207536E+03  0.00000000000E+00 0. -1.
          1    1    1    2  502    0  0.65866308164E+01 -0.27415923582E+02  0.58904383171E+03  0.58971828211E+03  0.00000000000E+00 0. -1.
         22    1    3    3    0    0  0.33602429555E+02  0.29197135573E+02  0.17146984158E+03  0.17715389515E+03  0.00000000000E+00 0.  1.
         22    1    3    3    0    0 -0.73715204329E+02 -0.15723945232E+02  0.10560833907E+03  0.12974704268E+03  0.00000000000E+00 0.  1.
</event>
<event>
 7    1  0.6294601E-006  0.6326988E+02  0.7818608E-02  0.1412040E+00
          2   -1    0    0  502    0  0.00000000000E+00  0.00000000000E+00  0.15047800143E+04  0.15047800143E+04  0.00000000000E+00 0. -1.
          1   -1    0    0  501    0 -0.00000000000E+00 -0.00000000000E+00 -0.52949222148E+03  0.52949222148E+03  0.00000000000E+00 0. -1.
         25    2    1    2    0    0  0.62405777196E+02 -0.98937139888E-01 -0.39826550655E+03  0.42206168617E+03  0.12500464955E+03 0.  0.
          2    1    1    2  501    0 -0.53373654289E+02  0.50177153938E+02 -0.10760728031E+03  0.13017611350E+03  0.00000000000E+00 0. -1.
          1    1    1    2  502    0 -0.90321229072E+01 -0.50078216798E+02  0.14811605797E+04  0.14820344361E+04  0.00000000000E+00 0. -1.
         22    1    3    3    0    0 -0.14817553461E+02  0.37379412208E+02 -0.22650995487E+03  0.23005116823E+03  0.00000000000E+00 0.  1.
         22    1    3    3    0    0  0.77223330658E+02 -0.37478349348E+02 -0.17175555168E+03  0.19201051794E+03  0.00000000000E+00 0.  1.
</event>
<event>
 7    1  0.6294601E-006  0.7860574E+02  0.7818608E-02  0.1464082E+00
          2   -1    0    0  502    0  0.00000000000E+00  0.00000000000E+00  0.39914144059E+03  0.39914144059E+03  0.00000000000E+00 0. -1.
          1   -1    0    0  501    0 -0.00000000000E+00 -0.00000000000E+00 -0.39113938721E+03  0.39113938721E+03  0.00000000000E+00 0. -1.
         25    2    1    2    0    0  0.49739782820E+02  0.28549811579E+02 -0.51601503864E+02  0.14689357411E+03  0.12500347666E+03 0.  0.
          2    1    1    2  501    0  0.76880574182E+01  0.26641021295E+02 -0.28670224109E+03  0.28803997169E+03  0.00000000000E+00 0. -1.
          1    1    1    2  502    0 -0.57427840238E+02 -0.55190832874E+02  0.34630579833E+03  0.35534728200E+03  0.00000000000E+00 0. -1.
         22    1    3    3    0    0 -0.26278926281E+02  0.18820229455E+01  0.24569019156E+02  0.36024445577E+02  0.00000000000E+00 0. -1.
         22    1    3    3    0    0  0.76018709101E+02  0.26667788633E+02 -0.76170523020E+02  0.11086912853E+03  0.00000000000E+00 0. -1.
</event>
<event>
 7    1  0.6294601E-006  0.1184524E+03  0.7818608E-02  0.1299360E+00
          2   -1    0    0  502    0  0.00000000000E+00  0.00000000000E+00  0.47123673651E+03  0.47123673651E+03  0.00000000000E+00 0. -1.
          1   -1    0    0  501    0 -0.00000000000E+00 -0.00000000000E+00 -0.30679364477E+03  0.30679364477E+03  0.00000000000E+00 0. -1.
         25    2    1    2    0    0  0.52968564574E+02 -0.71983304112E+02  0.20747300253E+03  0.25819169428E+03  0.12502255522E+03 0.  0.
          2    1    1    2  501    0  0.69600828123E+02 -0.11923434682E+02 -0.25298337440E+03  0.26265382406E+03  0.00000000000E+00 0. -1.
          1    1    1    2  502    0 -0.12256939270E+03  0.83906738794E+02  0.20995346361E+03  0.25718486294E+03  0.00000000000E+00 0. -1.
         22    1    3    3    0    0  0.19015381138E+02 -0.10399732509E+03  0.12783197100E+03  0.16588562673E+03  0.00000000000E+00 0. -1.
         22    1    3    3    0    0  0.33953183436E+02  0.32014020976E+02  0.79641031532E+02  0.92306067557E+02  0.00000000000E+00 0. -1.
</event>
<event>
 7    1  0.6294601E-006  0.1391232E+03  0.7818608E-02  0.1267584E+00
          2   -1    0    0  502    0  0.00000000000E+00  0.00000000000E+00  0.57497328325E+03  0.57497328325E+03  0.00000000000E+00 0. -1.
          1   -1    0    0  501    0 -0.00000000000E+00 -0.00000000000E+00 -0.59704672992E+03  0.59704672992E+03  0.00000000000E+00 0. -1.
         25    2    1    2    0    0  0.12493834684E+03  0.57162587367E+02  0.31948169181E+03  0.36955513188E+03  0.12500116875E+03 0.  0.
          2    1    1    2  501    0 -0.13783579931E+03  0.23023562504E+02 -0.55592788928E+03  0.57322300205E+03  0.00000000000E+00 0. -1.
          1    1    1    2  502    0  0.12897452464E+02 -0.80186149871E+02  0.21437275080E+03  0.22924187924E+03  0.00000000000E+00 0. -1.
         22    1    3    3    0    0  0.83309050507E+02 -0.26249743184E+02  0.11152420039E+03  0.14165837140E+03  0.00000000000E+00 0.  1.
         22    1    3    3    0    0  0.41629296335E+02  0.83412330551E+02  0.20795749142E+03  0.22789676048E+03  0.00000000000E+00 0.  1.
</event>
<event>
 7    1  0.6294601E-006  0.2467408E+03  0.7818608E-02  0.1243214E+00
          2   -1    0    0  502    0  0.00000000000E+00  0.00000000000E+00  0.74838846733E+03  0.74838846733E+03  0.00000000000E+00 0. -1.
          1   -1    0    0  501    0 -0.00000000000E+00 -0.00000000000E+00 -0.21701301480E+04  0.21701301480E+04  0.00000000000E+00 0. -1.
         25    2    1    2    0    0 -0.77870855038E+02  0.19467221823E+03  0.35712306667E+02  0.24670195040E+03  0.12500136347E+03 0.  0.
          2    1    1    2  501    0 -0.51633387891E+02  0.27054094930E+02 -0.20370522066E+04  0.20378860673E+04  0.00000000000E+00 0. -1.
          1    1    1    2  502    0  0.12950424293E+03 -0.22172631316E+03  0.57959821925E+03  0.63393059765E+03  0.00000000000E+00 0. -1.
         22    1    3    3    0    0  0.18902583772E+02 -0.46357149529E+01  0.14216124673E+02  0.24101778505E+02  0.00000000000E+00 0. -1.
         22    1    3    3    0    0 -0.96773438810E+02  0.19930793318E+03  0.21496181994E+02  0.22260017190E+03  0.00000000000E+00 0. -1.
</event>
<event>
 7    1  0.6294601E-006  0.1430510E+03  0.7818608E-02  0.1233695E+00
          2   -1    0    0  502    0  0.00000000000E+00  0.00000000000E+00  0.55367188006E+03  0.55367188006E+03  0.00000000000E+00 0. -1.
          1   -1    0    0  501    0 -0.00000000000E+00 -0.00000000000E+00 -0.24592981069E+03  0.24592981069E+03  0.00000000000E+00 0. -1.
         25    2    1    2    0    0  0.14018017160E+03 -0.92326667821E+02  0.15051898700E+03  0.25779006380E+03  0.12500022978E+03 0.  0.
          2    1    1    2  501    0 -0.14336086023E+03 -0.18403766433E+02 -0.15415424037E+03  0.21131626698E+03  0.00000000000E+00 0. -1.
          1    1    1    2  502    0  0.31806886319E+01  0.11073043425E+03  0.31137732274E+03  0.33049535998E+03  0.00000000000E+00 0. -1.
         22    1    3    3    0    0  0.15430940953E+03 -0.55402667223E+02  0.94541055635E+02  0.18925871342E+03  0.00000000000E+00 0.  1.
         22    1    3    3    0    0 -0.14129237934E+02 -0.36924000598E+02  0.55977931363E+02  0.68531350377E+02  0.00000000000E+00 0.  1.
</event>
<event>
 7    1  0.6294601E-006  0.1449853E+03  0.7818608E-02  0.1280713E+00
          2   -1    0    0  502    0  0.00000000000E+00  0.00000000000E+00  0.64859257516E+03  0.64859257516E+03  0.00000000000E+00 0. -1.
          1   -1    0    0  501    0 -0.00000000000E+00 -0.00000000000E+00 -0.14451438027E+04  0.14451438027E+04  0.00000000000E+00 0. -1.
         25    2    1    2    0    0  0.92060075269E+02 -0.10221649938E+02 -0.34634568568E+03  0.37968314774E+03  0.12499767640E+03 0.  0.
          2    1    1    2  501    0  0.49403980551E+02  0.47737406837E+02 -0.10725417203E+04  0.10747396685E+04  0.00000000000E+00 0. -1.
          1    1    1    2  502    0 -0.14146405582E+03 -0.37515756898E+02  0.62233617842E+03  0.63931356162E+03  0.00000000000E+00 0. -1.
         22    1    3    3    0    0 -0.56446045450E+01 -0.46754666568E+02 -0.70589135141E+02  0.84856858334E+02  0.00000000000E+00 0. -1.
         22    1    3    3    0    0  0.97704679814E+02  0.36533016630E+02 -0.27575655054E+03  0.29482628941E+03  0.00000000000E+00 0. -1.
</event>
<event>
 7    1  0.6294601E-006  0.1174213E+03  0.7818608E-02  0.1401688E+00
          2   -1    0    0  502    0  0.00000000000E+00  0.00000000000E+00  0.24444988027E+04  0.24444988027E+04  0.00000000000E+00 0. -1.
          1   -1    0    0  501    0 -0.00000000000E+00 -0.00000000000E+00 -0.78100336056E+02  0.78100336056E+02  0.00000000000E+00 0. -1.
         25    2    1    2    0    0  0.88667902836E+01  0.13322612319E+03  0.26601401766E+03  0.32282538274E+03  0.12499980112E+03 0.  0.
          2    1    1    2  501    0 -0.28248506946E+02 -0.11067381218E+03  0.16185965739E+02  0.11536314981E+03  0.00000000000E+00 0. -1.
          1    1    1    2  502    0  0.19381716662E+02 -0.22552311009E+02  0.20841984833E+04  0.20844106062E+04  0.00000000000E+00 0. -1.
         22    1    3    3    0    0  0.46644643625E+02  0.13157541711E+03  0.23741102751E+03  0.27541207154E+03  0.00000000000E+00 0. -1.
         22    1    3    3    0    0 -0.37777853341E+02  0.16507060848E+01  0.28602990149E+02  0.47413311202E+02  0.00000000000E+00 0. -1.
</event>
<event>
 7    1  0.6294601E-006  0.1025697E+03  0.7818608E-02  0.1353756E+00
          2   -1    0    0  502    0  0.00000000000E+00  0.00000000000E+00  0.14817793321E+03  0.14817793321E+03  0.00000000000E+00 0. -1.
          1   -1    0    0  501    0 -0.00000000000E+00 -0.00000000000E+00 -0.75685693612E+03  0.75685693612E+03  0.00000000000E+00 0. -1.
         25    2    1    2    0    0  0.91973663831E+02 -0.36216930902E+01 -0.97986401514E+02  0.18357144019E+03  0.12499946909E+03 0.  0.
          2    1    1    2  501    0  0.36855543548E+01  0.50263001020E+02 -0.58785380425E+03  0.59001020987E+03  0.00000000000E+00 0. -1.
          1    1    1    2  502    0 -0.95659218186E+02 -0.46641307930E+02  0.77161202849E+02  0.13145321926E+03  0.00000000000E+00 0. -1.
         22    1    3    3    0    0  0.10114362061E+02  0.53718406801E+02 -0.26882296168E+02  0.60914902909E+02  0.00000000000E+00 0. -1.
         22    1    3    3    0    0  0.81859301770E+02 -0.57340099891E+02 -0.71104105346E+02  0.12265653729E+03  0.00000000000E+00 0. -1.
</event>
<event>
 7    1  0.6294601E-006  0.1390736E+03  0.7818608E-02  0.1428676E+00
          2   -1    0    0  502    0  0.00000000000E+00  0.00000000000E+00  0.16964839514E+03  0.16964839514E+03  0.00000000000E+00 0. -1.
          1   -1    0    0  501    0 -0.00000000000E+00 -0.00000000000E+00 -0.17771461664E+04  0.17771461664E+04  0.00000000000E+00 0. -1.
         25    2    1    2    0    0 -0.67688222001E+02  0.13662770340E+03 -0.91790204713E+03  0.93883868160E+03  0.12500030880E+03 0.  0.
          2    1    1    2  501    0  0.61987459207E+02 -0.11707058096E+03 -0.84292945002E+03  0.85327488170E+03  0.00000000000E+00 0. -1.
          1    1    1    2  502    0  0.57007627932E+01 -0.19557122437E+02  0.15333372587E+03  0.15468099826E+03  0.00000000000E+00 0. -1.
         22    1    3    3    0    0 -0.90118960091E+02  0.14495494598E+03 -0.74586115920E+03  0.76514196862E+03  0.00000000000E+00 0.  1.
         22    1    3    3    0    0  0.22430738091E+02 -0.83272425831E+01 -0.17204088793E+03  0.17369671298E+03  0.00000000000E+00 0.  1.
</event>
<event>
 7    1  0.6294601E-006  0.4533417E+02  0.7818608E-02  0.1557107E+00
          2   -1    0    0  502    0  0.00000000000E+00  0.00000000000E+00  0.17565064046E+02  0.17565064046E+02  0.00000000000E+00 0. -1.
          1   -1    0    0  501    0 -0.00000000000E+00 -0.00000000000E+00 -0.10275839468E+04  0.10275839468E+04  0.00000000000E+00 0. -1.
         25    2    1    2    0    0 -0.12316771304E+02 -0.51499073520E+02 -0.37998127597E+03  0.40350349187E+03  0.12500176174E+03 0.  0.
          2    1    1    2  501    0 -0.17808876543E+02  0.18376418835E+02 -0.54447694110E+03  0.54507796529E+03  0.00000000000E+00 0. -1.
          1    1    1    2  502    0  0.30125647847E+02  0.33122654686E+02 -0.85560665655E+02  0.96567553655E+02  0.00000000000E+00 0. -1.
         22    1    3    3    0    0  0.92255125199E+01 -0.90528268548E+02 -0.26456608049E+03  0.27977792699E+03  0.00000000000E+00 0. -1.
         22    1    3    3    0    0 -0.21542283824E+02  0.39029195028E+02 -0.11541519548E+03  0.12372556488E+03  0.00000000000E+00 0. -1.
</event>
<event>
 7    1  0.6294601E-006  0.8579799E+02  0.7818608E-02  0.1419633E+00
          2   -1    0    0  502    0  0.00000000000E+00  0.00000000000E+00  0.15838236334E+04  0.15838236334E+04  0.00000000000E+00 0. -1.
          1   -1    0    0  501    0 -0.00000000000E+00 -0.00000000000E+00 -0.91577970395E+03  0.91577970395E+03  0.00000000000E+00 0. -1.
         25    2    1    2    0    0 -0.21643923647E+02  0.74097509657E+02  0.10810764166E+03  0.18239435980E+03  0.12498615897E+03 0.  0.
          2    1    1    2  501    0 -0.34369866128E+02 -0.84099539457E+01 -0.87698415638E+03  0.87769768461E+03  0.00000000000E+00 0. -1.
          1    1    1    2  502    0  0.56013789775E+02 -0.65687555711E+02  0.14369204442E+04  0.14395112929E+04  0.00000000000E+00 0. -1.
         22    1    3    3    0    0  0.50690306600E+02  0.32667103358E+02  0.26948264729E+02  0.66051917435E+02  0.00000000000E+00 0.  1.
         22    1    3    3    0    0 -0.72334230247E+02  0.41430406299E+02  0.81159376931E+02  0.11634244236E+03  0.00000000000E+00 0.  1.
</event>
<event>
 7    1  0.6294601E-006  0.1574860E+03  0.7818608E-02  0.1407002E+00
          2   -1    0    0  502    0  0.00000000000E+00  0.00000000000E+00  0.14221269793E+04  0.14221269793E+04  0.00000000000E+00 0. -1.
          1   -1    0    0  501    0 -0.00000000000E+00 -0.00000000000E+00 -0.11162085862E+04  0.11162085862E+04  0.00000000000E+00 0. -1.
         25    2    1    2    0    0 -0.59700039964E+02 -0.13028027926E+03  0.26625502105E+03  0.32718978606E+03  0.12499749569E+03 0.  0.
          2    1    1    2  501    0  0.80218662898E+02  0.13585941686E+03 -0.10799079608E+04  0.10913725390E+04  0.00000000000E+00 0. -1.
          1    1    1    2  502    0 -0.20518622934E+02 -0.55791375915E+01  0.11195713329E+04  0.11197732405E+04  0.00000000000E+00 0. -1.
         22    1    3    3    0    0 -0.80027221504E+02 -0.13501204149E+03  0.26270814556E+03  0.30601989686E+03  0.00000000000E+00 0. -1.
         22    1    3    3    0    0  0.20327181540E+02  0.47317622226E+01  0.35468754894E+01  0.21169889202E+02  0.00000000000E+00 0. -1.
</event>
<event>
 7    1  0.6294601E-006  0.1133426E+03  0.7818608E-02  0.1358822E+00
          2   -1    0    0  502    0  0.00000000000E+00  0.00000000000E+00  0.27386361156E+03  0.27386361156E+03  0.00000000000E+00 0. -1.
          1   -1    0    0  501    0 -0.00000000000E+00 -0.00000000000E+00 -0.87142805242E+03  0.87142805242E+03  0.00000000000E+00 0. -1.
         25    2    1    2    0    0 -0.11080990270E+03 -0.70246631493E+02 -0.21564702557E+03  0.28167743513E+03  0.12500045622E+03 0.  0.
          2    1    1    2  501    0  0.12437993535E+01  0.43678603763E+02 -0.60874609103E+03  0.61031235511E+03  0.00000000000E+00 0. -1.
          1    1    1    2  502    0  0.10956610334E+03  0.26568027731E+02  0.22682867574E+03  0.25330187373E+03  0.00000000000E+00 0. -1.
         22    1    3    3    0    0 -0.97785476504E+02 -0.21909332076E+01 -0.17728362185E+03  0.20247538660E+03  0.00000000000E+00 0.  1.
         22    1    3    3    0    0 -0.13024426191E+02 -0.68055698286E+02 -0.38363403721E+02  0.79202048533E+02  0.00000000000E+00 0.  1.
</event>
<event>
 7    1  0.6294601E-006  0.6397636E+02  0.7818608E-02  0.1421138E+00
          2   -1    0    0  502    0  0.00000000000E+00  0.00000000000E+00  0.22850052407E+04  0.22850052407E+04  0.00000000000E+00 0. -1.
          1   -1    0    0  501    0 -0.00000000000E+00 -0.00000000000E+00 -0.29956517425E+02  0.29956517425E+02  0.00000000000E+00 0. -1.
         25    2    1    2    0    0 -0.73026810105E+02 -0.31222773401E+02  0.65740205451E+03  0.67387582880E+03  0.12499357900E+03 0.  0.
          2    1    1    2  501    0  0.32569248563E+02  0.54960104485E+02  0.26377679344E+02  0.69116937175E+02  0.00000000000E+00 0. -1.
          1    1    1    2  502    0  0.40457561543E+02 -0.23737331084E+02  0.15712689894E+04  0.15719689922E+04  0.00000000000E+00 0. -1.
         22    1    3    3    0    0  0.17478068945E+01 -0.49503492793E+02  0.10455265277E+03  0.11569316241E+03  0.00000000000E+00 0.  1.
         22    1    3    3    0    0 -0.74774617000E+02  0.18280719392E+02  0.55284940174E+03  0.55818266638E+03  0.00000000000E+00 0.  1.
</event>
<event>
 7    1  0.6294601E-006  0.1047140E+03  0.7818608E-02  0.1370018E+00
          2   -1    0    0  502    0  0.00000000000E+00  0.00000000000E+00  0.36154878783E+04  0.36154878783E+04  0.00000000000E+00 0. -1.
          1   -1    0    0  501    0 -0.00000000000E+00 -0.00000000000E+00 -0.84818129506E+03  0.84818129506E+03  0.00000000000E+00 0. -1.
         25    2    1    2    0    0 -0.13662863817E+03  0.28218489174E+02  0.53825250341E+03  0.56991584125E+03  0.12499856311E+03 0.  0.
          2    1    1    2  501    0  0.95772634638E+02 -0.41871422141E+02 -0.82891577449E+03  0.83548008638E+03  0.00000000000E+00 0. -1.
          1    1    1    2  502    0  0.40856003535E+02  0.13652932967E+02  0.30579698543E+04  0.30582732457E+04  0.00000000000E+00 0. -1.
         22    1    3    3    0    0 -0.51384130784E+02  0.45426452839E+02  0.40520346239E+03  0.41096683254E+03  0.00000000000E+00 0. -1.
         22    1    3    3    0    0 -0.85244507388E+02 -0.17207963665E+02  0.13304904101E+03  0.15894900870E+03  0.00000000000E+00 0. -1.
</event>
<event>
 7    1  0.6294601E-006  0.4568016E+02  0.7818608E-02  0.1537629E+00
          2   -1    0    0  502    0  0.00000000000E+00  0.00000000000E+00  0.12289763629E+04  0.12289763629E+04  0.00000000000E+00 0. -1.
          1   -1    0    0  501    0 -0.00000000000E+00 -0.00000000000E+00 -0.21914653072E+03  0.21914653072E+03  0.00000000000E+00 0. -1.
         25    2    1    2    0    0  0.12787466261E+02  0.57086977611E+02  0.66573154204E+03  0.67988648077E+03  0.12499879341E+03 0.  0.
          2    1    1    2  501    0  0.12775810895E+02 -0.43835949058E+02 -0.20923268312E+03  0.21415678242E+03  0.00000000000E+00 0. -1.
          1    1    1    2  502    0 -0.25563277156E+02 -0.13251028553E+02  0.55333097328E+03  0.55407963046E+03  0.00000000000E+00 0. -1.
         22    1    3    3    0    0  0.80886274977E+01  0.24515860800E+02  0.18359268130E+02  0.31678321481E+02  0.00000000000E+00 0.  1.
         22    1    3    3    0    0  0.46988387633E+01  0.32571116811E+02  0.64737227392E+03  0.64820815929E+03  0.00000000000E+00 0.  1.
</event>
<event>
 7    1  0.6294601E-006  0.8451438E+02  0.7818608E-02  0.1367909E+00
          2   -1    0    0  502    0  0.00000000000E+00  0.00000000000E+00  0.93303709178E+03  0.93303709178E+03  0.00000000000E+00 0. -1.
          1   -1    0    0  501    0 -0.00000000000E+00 -0.00000000000E+00 -0.66625996262E+02  0.66625996262E+02  0.00000000000E+00 0. -1.
         25    2    1    2    0    0 -0.46755027414E+01  0.87138997529E+02  0.77492514181E+02  0.17101177015E+03  0.12499948224E+03 0.  0.
          2    1    1    2  501    0 -0.48455046087E+02 -0.75861697583E+02  0.88853884980E+02  0.12648281119E+03  0.00000000000E+00 0. -1.
          1    1    1    2  502    0  0.53130548829E+02 -0.11277299946E+02  0.70006469636E+03  0.70216850670E+03  0.00000000000E+00 0. -1.
         22    1    3    3    0    0  0.27252800207E+02  0.10856210366E+03  0.44875840722E+02  0.12059140330E+03  0.00000000000E+00 0.  1.
         22    1    3    3    0    0 -0.31928302948E+02 -0.21423106130E+02  0.32616673459E+02  0.50420366847E+02  0.00000000000E+00 0.  1.
</event>
<event>
 7    1  0.6294601E-006  0.5752140E+02  0.7818608E-02  0.1503619E+00
          2   -1    0    0  502    0  0.00000000000E+00  0.00000000000E+00  0.11347355260E+03  0.11347355260E+03  0.00000000000E+00 0. -1.
          1   -1    0    0  501    0 -0.00000000000E+00 -0.00000000000E+00 -0.37932318874E+03  0.37932318874E+03  0.00000000000E+00 0. -1.
         25    2    1    2    0    0  0.10127045680E+02  0.80689031000E+02 -0.81556981287E+02  0.16997756164E+03  0.12501021353E+03 0.  0.
          2    1    1    2  501    0 -0.13564188072E+02 -0.25292455219E+02 -0.24144876102E+03  0.24314851364E+03  0.00000000000E+00 0. -1.
          1    1    1    2  502    0  0.34371423921E+01 -0.55396575781E+02  0.57156106169E+02  0.79670666047E+02  0.00000000000E+00 0. -1.
         22    1    3    3    0    0  0.40600527490E+02  0.41636378020E+02 -0.10117595629E+03  0.11669860727E+03  0.00000000000E+00 0.  1.
         22    1    3    3    0    0 -0.30473481810E+02  0.39052652980E+02  0.19618975007E+02  0.53278954370E+02  0.00000000000E+00 0.  1.
</event>
<event>
 7    1  0.6294601E-006  0.7114172E+02  0.7818608E-02  0.1509851E+00
          2   -1    0    0  502    0  0.00000000000E+00  0.00000000000E+00  0.21328103477E+03  0.21328103477E+03  0.00000000000E+00 0. -1.
          1   -1    0    0  501    0 -0.00000000000E+00 -0.00000000000E+00 -0.67023690296E+03  0.67023690296E+03  0.00000000000E+00 0. -1.
         25    2    1    2    0    0  0.39617291906E+02  0.32026094493E+02 -0.90584775108E+02  0.16256030546E+03  0.12500020353E+03 0.  0.
          2    1    1    2  501    0  0.11797971389E+02  0.18854416224E+02 -0.53604603604E+03  0.53650725428E+03  0.00000000000E+00 0. -1.
          1    1    1    2  502    0 -0.51415263295E+02 -0.50880510718E+02  0.16967494296E+03  0.18445037798E+03  0.00000000000E+00 0. -1.
         22    1    3    3    0    0 -0.11387252211E+02 -0.18740461994E+02 -0.87849545619E+02  0.90545110824E+02  0.00000000000E+00 0.  1.
         22    1    3    3    0    0  0.51004544117E+02  0.50766556488E+02 -0.27352294888E+01  0.72015194637E+02  0.00000000000E+00 0.  1.
</event>
<event>
 7    1  0.6294601E-006  0.8788387E+02  0.7818608E-02  0.1313457E+00
          2   -1    0    0  502    0  0.00000000000E+00  0.00000000000E+00  0.71356543080E+03  0.71356543080E+03  0.00000000000E+00 0. -1.
          1   -1    0    0  501    0 -0.00000000000E+00 -0.00000000000E+00 -0.45710147099E+03  0.45710147099E+03  0.00000000000E+00 0. -1.
         25    2    1    2    0    0  0.33015152819E+01 -0.28692018221E+02  0.32580744533E+02  0.13236380655E+03  0.12499816182E+03 0.  0.
          2    1    1    2  501    0 -0.87854440730E+02  0.22742643593E+01 -0.39929916936E+03  0.40885621151E+03  0.00000000000E+00 0. -1.
          1    1    1    2  502    0  0.84552925448E+02  0.26417753862E+02  0.62318238463E+03  0.62944688373E+03  0.00000000000E+00 0. -1.
         22    1    3    3    0    0 -0.51910737398E+02 -0.38626458310E+02  0.39548107176E+02  0.75833902181E+02  0.00000000000E+00 0. -1.
         22    1    3    3    0    0  0.55212252680E+02  0.99344400887E+01 -0.69673626430E+01  0.56529904370E+02  0.00000000000E+00 0. -1.
</event>
<event>
 7    1  0.6294601E-006  0.3422819E+02  0.7818608E-02  0.1566510E+00
          2   -1    0    0  502    0  0.00000000000E+00  0.00000000000E+00  0.78746320158E+03  0.78746320158E+03  0.00000000000E+00 0. -1.
          1   -1    0    0  501    0 -0.00000000000E+00 -0.00000000000E+00 -0.15891996603E+03  0.15891996603E+03  0.00000000000E+00 0. -1.
         25    2    1    2    0    0 -0.48258923748E+02 -0.91384998761E+00  0.20892727293E+03  0.24820009168E+03  0.12499168491E+03 0.  0.
          2    1    1    2  501    0  0.26113240499E+02 -0.22097674987E+02 -0.13671825755E+03  0.14093292914E+03  0.00000000000E+00 0. -1.
          1    1    1    2  502    0  0.22145683249E+02  0.23011524974E+02  0.55633422016E+03  0.55725014679E+03  0.00000000000E+00 0. -1.
         22    1    3    3    0    0  0.10108459955E+02  0.32346794069E+02  0.59670618815E+01  0.34410781402E+02  0.00000000000E+00 0. -1.
         22    1    3    3    0    0 -0.58367383704E+02 -0.33260644056E+02  0.20296021104E+03  0.21378931028E+03  0.00000000000E+00 0. -1.
</event>
<event>
 7    1  0.6294601E-006  0.5381576E+02  0.7818608E-02  0.1485859E+00
          2   -1    0    0  502    0  0.00000000000E+00  0.00000000000E+00  0.14902431922E+04  0.14902431922E+04  0.00000000000E+00 0. -1.
          1   -1    0    0  501    0 -0.00000000000E+00 -0.00000000000E+00 -0.54402119425E+03  0.54402119425E+03  0.00000000000E+00 0. -1.
         25    2    1    2    0    0 -0.44960722173E+02 -0.75337106182E+02  0.18334824611E+03  0.23862027043E+03  0.12500363195E+03 0.  0.
          2    1    1    2  501    0  0.19458458893E+02  0.28717070245E+02 -0.51524990513E+03  0.51641627248E+03  0.00000000000E+00 0. -1.
          1    1    1    2  502    0  0.25502263279E+02  0.46620035937E+02  0.12781236569E+04  0.12792278435E+04  0.00000000000E+00 0. -1.
         22    1    3    3    0    0  0.25279714550E+02 -0.30936994626E+02  0.30186552348E+01  0.40065869311E+02  0.00000000000E+00 0.  1.
         22    1    3    3    0    0 -0.70240436723E+02 -0.44400111557E+02  0.18032959088E+03  0.19855440112E+03  0.00000000000E+00 0.  1.
</event>
<event>
 7    1  0.6294601E-006  0.8903039E+02  0.7818608E-02  0.1387059E+00
          2   -1    0    0  502    0  0.00000000000E+00  0.00000000000E+00  0.18065762863E+03  0.18065762863E+03  0.00000000000E+00 0. -1.
          1   -1    0    0  501    0 -0.00000000000E+00 -0.00000000000E+00 -0.23407521893E+04  0.23407521893E+04  0.00000000000E+00 0. -1.
         25    2    1    2    0    0 -0.40127582814E+02 -0.35751947506E+02 -0.14795428047E+04  0.14857863346E+04  0.12500278517E+03 0.  0.
          2    1    1    2  501    0 -0.43780603629E+02  0.51122572113E+01 -0.84624133101E+03  0.84738849811E+03  0.00000000000E+00 0. -1.
          1    1    1    2  502    0  0.83908186444E+02  0.30639690294E+02  0.16568957508E+03  0.18823498523E+03  0.00000000000E+00 0. -1.
         22    1    3    3    0    0  0.31109766318E+02  0.24774322108E+02 -0.59203876263E+03  0.59337296960E+03  0.00000000000E+00 0. -1.
         22    1    3    3    0    0 -0.71237349132E+02 -0.60526269613E+02 -0.88750404211E+03  0.89241336497E+03  0.00000000000E+00 0. -1.
</event>
<event>
 7    1  0.6294601E-006  0.7876350E+02  0.7818608E-02  0.1433274E+00
          2   -1    0    0  502    0  0.00000000000E+00  0.00000000000E+00  0.18488185827E+04  0.18488185827E+04  0.00000000000E+00 0. -1.
          1   -1    0    0  501    0 -0.00000000000E+00 -0.00000000000E+00 -0.23813611626E+03  0.23813611626E+03  0.00000000000E+00 0. -1.
         25    2    1    2    0    0  0.80713224499E+01 -0.56249869494E+02 -0.61441155152E+02  0.15045089645E+03  0.12502504801E+03 0.  0.
          2    1    1    2  501    0  0.10549733789E+02  0.85576521409E+02 -0.11794311214E+03  0.14610001916E+03  0.00000000000E+00 0. -1.
          1    1    1    2  502    0 -0.18621056239E+02 -0.29326651916E+02  0.17900667337E+04  0.17904037834E+04  0.00000000000E+00 0. -1.
         22    1    3    3    0    0 -0.34047512820E+02 -0.23563871116E+02  0.25381057387E+02  0.48566317807E+02  0.00000000000E+00 0. -1.
         22    1    3    3    0    0  0.42118835269E+02 -0.32685998377E+02 -0.86822212540E+02  0.10188457864E+03  0.00000000000E+00 0. -1.
</event>
<event>
 7    1  0.6294601E-006  0.2065444E+03  0.7818608E-02  0.1206959E+00
          2   -1    0    0  502    0  0.00000000000E+00  0.00000000000E+00  0.14983153666E+04  0.14983153666E+04  0.00000000000E+00 0. -1.
          1   -1    0    0  501    0 -0.00000000000E+00 -0.00000000000E+00 -0.24280897870E+03  0.24280897870E+03  0.00000000000E+00 0. -1.
         25    2    1    2    0    0  0.16313681867E+03  0.33996344413E+02  0.44980363024E+03  0.49569854699E+03  0.12499748268E+03 0.  0.
          2    1    1    2  501    0 -0.20465413145E+03  0.58702928905E+02 -0.16503998027E+03  0.26938363438E+03  0.00000000000E+00 0. -1.
          1    1    1    2  502    0  0.41517312783E+02 -0.92699273317E+02  0.97074273795E+03  0.97604216396E+03  0.00000000000E+00 0. -1.
         22    1    3    3    0    0  0.14281570964E+03  0.74832037038E+02  0.37326765751E+03  0.40660165375E+03  0.00000000000E+00 0.  1.
         22    1    3    3    0    0  0.20321109026E+02 -0.40835692626E+02  0.76535972730E+02  0.89096893246E+02  0.00000000000E+00 0.  1.
</event>
<event>
 7    1  0.6294601E-006  0.9104334E+02  0.7818608E-02  0.1463177E+00
          2   -1    0    0  502    0  0.00000000000E+00  0.00000000000E+00  0.25823464275E+03  0.25823464275E+03  0.00000000000E+00 0. -1.
          1   -1    0    0  501    0 -0.00000000000E+00 -0.00000000000E+00 -0.77992122870E+03  0.77992122870E+03  0.00000000000E+00 0. -1.
         25    2    1    2    0    0  0.20212173634E+02  0.10050856239E+03 -0.34078904685E+03  0.37719415557E+03  0.12501101338E+03 0.  0.
          2    1    1    2  501    0 -0.22057844267E+02 -0.97020234447E+01 -0.41197312820E+03  0.41267727841E+03  0.00000000000E+00 0. -1.
          1    1    1    2  502    0  0.18456706332E+01 -0.90806538948E+02  0.23107558910E+03  0.24828443747E+03  0.00000000000E+00 0. -1.
         22    1    3    3    0    0  0.49993688566E+02 -0.66425256959E+01 -0.10312819301E+03  0.11479946097E+03  0.00000000000E+00 0.  1.
         22    1    3    3    0    0 -0.29781514932E+02  0.10715108809E+03 -0.23766085384E+03  0.26239469460E+03  0.00000000000E+00 0.  1.
</event>
<event>
 7    1  0.6294601E-006  0.6583126E+02  0.7818608E-02  0.1454596E+00
          2   -1    0    0  502    0  0.00000000000E+00  0.00000000000E+00  0.14349157546E+04  0.14349157546E+04  0.00000000000E+00 0. -1.
          1   -1    0    0  501    0 -0.00000000000E+00 -0.00000000000E+00 -0.77090301992E+03  0.77090301992E+03  0.00000000000E+00 0. -1.
         25    2    1    2    0    0 -0.57812326639E+02  0.26525161558E+02  0.57438535096E+03  0.59126032118E+03  0.12499754675E+03 0.  0.
          2    1    1    2  501    0  0.65355341277E+02  0.81363978898E+01 -0.76067283934E+03  0.76351862461E+03  0.00000000000E+00 0. -1.
          1    1    1    2  502    0 -0.75430146379E+01 -0.34661559448E+02  0.85030022310E+03  0.85103982879E+03  0.00000000000E+00 0. -1.
         22    1    3    3    0    0  0.68642399607E+01 -0.41944402360E+02  0.24558617120E+03  0.24923687159E+03  0.00000000000E+00 0.  1.
         22    1    3    3    0    0 -0.64676566600E+02  0.68469563918E+02  0.32879917976E+03  0.34202344958E+03  0.00000000000E+00 0.  1.
</event>
<event>
 7    1  0.6294601E-006  0.9628195E+02  0.7818608E-02  0.1398231E+00
          2   -1    0    0  502    0  0.00000000000E+00  0.00000000000E+00  0.12722603438E+04  0.12722603438E+04  0.00000000000E+00 0. -1.
          1   -1    0    0  501    0 -0.00000000000E+00 -0.00000000000E+00 -0.10301428052E+03  0.10301428052E+03  0.00000000000E+00 0. -1.
         25    2    1    2    0    0 -0.40454150530E+02 -0.11819590542E+03  0.69586019999E+03  0.71795091784E+03  0.12500116854E+03 0.  0.
          2    1    1    2  501    0  0.48874694137E+02  0.81887614214E+02 -0.66431206646E+02  0.11622143651E+03  0.00000000000E+00 0. -1.
          1    1    1    2  502    0 -0.84205436071E+01  0.36308291211E+02  0.53981706992E+03  0.54110226994E+03  0.00000000000E+00 0. -1.
         22    1    3    3    0    0  0.34681219722E+02 -0.35856150956E+01  0.84334857775E+02  0.91257941424E+02  0.00000000000E+00 0. -1.
         22    1    3    3    0    0 -0.75135370252E+02 -0.11461029033E+03  0.61152534221E+03  0.62669297641E+03  0.00000000000E+00 0. -1.
</event>
<event>
 7    1  0.6294601E-006  0.6424626E+02  0.7818608E-02  0.1482286E+00
          2   -1    0    0  502    0  0.00000000000E+00  0.00000000000E+00  0.48329621636E+03  0.48329621636E+03  0.00000000000E+00 0. -1.
          1   -1    0    0  501    0 -0.00000000000E+00 -0.00000000000E+00 -0.14772773248E+03  0.14772773248E+03  0.00000000000E+00 0. -1.
         25    2    1    2    0    0 -0.56156571249E+02 -0.87719223431E-01  0.16807650002E+03  0.21686130661E+03  0.12500219301E+03 0.  0.
          2    1    1    2  501    0 -0.32342478740E+01  0.29619389087E+02 -0.11767243899E+03  0.12138604313E+03  0.00000000000E+00 0. -1.
          1    1    1    2  502    0  0.59390819123E+02 -0.29531669863E+02  0.28516442285E+03  0.29277659910E+03  0.00000000000E+00 0. -1.
         22    1    3    3    0    0 -0.22205655900E+02  0.62227310507E+02  0.81719474698E+02  0.10508759143E+03  0.00000000000E+00 0. -1.
         22    1    3    3    0    0 -0.33950915349E+02 -0.62315029730E+02  0.86357025323E+02  0.11177371518E+03  0.00000000000E+00 0. -1.
</event>
<event>
 7    1  0.6294601E-006  0.6076352E+02  0.7818608E-02  0.1498766E+00
          2   -1    0    0  502    0  0.00000000000E+00  0.00000000000E+00  0.37951199710E+04  0.37951199710E+04  0.00000000000E+00 0. -1.
          1   -1    0    0  501    0 -0.00000000000E+00 -0.00000000000E+00 -0.51774446719E+01  0.51774446719E+01  0.00000000000E+00 0. -1.
         25    2    1    2    0    0  0.60443812535E+02  0.45252531322E+02  0.31245720157E+04  0.31279827796E+04  0.12499896655E+03 0.  0.
          2    1    1    2  501    0 -0.13002700961E+02 -0.24897757069E+02  0.82258887635E+02  0.86922339674E+02  0.00000000000E+00 0. -1.
          1    1    1    2  502    0 -0.47441111574E+02 -0.20354774253E+02  0.58311162296E+03  0.58539229645E+03  0.00000000000E+00 0. -1.
         22    1    3    3    0    0 -0.23397042567E+02  0.47126414497E+02  0.17935004781E+04  0.17942720767E+04  0.00000000000E+00 0.  1.
         22    1    3    3    0    0  0.83840855102E+02 -0.18738831751E+01  0.13310715377E+04  0.13337107028E+04  0.00000000000E+00 0.  1.
</event>
<event>
 7    1  0.6294601E-006  0.1019533E+03  0.7818608E-02  0.1308875E+00
          2   -1    0    0  502    0  0.00000000000E+00  0.00000000000E+00  0.80377169460E+03  0.80377169460E+03  0.00000000000E+00 0. -1.
          1   -1    0    0  501    0 -0.00000000000E+00 -0.00000000000E+00 -0.82484100520E+03  0.82484100520E+03  0.00000000000E+00 0. -1.
         25    2    1    2    0    0 -0.11611260315E+03 -0.10212306902E+03 -0.44655711345E+03  0.48882451003E+03  0.12499955279E+03 0.  0.
          2    1    1    2  501    0  0.82241137199E+02  0.34988581413E+02 -0.34971098201E+03  0.36095093353E+03  0.00000000000E+00 0. -1.
          1    1    1    2  502    0  0.33871465950E+02  0.67134487607E+02  0.77519878487E+03  0.77883725623E+03  0.00000000000E+00 0. -1.
         22    1    3    3    0    0 -0.13303401107E+03 -0.66364689238E+02 -0.40511116546E+03  0.43152911427E+03  0.00000000000E+00 0.  1.
         22    1    3    3    0    0  0.16921407925E+02 -0.35758379782E+02 -0.41445947991E+02  0.57295395763E+02  0.00000000000E+00 0.  1.
</event>
<event>
 7    1  0.6294601E-006  0.4911790E+02  0.7818608E-02  0.1473348E+00
          2   -1    0    0  502    0  0.00000000000E+00  0.00000000000E+00  0.26349589579E+04  0.26349589579E+04  0.00000000000E+00 0. -1.
          1   -1    0    0  501    0 -0.00000000000E+00 -0.00000000000E+00 -0.68577947371E+02  0.68577947371E+02  0.00000000000E+00 0. -1.
         25    2    1    2    0    0 -0.21121286471E+02 -0.47135538392E+02  0.14039060178E+04  0.14104056866E+04  0.12499690490E+03 0.  0.
          2    1    1    2  501    0 -0.27447049124E+02  0.31154156623E+02 -0.58141241373E+02  0.71444565426E+02  0.00000000000E+00 0. -1.
          1    1    1    2  502    0  0.48568335595E+02  0.15981381769E+02  0.12206162341E+04  0.12216866532E+04  0.00000000000E+00 0. -1.
         22    1    3    3    0    0  0.64525747175E+01  0.41526944683E+02  0.39046469026E+03  0.39271974383E+03  0.00000000000E+00 0.  1.
         22    1    3    3    0    0 -0.27573861189E+02 -0.88662483075E+02  0.10134413276E+04  0.10176859428E+04  0.00000000000E+00 0.  1.
</event>
<event>
 7    1  0.6294601E-006  0.3297613E+02  0.7818608E-02  0.1590242E+00
          2   -1    0    0  502    0  0.00000000000E+00  0.00000000000E+00  0.26951231101E+03  0.26951231101E+03  0.00000000000E+00 0. -1.
          1   -1    0    0  501    0 -0.00000000000E+00 -0.00000000000E+00 -0.20068030555E+03  0.20068030555E+03  0.00000000000E+00 0. -1.
         25    2    1    2    0    0 -0.15168950709E+02  0.96448250456E+01 -0.54045341495E+02  0.13736185166E+03  0.12499703852E+03 0.  0.
          2    1    1    2  501    0  0.10124634294E+01 -0.34520853942E+02 -0.10120114367E+03  0.10693168809E+03  0.00000000000E+00 0. -1.
          1    1    1    2  502    0  0.14156487280E+02  0.24876028897E+02  0.22407849062E+03  0.22589907681E+03  0.00000000000E+00 0. -1.
         22    1    3    3    0    0  0.45084506051E+02  0.23679899678E+02  0.58402405188E+01  0.51258743097E+02  0.00000000000E+00 0.  1.
         22    1    3    3    0    0 -0.60253456760E+02 -0.14035074632E+02 -0.59885582013E+02  0.86103108565E+02  0.00000000000E+00 0.  1.
</event>
<event>
 7    1  0.6294601E-006  0.6512710E+02  0.7818608E-02  0.1384517E+00
          2   -1    0    0  502    0  0.00000000000E+00  0.00000000000E+00  0.79660500698E+03  0.79660500698E+03  0.00000000000E+00 0. -1.
          1   -1    0    0  501    0 -0.00000000000E+00 -0.00000000000E+00 -0.53713401393E+03  0.53713401393E+03  0.00000000000E+00 0. -1.
         25    2    1    2    0    0  0.14807463964E+02 -0.98964797523E+01 -0.44783429223E+03  0.46530829171E+03  0.12505619430E+03 0.  0.
          2    1    1    2  501    0 -0.30243972127E+02 -0.53557562415E+02 -0.67245303735E+02  0.91131998861E+02  0.00000000000E+00 0. -1.
          1    1    1    2  502    0  0.15436508163E+02  0.63454042168E+02  0.77455058901E+03  0.77729873034E+03  0.00000000000E+00 0. -1.
         22    1    3    3    0    0  0.56187763921E+01 -0.47413455050E+01 -0.45335425635E+03  0.45341386476E+03  0.00000000000E+00 0. -1.
         22    1    3    3    0    0  0.91886875721E+01 -0.51551342473E+01  0.55199641226E+01  0.11894426944E+02  0.00000000000E+00 0. -1.
</event>
<event>
 7    1  0.6294601E-006  0.5567894E+02  0.7818608E-02  0.1458595E+00
          2   -1    0    0  502    0  0.00000000000E+00  0.00000000000E+00  0.77968904966E+02  0.77968904966E+02  0.00000000000E+00 0. -1.
          1   -1    0    0  501    0 -0.00000000000E+00 -0.00000000000E+00 -0.30626972902E+03  0.30626972902E+03  0.00000000000E+00 0. -1.
         25    2    1    2    0    0 -0.17297980008E+01 -0.27719145169E+02 -0.13608659775E+03  0.18685536393E+03  0.12499608687E+03 0.  0.
          2    1    1    2  501    0  0.34378997755E+02 -0.21848833824E+02 -0.12367204239E+03  0.13020776127E+03  0.00000000000E+00 0. -1.
          1    1    1    2  502    0 -0.32649199754E+02  0.49567978993E+02  0.31457816090E+02  0.67175508776E+02  0.00000000000E+00 0. -1.
         22    1    3    3    0    0 -0.27416131436E+02 -0.34959627586E+02  0.36648503395E+01  0.44578592978E+02  0.00000000000E+00 0. -1.
         22    1    3    3    0    0  0.25686333436E+02  0.72404824166E+01 -0.13975144809E+03  0.14227677096E+03  0.00000000000E+00 0. -1.
</event>
<event>
 7    1  0.1176074E-005  0.7268249E+02  0.7818608E-02  0.1371423E+00
          2   -1    0    0  502    0  0.00000000000E+00  0.00000000000E+00  0.17452607282E+04  0.17452607282E+04  0.00000000000E+00 0. -1.
          1   -1    0    0  501    0 -0.00000000000E+00 -0.00000000000E+00 -0.76094443966E+03  0.76094443966E+03  0.00000000000E+00 0. -1.
         25    2    1    2    0    0 -0.86936043624E+02 -0.90267257660E+02 -0.11536317832E+03  0.21127995352E+03  0.12499800943E+03 0.  0.
          2    1    1    2  501    0  0.22529671233E+02  0.57057181357E+02 -0.59527246799E+03  0.59842494866E+03  0.00000000000E+00 0. -1.
          1    1    1    2  502    0  0.64406372391E+02  0.33210076303E+02  0.16949519348E+04  0.16965002656E+04  0.00000000000E+00 0. -1.
         22    1    3    3    0    0 -0.61347192543E+02 -0.11259525293E+03 -0.50011715325E+02  0.13763117629E+03  0.00000000000E+00 0. -1.
         22    1    3    3    0    0 -0.25588851082E+02  0.22327995274E+02 -0.65351462996E+02  0.73648777236E+02  0.00000000000E+00 0. -1.
</event>
<event>
 7    1  0.6294601E-006  0.4866035E+02  0.7818608E-02  0.1553410E+00
          2   -1    0    0  502    0  0.00000000000E+00  0.00000000000E+00  0.95755138046E+03  0.95755138046E+03  0.00000000000E+00 0. -1.
          1   -1    0    0  501    0 -0.00000000000E+00 -0.00000000000E+00 -0.26565151445E+02  0.26565151445E+02  0.00000000000E+00 0. -1.
         25    2    1    2    0    0  0.17803343355E+02  0.23953263363E+02  0.51150530914E+03  0.52740210813E+03  0.12499833809E+03 0.  0.
          2    1    1    2  501    0  0.22133038918E+02  0.10293906806E+02 -0.82454263803E+01  0.25764762473E+02  0.00000000000E+00 0. -1.
          1    1    1    2  502    0 -0.39936382273E+02 -0.34247170169E+02  0.42772634626E+03  0.43094966130E+03  0.00000000000E+00 0. -1.
         22    1    3    3    0    0 -0.45786622029E+01 -0.45907528376E+02  0.11053859575E+03  0.11977999190E+03  0.00000000000E+00 0. -1.
         22    1    3    3    0    0  0.22382005558E+02  0.69860791739E+02  0.40096671339E+03  0.40762211623E+03  0.00000000000E+00 0. -1.
</event>
<event>
 7    1  0.6294601E-006  0.5973953E+02  0.7818608E-02  0.1433791E+00
          2   -1    0    0  502    0  0.00000000000E+00  0.00000000000E+00  0.24422061810E+04  0.24422061810E+04  0.00000000000E+00 0. -1.
          1   -1    0    0  501    0 -0.00000000000E+00 -0.00000000000E+00 -0.10844468708E+03  0.10844468708E+03  0.00000000000E+00 0. -1.
         25    2    1    2    0    0  0.26974467979E+02  0.26205340638E+01  0.12458795263E+04  0.12524272585E+04  0.12499501900E+03 0.  0.
          2    1    1    2  501    0  0.41887820480E+02 -0.18080546830E+02 -0.99124973377E+02  0.10912037402E+03  0.00000000000E+00 0. -1.
          1    1    1    2  502    0 -0.68862288460E+02  0.15460012766E+02  0.11870069410E+04  0.11891032356E+04  0.00000000000E+00 0. -1.
         22    1    3    3    0    0 -0.42270599129E+02 -0.26555124984E+02  0.37419263471E+03  0.37750775633E+03  0.00000000000E+00 0. -1.
         22    1    3    3    0    0  0.69245067109E+02  0.29175659048E+02  0.87168689154E+03  0.87491950217E+03  0.00000000000E+00 0. -1.
</event>
<event>
 7    1  0.6294601E-006  0.4800705E+02  0.7818608E-02  0.1465251E+00
          2   -1    0    0  502    0  0.00000000000E+00  0.00000000000E+00  0.87476468113E+03  0.87476468113E+03  0.00000000000E+00 0. -1.
          1   -1    0    0  501    0 -0.00000000000E+00 -0.00000000000E+00 -0.10381081321E+04  0.10381081321E+04  0.00000000000E+00 0. -1.
         25    2    1    2    0    0 -0.40413247543E+02 -0.11817072563E+02  0.17851624683E+03  0.22195033388E+03  0.12498410517E+03 0.  0.
          2    1    1    2  501    0  0.27629428406E+02 -0.35544553560E+02 -0.10149995275E+04  0.10159974614E+04  0.00000000000E+00 0. -1.
          1    1    1    2  502    0  0.12783819137E+02  0.47361626123E+02  0.67313982968E+03  0.67492501803E+03  0.00000000000E+00 0. -1.
         22    1    3    3    0    0 -0.65104899107E+02 -0.49303521496E+02  0.14313796944E+03  0.16479673363E+03  0.00000000000E+00 0. -1.
         22    1    3    3    0    0  0.24691651564E+02  0.37486448932E+02  0.35378277398E+02  0.57153600256E+02  0.00000000000E+00 0. -1.
</event>
<event>
 7    1  0.6294601E-006  0.1104245E+03  0.7818608E-02  0.1330917E+00
          2   -1    0    0  502    0  0.00000000000E+00  0.00000000000E+00  0.32002949740E+03  0.32002949740E+03  0.00000000000E+00 0. -1.
          1   -1    0    0  501    0 -0.00000000000E+00 -0.00000000000E+00 -0.19119014581E+04  0.19119014581E+04  0.00000000000E+00 0. -1.
         25    2    1    2    0    0 -0.23548088600E+02  0.82888948057E+02 -0.47474492053E+03  0.49842693773E+03  0.12498632924E+03 0.  0.
          2    1    1    2  501    0  0.80522915885E+02 -0.85028416821E+02 -0.14202479128E+04  0.14250676845E+04  0.00000000000E+00 0. -1.
          1    1    1    2  502    0 -0.56974827285E+02  0.21394687641E+01  0.30312087261E+03  0.30843633328E+03  0.00000000000E+00 0. -1.
         22    1    3    3    0    0  0.41553617556E+02  0.35429533516E+02 -0.89464748366E+02  0.10481362591E+03  0.00000000000E+00 0. -1.
         22    1    3    3    0    0 -0.65101706156E+02  0.47459414540E+02 -0.38528017217E+03  0.39361331181E+03  0.00000000000E+00 0. -1.
</event>
<event>
 7    1  0.6294601E-006  0.5929181E+02  0.7818608E-02  0.1459501E+00
          2   -1    0    0  502    0  0.00000000000E+00  0.00000000000E+00  0.76128422154E+03  0.76128422154E+03  0.00000000000E+00 0. -1.
          1   -1    0    0  501    0 -0.00000000000E+00 -0.00000000000E+00 -0.17031465587E+03  0.17031465587E+03  0.00000000000E+00 0. -1.
         25    2    1    2    0    0 -0.91013143371E+02 -0.15766403369E+02  0.68080027140E+03  0.69831636782E+03  0.12499907311E+03 0.  0.
          2    1    1    2  501    0  0.53926255361E+02  0.24051114090E+02 -0.15051456866E+03  0.16168219595E+03  0.00000000000E+00 0. -1.
          1    1    1    2  502    0  0.37086888010E+02 -0.82847107207E+01  0.60683862927E+02  0.71600313642E+02  0.00000000000E+00 0. -1.
         22    1    3    3    0    0  0.13075515224E+02  0.17900308067E+02  0.24826024156E+02  0.33282451873E+02  0.00000000000E+00 0.  1.
         22    1    3    3    0    0 -0.10408865860E+03 -0.33666711436E+02  0.65597424725E+03  0.66503391594E+03  0.00000000000E+00 0.  1.
</event>
<event>
 7    1  0.6294601E-006  0.6431982E+02  0.7818608E-02  0.1479137E+00
          2   -1    0    0  502    0  0.00000000000E+00  0.00000000000E+00  0.17746740249E+04  0.17746740249E+04  0.00000000000E+00 0. -1.
          1   -1    0    0  501    0 -0.00000000000E+00 -0.00000000000E+00 -0.12600202801E+04  0.12600202801E+04  0.00000000000E+00 0. -1.
         25    2    1    2    0    0 -0.92504274055E+00  0.37087326656E+02  0.32721968848E+03  0.35224204519E+03  0.12500163345E+03 0.  0.
          2    1    1    2  501    0 -0.16014324093E+02 -0.62366598744E+02 -0.12465167072E+04  0.12481786541E+04  0.00000000000E+00 0. -1.
          1    1    1    2  502    0  0.16939366833E+02  0.25279272088E+02  0.14339507635E+04  0.14342736057E+04  0.00000000000E+00 0. -1.
         22    1    3    3    0    0  0.51800846823E+02  0.15502978091E+02  0.68217325210E+02  0.87047535979E+02  0.00000000000E+00 0.  1.
         22    1    3    3    0    0 -0.52725889563E+02  0.21584348565E+02  0.25900236327E+03  0.26519450921E+03  0.00000000000E+00 0.  1.
</event>
<event>
 7    1  0.6294601E-006  0.1714402E+03  0.7818608E-02  0.1289851E+00
          2   -1    0    0  502    0  0.00000000000E+00  0.00000000000E+00  0.46626920510E+03  0.46626920510E+03  0.00000000000E+00 0. -1.
          1   -1    0    0  501    0 -0.00000000000E+00 -0.00000000000E+00 -0.68152133703E+03  0.68152133703E+03  0.00000000000E+00 0. -1.
         25    2    1    2    0    0 -0.16071779409E+03  0.31783851368E+02 -0.37198587657E+03  0.42525001109E+03  0.12499462795E+03 0.  0.
          2    1    1    2  501    0  0.10535261582E+02  0.52247251920E+02 -0.26328900204E+03  0.26862960683E+03  0.00000000000E+00 0. -1.
          1    1    1    2  502    0  0.15018253251E+03 -0.84031103288E+02  0.42002274668E+03  0.45391092421E+03  0.00000000000E+00 0. -1.
         22    1    3    3    0    0 -0.13079672756E+03  0.73572422872E+02 -0.23382992619E+03  0.27784369658E+03  0.00000000000E+00 0. -1.
         22    1    3    3    0    0 -0.29921066523E+02 -0.41788571504E+02 -0.13815595038E+03  0.14740631450E+03  0.00000000000E+00 0. -1.
</event>
<event>
 7    1  0.6294601E-006  0.1013519E+03  0.7818608E-02  0.1298461E+00
          2   -1    0    0  502    0  0.00000000000E+00  0.00000000000E+00  0.11672100249E+04  0.11672100249E+04  0.00000000000E+00 0. -1.
          1   -1    0    0  501    0 -0.00000000000E+00 -0.00000000000E+00 -0.97948817486E+03  0.97948817486E+03  0.00000000000E+00 0. -1.
         25    2    1    2    0    0  0.47971701405E+02 -0.14347840991E+03  0.24687965172E+03  0.31537609687E+03  0.12500072717E+03 0.  0.
          2    1    1    2  501    0  0.26775305787E+02  0.78791453334E+02 -0.94064036352E+03  0.94431419750E+03  0.00000000000E+00 0. -1.
          1    1    1    2  502    0 -0.74747007192E+02  0.64686956581E+02  0.88148256181E+03  0.88700790538E+03  0.00000000000E+00 0. -1.
         22    1    3    3    0    0  0.90247479454E+01 -0.40857529938E+02  0.18437652960E+03  0.18906477328E+03  0.00000000000E+00 0.  1.
         22    1    3    3    0    0  0.38946953460E+02 -0.10262087998E+03  0.62503122124E+02  0.12631132359E+03  0.00000000000E+00 0.  1.
</event>
<event>
 7    1  0.6294601E-006  0.8167031E+02  0.7818608E-02  0.1386217E+00
          2   -1    0    0  502    0  0.00000000000E+00  0.00000000000E+00  0.59527464478E+03  0.59527464478E+03  0.00000000000E+00 0. -1.
          1   -1    0    0  501    0 -0.00000000000E+00 -0.00000000000E+00 -0.56376567887E+02  0.56376567887E+02  0.00000000000E+00 0. -1.
         25    2    1    2    0    0 -0.88328124771E+01 -0.98236819713E+02  0.41943677168E+03  0.44864336415E+03  0.12500068574E+03 0.  0.
          2    1    1    2  501    0  0.38223446807E+02  0.29654646563E+02 -0.13775500236E+02  0.50301037319E+02  0.00000000000E+00 0. -1.
          1    1    1    2  502    0 -0.29390634329E+02  0.68582173149E+02  0.13323680545E+03  0.15270681120E+03  0.00000000000E+00 0. -1.
         22    1    3    3    0    0  0.22245854909E+02  0.22796336495E+02  0.57364084664E+02  0.65613940802E+02  0.00000000000E+00 0.  1.
         22    1    3    3    0    0 -0.31078667386E+02 -0.12103315621E+03  0.36207268702E+03  0.38302942335E+03  0.00000000000E+00 0.  1.
</event>
<event>
 7    1  0.6294601E-006  0.3663781E+02  0.7818608E-02  0.1557406E+00
          2   -1    0    0  502    0  0.00000000000E+00  0.00000000000E+00  0.75082956099E+03  0.75082956099E+03  0.00000000000E+00 0. -1.
          1   -1    0    0  501    0 -0.00000000000E+00 -0.00000000000E+00 -0.82679862461E+03  0.82679862461E+03  0.00000000000E+00 0. -1.
         25    2    1    2    0    0  0.47477250604E+02  0.35548899491E+02  0.46007507641E+03  0.48042918582E+03  0.12500125230E+03 0.  0.
          2    1    1    2  501    0 -0.15980021361E+02 -0.32953578451E+02 -0.81531923059E+03  0.81614137696E+03  0.00000000000E+00 0. -1.
          1    1    1    2  502    0 -0.31497229243E+02 -0.25953210406E+01  0.27927509056E+03  0.28105762283E+03  0.00000000000E+00 0. -1.
         22    1    3    3    0    0  0.43106348689E+02  0.21906983806E+02  0.46324158614E+03  0.46575834975E+03  0.00000000000E+00 0. -1.
         22    1    3    3    0    0  0.43709019152E+01  0.13641915685E+02 -0.31665097278E+01  0.14670836069E+02  0.00000000000E+00 0. -1.
</event>
<event>
 7    1  0.6294601E-006  0.1090640E+03  0.7818608E-02  0.1380957E+00
          2   -1    0    0  502    0  0.00000000000E+00  0.00000000000E+00  0.13751710676E+04  0.13751710676E+04  0.00000000000E+00 0. -1.
          1   -1    0    0  501    0 -0.00000000000E+00 -0.00000000000E+00 -0.38626685339E+02  0.38626685339E+02  0.00000000000E+00 0. -1.
         25    2    1    2    0    0  0.10443821290E+03  0.28461052298E+02  0.67905170423E+03  0.69889472306E+03  0.12500098037E+03 0.  0.
          2    1    1    2  501    0 -0.10970704650E+03  0.89761431483E+01  0.79756670627E+02  0.13593135660E+03  0.00000000000E+00 0. -1.
          1    1    1    2  502    0  0.52688335975E+01 -0.37437195446E+02  0.57773600735E+03  0.57897167323E+03  0.00000000000E+00 0. -1.
         22    1    3    3    0    0  0.97682871009E+02 -0.33287861290E+02  0.43127918548E+03  0.44345435033E+03  0.00000000000E+00 0.  1.
         22    1    3    3    0    0  0.67553418913E+01  0.61748913587E+02  0.24777251875E+03  0.25544037273E+03  0.00000000000E+00 0.  1.
</event>
<event>
 7    1  0.6294601E-006  0.7725963E+02  0.7818608E-02  0.1364924E+00
          2   -1    0    0  502    0  0.00000000000E+00  0.00000000000E+00  0.41031370399E+03  0.41031370399E+03  0.00000000000E+00 0. -1.
          1   -1    0    0  501    0 -0.00000000000E+00 -0.00000000000E+00 -0.32600466091E+03  0.32600466091E+03  0.00000000000E+00 0. -1.
         25    2    1    2    0    0 -0.11717866284E+03  0.53286435113E+02 -0.10266850583E+03  0.20672696093E+03  0.12499972439E+03 0.  0.
          2    1    1    2  501    0  0.41641703168E+02 -0.44450759057E+02 -0.16166078501E+03  0.17275448137E+03  0.00000000000E+00 0. -1.
          1    1    1    2  502    0  0.75536959670E+02 -0.88356760561E+01  0.34863833392E+03  0.35683692259E+03  0.00000000000E+00 0. -1.
         22    1    3    3    0    0 -0.94522622590E+02  0.93702149964E+02 -0.76486998229E+02  0.15350856649E+03  0.00000000000E+00 0.  1.
         22    1    3    3    0    0 -0.22656040247E+02 -0.40415714851E+02 -0.26181507599E+02  0.53218394440E+02  0.00000000000E+00 0.  1.
</event>
<event>
 7    1  0.6294601E-006  0.9436620E+02  0.7818608E-02  0.1304983E+00
          2   -1    0    0  502    0  0.00000000000E+00  0.00000000000E+00  0.18101135488E+04  0.18101135488E+04  0.00000000000E+00 0. -1.
          1   -1    0    0  501    0 -0.00000000000E+00 -0.00000000000E+00 -0.15244932596E+03  0.15244932596E+03  0.00000000000E+00 0. -1.
         25    2    1    2    0    0  0.29797647189E+02  0.14356500031E+03  0.19181137884E+03  0.27187346571E+03  0.12499906884E+03 0.  0.
          2    1    1    2  501    0 -0.63322408068E+02 -0.66352920244E+02 -0.92383445297E+02  0.13018117511E+03  0.00000000000E+00 0. -1.
          1    1    1    2  502    0  0.33524760879E+02 -0.77212080071E+02  0.15582362893E+04  0.15605082340E+04  0.00000000000E+00 0. -1.
         22    1    3    3    0    0  0.15417460110E+02  0.59831515528E+02  0.17457110917E+03  0.18518255988E+03  0.00000000000E+00 0.  1.
         22    1    3    3    0    0  0.14380187079E+02  0.83733484787E+02  0.17240269665E+02  0.86690905827E+02  0.00000000000E+00 0.  1.
</event>
<event>
 7    1  0.6294601E-006  0.4951012E+02  0.7818608E-02  0.1502508E+00
          2   -1    0    0  502    0  0.00000000000E+00  0.00000000000E+00  0.13762643439E+04  0.13762643439E+04  0.00000000000E+00 0. -1.
          1   -1    0    0  501    0 -0.00000000000E+00 -0.00000000000E+00 -0.90905176868E+02  0.90905176868E+02  0.00000000000E+00 0. -1.
         25    2    1    2    0    0 -0.71335824450E+01  0.15296451696E+02  0.18167688411E+03  0.22116907292E+03  0.12499759663E+03 0.  0.
          2    1    1    2  501    0 -0.10754308626E+02  0.31830896348E+02 -0.66620085675E+02  0.74612980987E+02  0.00000000000E+00 0. -1.
          1    1    1    2  502    0  0.17887891071E+02 -0.47127348044E+02  0.11703023686E+04  0.11713874669E+04  0.00000000000E+00 0. -1.
         22    1    3    3    0    0  0.86420159141E+01  0.83948276554E+01  0.19745019244E+03  0.19781743114E+03  0.00000000000E+00 0.  1.
         22    1    3    3    0    0 -0.15775598359E+02  0.69016240405E+01 -0.15773308327E+02  0.23351641775E+02  0.00000000000E+00 0.  1.
</event>
<event>
 7    1  0.6294601E-006  0.1188931E+03  0.7818608E-02  0.1261539E+00
          2   -1    0    0  502    0  0.00000000000E+00  0.00000000000E+00  0.30912311648E+04  0.30912311648E+04  0.00000000000E+00 0. -1.
          1   -1    0    0  501    0 -0.00000000000E+00 -0.00000000000E+00 -0.88283863980E+03  0.88283863980E+03  0.00000000000E+00 0. -1.
         25    2    1    2    0    0 -0.28697089744E+02 -0.11902914845E+03  0.35082019315E+02  0.17845840363E+03  0.12500077042E+03 0.  0.
          2    1    1    2  501    0 -0.69912146795E+02  0.98086192134E+02 -0.80582157425E+03  0.81477421343E+03  0.00000000000E+00 0. -1.
          1    1    1    2  502    0  0.98609236538E+02  0.20942956320E+02  0.29791320799E+04  0.29808371875E+04  0.00000000000E+00 0. -1.
         22    1    3    3    0    0 -0.62331982339E+02 -0.73795579094E+02 -0.21098022854E+02  0.98874617999E+02  0.00000000000E+00 0. -1.
         22    1    3    3    0    0  0.33634892596E+02 -0.45233569360E+02  0.56180042169E+02  0.79583785629E+02  0.00000000000E+00 0. -1.
</event>
<event>
 7    1  0.6294601E-006  0.1089675E+03  0.7818608E-02  0.1272815E+00
          2   -1    0    0  502    0  0.00000000000E+00  0.00000000000E+00  0.23729158051E+04  0.23729158051E+04  0.00000000000E+00 0. -1.
          1   -1    0    0  501    0 -0.00000000000E+00 -0.00000000000E+00 -0.45324054286E+04  0.45324054286E+04  0.00000000000E+00 0. -1.
         25    2    1    2    0    0  0.10078405706E+03 -0.82419080003E+02  0.90387439860E+02  0.20185540306E+03  0.12500153421E+03 0.  0.
          2    1    1    2  501    0 -0.94845975687E+02 -0.26874896156E+02 -0.44747832211E+04  0.44758689541E+04  0.00000000000E+00 0. -1.
          1    1    1    2  502    0 -0.59380813761E+01  0.10929397616E+03  0.22249061576E+04  0.22275968765E+04  0.00000000000E+00 0. -1.
         22    1    3    3    0    0  0.36779661082E+02  0.19555031064E+02  0.67476805549E+02  0.79298562385E+02  0.00000000000E+00 0. -1.
         22    1    3    3    0    0  0.64004395981E+02 -0.10197411107E+03  0.22910634311E+02  0.12255684068E+03  0.00000000000E+00 0. -1.
</event>
<event>
 7    1  0.6294601E-006  0.3412942E+02  0.7818608E-02  0.1561224E+00
          2   -1    0    0  502    0  0.00000000000E+00  0.00000000000E+00  0.57949550066E+03  0.57949550066E+03  0.00000000000E+00 0. -1.
          1   -1    0    0  501    0 -0.00000000000E+00 -0.00000000000E+00 -0.34342735717E+02  0.34342735717E+02  0.00000000000E+00 0. -1.
         25    2    1    2    0    0  0.33634177036E+02 -0.57356028253E+01  0.14166091016E+03  0.19198021237E+03  0.12499773387E+03 0.  0.
          2    1    1    2  501    0 -0.10437177514E+02  0.31427004596E+02  0.24261735187E+02  0.41051468751E+02  0.00000000000E+00 0. -1.
          1    1    1    2  502    0 -0.23196999522E+02 -0.25691401771E+02  0.37923011960E+03  0.38080655525E+03  0.00000000000E+00 0. -1.
         22    1    3    3    0    0  0.58135029966E+02 -0.61794963333E+01  0.11563602310E+02  0.59595174155E+02  0.00000000000E+00 0. -1.
         22    1    3    3    0    0 -0.24500852930E+02  0.44389350801E+00  0.13009730785E+03  0.13238503822E+03  0.00000000000E+00 0. -1.
</event>
<event>
 7    1  0.6294601E-006  0.7104746E+02  0.7818608E-02  0.1362167E+00
          2   -1    0    0  502    0  0.00000000000E+00  0.00000000000E+00  0.19956188783E+04  0.19956188783E+04  0.00000000000E+00 0. -1.
          1   -1    0    0  501    0 -0.00000000000E+00 -0.00000000000E+00 -0.15269742567E+03  0.15269742567E+03  0.00000000000E+00 0. -1.
         25    2    1    2    0    0 -0.22543925536E+02  0.27932000494E+02  0.39384347544E+02  0.13588289875E+03  0.12499844043E+03 0.  0.
          2    1    1    2  501    0  0.73018197642E+02  0.22068886991E+02 -0.89765215754E+02  0.11779850135E+03  0.00000000000E+00 0. -1.
          1    1    1    2  502    0 -0.50474272106E+02 -0.50000887486E+02  0.18933023209E+04  0.18946349039E+04  0.00000000000E+00 0. -1.
         22    1    3    3    0    0  0.31292317773E+02  0.35221779499E+02  0.61289204303E+02  0.77305559094E+02  0.00000000000E+00 0.  1.
         22    1    3    3    0    0 -0.53836243309E+02 -0.72897790047E+01 -0.21904856759E+02  0.58577339656E+02  0.00000000000E+00 0.  1.
</event>
<event>
 7    1  0.6294601E-006  0.1353924E+03  0.7818608E-02  0.1350203E+00
          2   -1    0    0  502    0  0.00000000000E+00  0.00000000000E+00  0.19806193478E+04  0.19806193478E+04  0.00000000000E+00 0. -1.
          1   -1    0    0  501    0 -0.00000000000E+00 -0.00000000000E+00 -0.88062334002E+02  0.88062334002E+02  0.00000000000E+00 0. -1.
         25    2    1    2    0    0  0.89804620231E+02 -0.41676813136E+02  0.75586928333E+03  0.77250536261E+03  0.12499734083E+03 0.  0.
          2    1    1    2  501    0 -0.12401394718E+03  0.61125936765E+02 -0.19228243647E+02  0.13959070382E+03  0.00000000000E+00 0. -1.
          1    1    1    2  502    0  0.34209326947E+02 -0.19449123630E+02  0.11559159741E+04  0.11565856154E+04  0.00000000000E+00 0. -1.
         22    1    3    3    0    0 -0.45902359096E+01  0.35064172066E+02  0.11994924162E+03  0.12505353651E+03  0.00000000000E+00 0.  1.
         22    1    3    3    0    0  0.94394856141E+02 -0.76740985202E+02  0.63592004171E+03  0.64745182610E+03  0.00000000000E+00 0.  1.
</event>
<event>
 7    1  0.6294601E-006  0.4529740E+02  0.7818608E-02  0.1488789E+00
          2   -1    0    0  502    0  0.00000000000E+00  0.00000000000E+00  0.95520945905E+03  0.95520945905E+03  0.00000000000E+00 0. -1.
          1   -1    0    0  501    0 -0.00000000000E+00 -0.00000000000E+00 -0.17271697959E+03  0.17271697959E+03  0.00000000000E+00 0. -1.
         25    2    1    2    0    0 -0.53201606281E+01  0.49391414315E+01  0.63778436268E+03  0.64995838457E+03  0.12499723667E+03 0.  0.
          2    1    1    2  501    0  0.45484209783E+02 -0.80260906219E+00 -0.16217789171E+03  0.16843730608E+03  0.00000000000E+00 0. -1.
          1    1    1    2  502    0 -0.40164049155E+02 -0.41365323693E+01  0.30688600849E+03  0.30953074799E+03  0.00000000000E+00 0. -1.
         22    1    3    3    0    0  0.51345195772E+02 -0.20520474186E+01  0.46839962845E+03  0.47120988101E+03  0.00000000000E+00 0. -1.
         22    1    3    3    0    0 -0.56665356400E+02  0.69911888501E+01  0.16938473422E+03  0.17874850356E+03  0.00000000000E+00 0. -1.
</event>
<event>
 7    1  0.6294601E-006  0.6279709E+02  0.7818608E-02  0.1393760E+00
          2   -1    0    0  502    0  0.00000000000E+00  0.00000000000E+00  0.12214888280E+04  0.12214888280E+04  0.00000000000E+00 0. -1.
          1   -1    0    0  501    0 -0.00000000000E+00 -0.00000000000E+00 -0.58893810496E+03  0.58893810496E+03  0.00000000000E+00 0. -1.
         25    2    1    2    0    0  0.38626711623E+01 -0.40406372977E+02 -0.38095933815E+03  0.40298119759E+03  0.12496492741E+03 0.  0.
          2    1    1    2  501    0  0.43979217491E+02  0.75304475732E+02 -0.18654932908E+03  0.20592617079E+03  0.00000000000E+00 0. -1.
          1    1    1    2  502    0 -0.47841888653E+02 -0.34898102755E+02  0.12000593903E+04  0.12015195646E+04  0.00000000000E+00 0. -1.
         22    1    3    3    0    0 -0.29494615539E+02 -0.69321234681E+02 -0.15016235934E+03  0.16800029788E+03  0.00000000000E+00 0.  1.
         22    1    3    3    0    0  0.33357286701E+02  0.28914861704E+02 -0.23079697881E+03  0.23498089971E+03  0.00000000000E+00 0.  1.
</event>
<event>
 7    1  0.6294601E-006  0.8173404E+02  0.7818608E-02  0.1366091E+00
          2   -1    0    0  502    0  0.00000000000E+00  0.00000000000E+00  0.66511858985E+03  0.66511858985E+03  0.00000000000E+00 0. -1.
          1   -1    0    0  501    0 -0.00000000000E+00 -0.00000000000E+00 -0.14984548655E+03  0.14984548655E+03  0.00000000000E+00 0. -1.
         25    2    1    2    0    0 -0.59458939454E+02 -0.27996271196E+01  0.60668299156E+02  0.15115572894E+03  0.12499683386E+03 0.  0.
          2    1    1    2  501    0 -0.64167517591E-01 -0.57016996983E+02 -0.93354560959E+02  0.10938928702E+03  0.00000000000E+00 0. -1.
          1    1    1    2  502    0  0.59523106971E+02  0.59816624103E+02  0.54795936510E+03  0.55441906044E+03  0.00000000000E+00 0. -1.
         22    1    3    3    0    0 -0.25372177119E+02 -0.61590054574E+02  0.12286719228E+02  0.67735113963E+02  0.00000000000E+00 0. -1.
         22    1    3    3    0    0 -0.34086762335E+02  0.58790427455E+02  0.48381579928E+02  0.83420614977E+02  0.00000000000E+00 0. -1.
</event>
<event>
 7    1  0.6294601E-006  0.1056947E+03  0.7818608E-02  0.1315188E+00
          2   -1    0    0  502    0  0.00000000000E+00  0.00000000000E+00  0.73728235618E+02  0.73728235618E+02  0.00000000000E+00 0. -1.
          1   -1    0    0  501    0 -0.00000000000E+00 -0.00000000000E+00 -0.19795325308E+04  0.19795325308E+04  0.00000000000E+00 0. -1.
         25    2    1    2    0    0  0.27591224675E+02  0.64000116112E+02 -0.71047884054E+03  0.72474981226E+03  0.12499926790E+03 0.  0.
          2    1    1    2  501    0  0.67585726984E+02 -0.11203943398E+02 -0.12158283410E+04  0.12177569189E+04  0.00000000000E+00 0. -1.
          1    1    1    2  502    0 -0.95176951659E+02 -0.52796172714E+02  0.20502886313E+02  0.11075403526E+03  0.00000000000E+00 0. -1.
         22    1    3    3    0    0  0.67833549379E+02  0.62063165764E+02 -0.34442009221E+03  0.35648061222E+03  0.00000000000E+00 0.  1.
         22    1    3    3    0    0 -0.40242324704E+02  0.19369503484E+01 -0.36605874833E+03  0.36826920004E+03  0.00000000000E+00 0.  1.
</event>
<event>
 7    1  0.6294601E-006  0.1049296E+03  0.7818608E-02  0.1340314E+00
          2   -1    0    0  502    0  0.00000000000E+00  0.00000000000E+00  0.31334312145E+03  0.31334312145E+03  0.00000000000E+00 0. -1.
          1   -1    0    0  501    0 -0.00000000000E+00 -0.00000000000E+00 -0.53525794885E+03  0.53525794885E+03  0.00000000000E+00 0. -1.
         25    2    1    2    0    0 -0.63403167703E+02  0.90731120286E+02 -0.12051110279E+03  0.20591406281E+03  0.12500230999E+03 0.  0.
          2    1    1    2  501    0  0.53420186390E+02  0.14216507582E+02 -0.35958644924E+03  0.36381071985E+03  0.00000000000E+00 0. -1.
          1    1    1    2  502    0  0.99829813128E+01 -0.10494762787E+03  0.25818272463E+03  0.27887628764E+03  0.00000000000E+00 0. -1.
         22    1    3    3    0    0  0.93495930468E+01 -0.13418561758E+02  0.13535213588E+02  0.21229100232E+02  0.00000000000E+00 0.  1.
         22    1    3    3    0    0 -0.72752760750E+02  0.10414968204E+03 -0.13404631638E+03  0.18468496258E+03  0.00000000000E+00 0.  1.
</event>
<event>
 7    1  0.6294601E-006  0.9924738E+02  0.7818608E-02  0.1431745E+00
          2   -1    0    0  502    0  0.00000000000E+00  0.00000000000E+00  0.14838440798E+04  0.14838440798E+04  0.00000000000E+00 0. -1.
          1   -1    0    0  501    0 -0.00000000000E+00 -0.00000000000E+00 -0.91723771282E+03  0.91723771282E+03  0.00000000000E+00 0. -1.
         25    2    1    2    0    0 -0.72180298502E+02  0.60143474576E+01  0.74437765549E+03  0.75826729966E+03  0.12500014353E+03 0.  0.
          2    1    1    2  501    0  0.99344656209E+02  0.30320362001E+00 -0.90731513762E+03  0.91273775620E+03  0.00000000000E+00 0. -1.
          1    1    1    2  502    0 -0.27164357707E+02 -0.63175510776E+01  0.72954384915E+03  0.73007673680E+03  0.00000000000E+00 0. -1.
         22    1    3    3    0    0 -0.69175915713E+02 -0.11759097951E+01  0.74688390047E+03  0.75008149615E+03  0.00000000000E+00 0.  1.
         22    1    3    3    0    0 -0.30043827889E+01  0.71902572527E+01 -0.25062449831E+01  0.81858035169E+01  0.00000000000E+00 0.  1.
</event>
<event>
 7    1  0.6294601E-006  0.4106793E+02  0.7818608E-02  0.1594570E+00
          2   -1    0    0  502    0  0.00000000000E+00  0.00000000000E+00  0.70434235824E+03  0.70434235824E+03  0.00000000000E+00 0. -1.
          1   -1    0    0  501    0 -0.00000000000E+00 -0.00000000000E+00 -0.42838028213E+03  0.42838028213E+03  0.00000000000E+00 0. -1.
         25    2    1    2    0    0 -0.29395610689E+02  0.51224565379E+02 -0.10648413653E+03  0.17450389881E+03  0.12499872536E+03 0.  0.
          2    1    1    2  501    0  0.28252239838E+02 -0.28867692518E+02 -0.28628122670E+03  0.28911671257E+03  0.00000000000E+00 0. -1.
          1    1    1    2  502    0  0.11433708510E+01 -0.22356872861E+02  0.66872743934E+03  0.66910202898E+03  0.00000000000E+00 0. -1.
         22    1    3    3    0    0 -0.39923429242E+02  0.88234640334E+02 -0.91426601560E+02  0.13318429123E+03  0.00000000000E+00 0.  1.
         22    1    3    3    0    0  0.10527818553E+02 -0.37010074955E+02 -0.15057534970E+02  0.41319607585E+02  0.00000000000E+00 0.  1.
</event>
<event>
 7    1  0.6294601E-006  0.1659866E+03  0.7818608E-02  0.1294840E+00
          2   -1    0    0  502    0  0.00000000000E+00  0.00000000000E+00  0.45723677559E+03  0.45723677559E+03  0.00000000000E+00 0. -1.
          1   -1    0    0  501    0 -0.00000000000E+00 -0.00000000000E+00 -0.79878640262E+03  0.79878640262E+03  0.00000000000E+00 0. -1.
         25    2    1    2    0    0  0.85757995400E+02  0.92318580725E+02 -0.25200624635E+03  0.30823626184E+03  0.12500116315E+03 0.  0.
          2    1    1    2  501    0  0.52378015760E+02  0.42015995291E+01 -0.50069302158E+03  0.50344275924E+03  0.00000000000E+00 0. -1.
          1    1    1    2  502    0 -0.13813601116E+03 -0.96520180254E+02  0.41114964090E+03  0.44434415714E+03  0.00000000000E+00 0. -1.
         22    1    3    3    0    0  0.14471047264E+02  0.87526930735E+02 -0.20316539737E+03  0.22169021968E+03  0.00000000000E+00 0. -1.
         22    1    3    3    0    0  0.71286948136E+02  0.47916499898E+01 -0.48840848980E+02  0.86546042158E+02  0.00000000000E+00 0. -1.
</event>
<event>
 7    1  0.6294601E-006  0.5324281E+02  0.7818608E-02  0.1527272E+00
          2   -1    0    0  502    0  0.00000000000E+00  0.00000000000E+00  0.66575257882E+03  0.66575257882E+03  0.00000000000E+00 0. -1.
          1   -1    0    0  501    0 -0.00000000000E+00 -0.00000000000E+00 -0.83518145308E+02  0.83518145308E+02  0.00000000000E+00 0. -1.
         25    2    1    2    0    0 -0.40363086158E+02  0.65393056271E+02  0.27196864345E+03  0.30903046447E+03  0.12500981728E+03 0.  0.
          2    1    1    2  501    0  0.20096060933E+02 -0.48405958271E+02 -0.53861771379E+02  0.75153701687E+02  0.00000000000E+00 0. -1.
          1    1    1    2  502    0  0.20267025225E+02 -0.16987098001E+02  0.36412756145E+03  0.36508655798E+03  0.00000000000E+00 0. -1.
         22    1    3    3    0    0  0.83416210130E+01  0.65166051300E+02  0.52147560101E+02  0.83878274348E+02  0.00000000000E+00 0. -1.
         22    1    3    3    0    0 -0.48704707171E+02  0.22700497153E+00  0.21982108334E+03  0.22515219012E+03  0.00000000000E+00 0. -1.
</event>
<event>
 7    1  0.6294601E-006  0.4984374E+02  0.7818608E-02  0.1560643E+00
          2   -1    0    0  502    0  0.00000000000E+00  0.00000000000E+00  0.17517455977E+04  0.17517455977E+04  0.00000000000E+00 0. -1.
          1   -1    0    0  501    0 -0.00000000000E+00 -0.00000000000E+00 -0.13777429382E+03  0.13777429382E+03  0.00000000000E+00 0. -1.
         25    2    1    2    0    0 -0.40540057385E+01  0.67353231143E+02 -0.66219312123E+02  0.15672902868E+03  0.12500439362E+03 0.  0.
          2    1    1    2  501    0  0.13345040554E+02 -0.18434905259E+02 -0.20943365092E+02  0.30928310343E+02  0.00000000000E+00 0. -1.
          1    1    1    2  502    0 -0.92910348154E+01 -0.48918325884E+02  0.17011339811E+04  0.17018625525E+04  0.00000000000E+00 0. -1.
         22    1    3    3    0    0 -0.26066480636E+02  0.87288141107E+02 -0.80933215033E+01  0.91455906554E+02  0.00000000000E+00 0.  1.
         22    1    3    3    0    0  0.22012474898E+02 -0.19934909964E+02 -0.58125990620E+02  0.65273122125E+02  0.00000000000E+00 0.  1.
</event>
<event>
 7    1  0.6294601E-006  0.3880016E+02  0.7818608E-02  0.1522382E+00
          2   -1    0    0  502    0  0.00000000000E+00  0.00000000000E+00  0.76595310581E+01  0.76595310581E+01  0.00000000000E+00 0. -1.
          1   -1    0    0  501    0 -0.00000000000E+00 -0.00000000000E+00 -0.19828247504E+04  0.19828247504E+04  0.00000000000E+00 0. -1.
         25    2    1    2    0    0  0.23998534163E+02  0.10273087198E+02 -0.83827924546E+03  0.84794955760E+03  0.12499957162E+03 0.  0.
          2    1    1    2  501    0  0.90321224109E+01 -0.37734239715E+02 -0.94933573322E+03  0.95012830000E+03  0.00000000000E+00 0. -1.
          1    1    1    2  502    0 -0.33030656574E+02  0.27461152517E+02 -0.18755024068E+03  0.19240642388E+03  0.00000000000E+00 0. -1.
         22    1    3    3    0    0  0.56844962253E+02 -0.38454174762E+02 -0.42238350523E+03  0.42792277198E+03  0.00000000000E+00 0. -1.
         22    1    3    3    0    0 -0.32846428090E+02  0.48727261959E+02 -0.41589574023E+03  0.42002678562E+03  0.00000000000E+00 0. -1.
</event>
<event>
 7    1  0.6294601E-006  0.9592900E+02  0.7818608E-02  0.1474729E+00
          2   -1    0    0  502    0  0.00000000000E+00  0.00000000000E+00  0.21334156669E+04  0.21334156669E+04  0.00000000000E+00 0. -1.
          1   -1    0    0  501    0 -0.00000000000E+00 -0.00000000000E+00 -0.65091575711E+03  0.65091575711E+03  0.00000000000E+00 0. -1.
         25    2    1    2    0    0  0.10556878830E+01  0.10330067593E+03  0.36950252728E+03  0.40352237826E+03  0.12500419179E+03 0.  0.
          2    1    1    2  501    0  0.18608660978E+02 -0.98422786539E+01 -0.63242523679E+03  0.63277549956E+03  0.00000000000E+00 0. -1.
          1    1    1    2  502    0 -0.19664348861E+02 -0.93458397276E+02  0.17454226193E+04  0.17480335462E+04  0.00000000000E+00 0. -1.
         22    1    3    3    0    0  0.21687787058E+02  0.37210918028E+02  0.30774909476E+03  0.31074831915E+03  0.00000000000E+00 0. -1.
         22    1    3    3    0    0 -0.20632099175E+02  0.66089757902E+02  0.61753432521E+02  0.92774059112E+02  0.00000000000E+00 0. -1.
</event>
<event>
 7    1  0.6294601E-006  0.4193716E+02  0.7818608E-02  0.1542627E+00
          2   -1    0    0  502    0  0.00000000000E+00  0.00000000000E+00  0.96384752105E+03  0.96384752105E+03  0.00000000000E+00 0. -1.
          1   -1    0    0  501    0 -0.00000000000E+00 -0.00000000000E+00 -0.12217221888E+03  0.12217221888E+03  0.00000000000E+00 0. -1.
         25    2    1    2    0    0 -0.15613254510E+02  0.63414643779E+01  0.33320336676E+01  0.12617445400E+03  0.12499961003E+03 0.  0.
          2    1    1    2  501    0  0.32794737847E+02 -0.31371628206E+02 -0.51980133249E+02  0.69004406666E+02  0.00000000000E+00 0. -1.
          1    1    1    2  502    0 -0.17181483337E+02  0.25030163828E+02  0.89032340175E+03  0.89084087927E+03  0.00000000000E+00 0. -1.
         22    1    3    3    0    0  0.48079478363E+02  0.30420094490E+02 -0.69227205562E+01  0.57314417456E+02  0.00000000000E+00 0. -1.
         22    1    3    3    0    0 -0.63692732874E+02 -0.24078630112E+02  0.10254754224E+02  0.68860036546E+02  0.00000000000E+00 0. -1.
</event>
<event>
 7    1  0.6294601E-006  0.4423967E+02  0.7818608E-02  0.1536213E+00
          2   -1    0    0  502    0  0.00000000000E+00  0.00000000000E+00  0.71065241261E+03  0.71065241261E+03  0.00000000000E+00 0. -1.
          1   -1    0    0  501    0 -0.00000000000E+00 -0.00000000000E+00 -0.31521002750E+04  0.31521002750E+04  0.00000000000E+00 0. -1.
         25    2    1    2    0    0 -0.23112747169E+02  0.40657877679E+02 -0.22384268424E+03  0.26061100524E+03  0.12500114664E+03 0.  0.
          2    1    1    2  501    0  0.41073435017E+02 -0.16619162691E+02 -0.29093794834E+04  0.29097168594E+04  0.00000000000E+00 0. -1.
          1    1    1    2  502    0 -0.17960687848E+02 -0.24038714987E+02  0.69177430522E+03  0.69242482298E+03  0.00000000000E+00 0. -1.
         22    1    3    3    0    0  0.35831016466E+02 -0.26118320791E+02 -0.77916838673E+02  0.89649663528E+02  0.00000000000E+00 0.  1.
         22    1    3    3    0    0 -0.58943763635E+02  0.66776198469E+02 -0.14592584557E+03  0.17096134171E+03  0.00000000000E+00 0.  1.
</event>
<event>
 7    1  0.6294601E-006  0.1644111E+03  0.7818608E-02  0.1271675E+00
          2   -1    0    0  502    0  0.00000000000E+00  0.00000000000E+00  0.10120248749E+04  0.10120248749E+04  0.00000000000E+00 0. -1.
          1   -1    0    0  501    0 -0.00000000000E+00 -0.00000000000E+00 -0.15007549701E+04  0.15007549701E+04  0.00000000000E+00 0. -1.
         25    2    1    2    0    0  0.16573702573E+03  0.13394576152E+03 -0.43089022651E+03  0.49668372844E+03  0.12497243725E+03 0.  0.
          2    1    1    2  501    0 -0.13743758578E+03 -0.74256467001E+02 -0.10299574262E+04  0.10417367291E+04  0.00000000000E+00 0. -1.
          1    1    1    2  502    0 -0.28299439950E+02 -0.59689294522E+02  0.97211755761E+03  0.97435938749E+03  0.00000000000E+00 0. -1.
         22    1    3    3    0    0  0.11472906458E+03  0.14995622531E+03 -0.29059404276E+03  0.34654657040E+03  0.00000000000E+00 0.  1.
         22    1    3    3    0    0  0.51007961150E+02 -0.16010463782E+02 -0.14029618375E+03  0.15013715804E+03  0.00000000000E+00 0.  1.
</event>
<event>
 7    1  0.6294601E-006  0.8784118E+02  0.7818608E-02  0.1372352E+00
          2   -1    0    0  502    0  0.00000000000E+00  0.00000000000E+00  0.46110474164E+03  0.46110474164E+03  0.00000000000E+00 0. -1.
          1   -1    0    0  501    0 -0.00000000000E+00 -0.00000000000E+00 -0.22648264830E+03  0.22648264830E+03  0.00000000000E+00 0. -1.
         25    2    1    2    0    0 -0.87986386972E+02 -0.82369874963E+02 -0.12876948328E+03  0.21617679552E+03  0.12499770599E+03 0.  0.
          2    1    1    2  501    0  0.52877258868E+02  0.46251536545E+02 -0.28852743619E+02  0.75945308956E+02  0.00000000000E+00 0. -1.
          1    1    1    2  502    0  0.35109128104E+02  0.36118338418E+02  0.39224432024E+03  0.39546528547E+03  0.00000000000E+00 0. -1.
         22    1    3    3    0    0 -0.97338398066E+02 -0.10376307618E+02 -0.53311029853E+02  0.11146522956E+03  0.00000000000E+00 0. -1.
         22    1    3    3    0    0  0.93520110939E+01 -0.71993567345E+02 -0.75458453431E+02  0.10471156595E+03  0.00000000000E+00 0. -1.
</event>
<event>
 7    1  0.6294601E-006  0.6220588E+02  0.7818608E-02  0.1410689E+00
          2   -1    0    0  502    0  0.00000000000E+00  0.00000000000E+00  0.55294409466E+03  0.55294409466E+03  0.00000000000E+00 0. -1.
          1   -1    0    0  501    0 -0.00000000000E+00 -0.00000000000E+00 -0.68900382000E+03  0.68900382000E+03  0.00000000000E+00 0. -1.
         25    2    1    2    0    0 -0.21000063058E+02 -0.86148838754E+02 -0.71938805523E+02  0.16930583774E+03  0.12500659937E+03 0.  0.
          2    1    1    2  501    0  0.46657330765E+02  0.40570475497E+02 -0.56533515821E+03  0.56870617291E+03  0.00000000000E+00 0. -1.
          1    1    1    2  502    0 -0.25657267707E+02  0.45578363256E+02  0.50121423840E+03  0.50393590401E+03  0.00000000000E+00 0. -1.
         22    1    3    3    0    0  0.26819661129E+02 -0.99637996531E+02 -0.54161958271E+02  0.11653558383E+03  0.00000000000E+00 0. -1.
         22    1    3    3    0    0 -0.47819724187E+02  0.13489157777E+02 -0.17776847251E+02  0.52770253904E+02  0.00000000000E+00 0. -1.
</event>
<event>
 7    1  0.6294601E-006  0.7076205E+02  0.7818608E-02  0.1522656E+00
          2   -1    0    0  502    0  0.00000000000E+00  0.00000000000E+00  0.58139161057E+03  0.58139161057E+03  0.00000000000E+00 0. -1.
          1   -1    0    0  501    0 -0.00000000000E+00 -0.00000000000E+00 -0.34675033079E+03  0.34675033079E+03  0.00000000000E+00 0. -1.
         25    2    1    2    0    0  0.50187501163E+02 -0.36656039443E+02  0.51607398407E+03  0.53462099289E+03  0.12499919399E+03 0.  0.
          2    1    1    2  501    0 -0.66550319217E+02  0.24278553663E+02 -0.33172494886E+03  0.33920470936E+03  0.00000000000E+00 0. -1.
          1    1    1    2  502    0  0.16362818054E+02  0.12377485780E+02  0.50292244561E+02  0.54316239117E+02  0.00000000000E+00 0. -1.
         22    1    3    3    0    0  0.47611510894E+01 -0.37667722028E+02  0.35740412853E+02  0.52143100727E+02  0.00000000000E+00 0. -1.
         22    1    3    3    0    0  0.45426350074E+02  0.10116825853E+01  0.48033357122E+03  0.48247789216E+03  0.00000000000E+00 0. -1.
</event>
<event>
 7    1  0.6294601E-006  0.7061954E+02  0.7818608E-02  0.1434506E+00
          2   -1    0    0  502    0  0.00000000000E+00  0.00000000000E+00  0.74022046300E+03  0.74022046300E+03  0.00000000000E+00 0. -1.
          1   -1    0    0  501    0 -0.00000000000E+00 -0.00000000000E+00 -0.29883182389E+02  0.29883182389E+02  0.00000000000E+00 0. -1.
         25    2    1    2    0    0  0.10446885432E+02  0.70829239747E+02  0.26198780075E+03  0.29897970216E+03  0.12500134377E+03 0.  0.
          2    1    1    2  501    0 -0.46265097692E+02 -0.57022544470E+02  0.12104843389E+03  0.14157949424E+03  0.00000000000E+00 0. -1.
          1    1    1    2  502    0  0.35818212260E+02 -0.13806695277E+02  0.32730104597E+03  0.32954444899E+03  0.00000000000E+00 0. -1.
         22    1    3    3    0    0 -0.53596739307E+02  0.44375735342E+02  0.17096848015E+03  0.18458612503E+03  0.00000000000E+00 0.  1.
         22    1    3    3    0    0  0.64043624739E+02  0.26453504405E+02  0.91019320604E+02  0.11439357713E+03  0.00000000000E+00 0.  1.
</event>
<event>
 7    1  0.6294601E-006  0.4658422E+02  0.7818608E-02  0.1489174E+00
          2   -1    0    0  502    0  0.00000000000E+00  0.00000000000E+00  0.68925662535E+03  0.68925662535E+03  0.00000000000E+00 0. -1.
          1   -1    0    0  501    0 -0.00000000000E+00 -0.00000000000E+00 -0.59840926068E+03  0.59840926068E+03  0.00000000000E+00 0. -1.
         25    2    1    2    0    0 -0.29140447543E+02  0.79974000514E+02  0.27657499464E+03  0.31522192712E+03  0.12500451685E+03 0.  0.
          2    1    1    2  501    0  0.20162455553E+02 -0.41861379033E+02 -0.57717545735E+03  0.57904266530E+03  0.00000000000E+00 0. -1.
          1    1    1    2  502    0  0.89779919903E+01 -0.38112621482E+02  0.39144782738E+03  0.39340129361E+03  0.00000000000E+00 0. -1.
         22    1    3    3    0    0  0.19377261332E+02  0.96344380900E+02  0.20357006773E+03  0.22604975219E+03  0.00000000000E+00 0. -1.
         22    1    3    3    0    0 -0.48517708875E+02 -0.16370380386E+02  0.73004926911E+02  0.89172174930E+02  0.00000000000E+00 0. -1.
</event>
<event>
 7    1  0.6294601E-006  0.4022823E+02  0.7818608E-02  0.1527903E+00
          2   -1    0    0  502    0  0.00000000000E+00  0.00000000000E+00  0.54363628906E+03  0.54363628906E+03  0.00000000000E+00 0. -1.
          1   -1    0    0  501    0 -0.00000000000E+00 -0.00000000000E+00 -0.59592705189E+02  0.59592705189E+02  0.00000000000E+00 0. -1.
         25    2    1    2    0    0 -0.20689336599E+02 -0.70285128797E+02  0.13539559101E+03  0.19830439679E+03  0.12499847896E+03 0.  0.
          2    1    1    2  501    0  0.47511794859E+01  0.34528747393E+02 -0.15879524475E+02  0.38301010439E+02  0.00000000000E+00 0. -1.
          1    1    1    2  502    0  0.15938157113E+02  0.35756381404E+02  0.36452751733E+03  0.36662358701E+03  0.00000000000E+00 0. -1.
         22    1    3    3    0    0  0.40467434641E+02 -0.91527131940E+00  0.82179060141E+02  0.91607035284E+02  0.00000000000E+00 0. -1.
         22    1    3    3    0    0 -0.61156771240E+02 -0.69369857478E+02  0.53216530872E+02  0.10669736151E+03  0.00000000000E+00 0. -1.
</event>
<event>
 7    1  0.6294601E-006  0.7242142E+02  0.7818608E-02  0.1412518E+00
          2   -1    0    0  502    0  0.00000000000E+00  0.00000000000E+00  0.26575080853E+03  0.26575080853E+03  0.00000000000E+00 0. -1.
          1   -1    0    0  501    0 -0.00000000000E+00 -0.00000000000E+00 -0.18077504730E+04  0.18077504730E+04  0.00000000000E+00 0. -1.
         25    2    1    2    0    0  0.63852019462E+02 -0.34811780367E+02 -0.52131026171E+03  0.54099652630E+03  0.12499564816E+03 0.  0.
          2    1    1    2  501    0  0.81705381176E+01  0.43530832672E+02 -0.12710618301E+04  0.12718332702E+04  0.00000000000E+00 0. -1.
          1    1    1    2  502    0 -0.72022557579E+02 -0.87190523055E+01  0.25037242744E+03  0.26067148501E+03  0.00000000000E+00 0. -1.
         22    1    3    3    0    0  0.67293458109E+02 -0.49416015345E+02 -0.51917033095E+03  0.52584045547E+03  0.00000000000E+00 0. -1.
         22    1    3    3    0    0 -0.34414386475E+01  0.14604234978E+02 -0.21399307678E+01  0.15156070828E+02  0.00000000000E+00 0. -1.
</event>
<event>
 7    1  0.6294601E-006  0.1144921E+03  0.7818608E-02  0.1281520E+00
          2   -1    0    0  502    0  0.00000000000E+00  0.00000000000E+00  0.38406435551E+04  0.38406435551E+04  0.00000000000E+00 0. -1.
          1   -1    0    0  501    0 -0.00000000000E+00 -0.00000000000E+00 -0.17421736502E+03  0.17421736502E+03  0.00000000000E+00 0. -1.
         25    2    1    2    0    0  0.92148206520E+02 -0.15409978443E+03  0.34794464006E+03  0.41100923234E+03  0.12500032400E+03 0.  0.
          2    1    1    2  501    0 -0.88372258484E+02  0.67850394104E+02 -0.12031088132E+03  0.16397573057E+03  0.00000000000E+00 0. -1.
          1    1    1    2  502    0 -0.37759480358E+01  0.86249390324E+02  0.34387924314E+04  0.34398759572E+04  0.00000000000E+00 0. -1.
         22    1    3    3    0    0 -0.16035460449E+01 -0.69657144649E+02  0.45275302398E+02  0.83093574769E+02  0.00000000000E+00 0. -1.
         22    1    3    3    0    0  0.93751752565E+02 -0.84442639778E+02  0.30266933766E+03  0.32791565757E+03  0.00000000000E+00 0. -1.
</event>
<event>
 7    1  0.6294601E-006  0.7899927E+02  0.7818608E-02  0.1454919E+00
          2   -1    0    0  502    0  0.00000000000E+00  0.00000000000E+00  0.18939799763E+04  0.18939799763E+04  0.00000000000E+00 0. -1.
          1   -1    0    0  501    0 -0.00000000000E+00 -0.00000000000E+00 -0.24272125492E+03  0.24272125492E+03  0.00000000000E+00 0. -1.
         25    2    1    2    0    0  0.53577617113E+02 -0.40037644979E+02  0.10784561775E+03  0.17812749054E+03  0.12500060618E+03 0.  0.
          2    1    1    2  501    0 -0.76819879583E+02  0.21886109296E+02 -0.19976685284E+03  0.21514434962E+03  0.00000000000E+00 0. -1.
          1    1    1    2  502    0  0.23242262469E+02  0.18151535683E+02  0.17431799565E+04  0.17434293911E+04  0.00000000000E+00 0. -1.
         22    1    3    3    0    0 -0.84792611538E+00  0.42713972509E+02  0.32965463163E+02  0.53962247801E+02  0.00000000000E+00 0. -1.
         22    1    3    3    0    0  0.54425543229E+02 -0.82751617488E+02  0.74880154584E+02  0.12416524273E+03  0.00000000000E+00 0. -1.
</event>
<event>
 7    1  0.6294601E-006  0.1316703E+03  0.7818608E-02  0.1319240E+00
          2   -1    0    0  502    0  0.00000000000E+00  0.00000000000E+00  0.28668972414E+04  0.28668972414E+04  0.00000000000E+00 0. -1.
          1   -1    0    0  501    0 -0.00000000000E+00 -0.00000000000E+00 -0.18973723407E+03  0.18973723407E+03  0.00000000000E+00 0. -1.
         25    2    1    2    0    0  0.90672944194E+02 -0.92172121540E+02  0.23702243346E+03  0.29752550177E+03  0.12499802977E+03 0.  0.
          2    1    1    2  501    0 -0.12307177593E+03  0.50190989142E+02 -0.13147298552E+03  0.18695171393E+03  0.00000000000E+00 0. -1.
          1    1    1    2  502    0  0.32398831733E+02  0.41981132399E+02  0.25716105594E+04  0.25721572598E+04  0.00000000000E+00 0. -1.
         22    1    3    3    0    0 -0.92406654342E+01 -0.17261976541E+02  0.13460434710E+03  0.13602093953E+03  0.00000000000E+00 0. -1.
         22    1    3    3    0    0  0.99913609628E+02 -0.74910145000E+02  0.10241808635E+03  0.16150456224E+03  0.00000000000E+00 0. -1.
</event>
<event>
 7    1  0.6294601E-006  0.1687968E+03  0.7818608E-02  0.1254311E+00
          2   -1    0    0  502    0  0.00000000000E+00  0.00000000000E+00  0.49466926861E+03  0.49466926861E+03  0.00000000000E+00 0. -1.
          1   -1    0    0  501    0 -0.00000000000E+00 -0.00000000000E+00 -0.21909306910E+04  0.21909306910E+04  0.00000000000E+00 0. -1.
         25    2    1    2    0    0 -0.10052636866E+03 -0.74016905811E+02 -0.50808667174E+03  0.53792304813E+03  0.12500034630E+03 0.  0.
          2    1    1    2  501    0  0.10981058462E+03  0.14970036646E+03 -0.16596871097E+04  0.16700388817E+04  0.00000000000E+00 0. -1.
          1    1    1    2  502    0 -0.92842159644E+01 -0.75683460648E+02  0.47151235899E+03  0.47763802986E+03  0.00000000000E+00 0. -1.
         22    1    3    3    0    0  0.17329653484E+02 -0.19761544383E+02 -0.20396728898E+02  0.33269536757E+02  0.00000000000E+00 0. -1.
         22    1    3    3    0    0 -0.11785602214E+03 -0.54255361428E+02 -0.48768994284E+03  0.50465351138E+03  0.00000000000E+00 0. -1.
</event>
<event>
 7    1  0.6294601E-006  0.6444474E+02  0.7818608E-02  0.1405620E+00
          2   -1    0    0  502    0  0.00000000000E+00  0.00000000000E+00  0.89457042674E+03  0.89457042674E+03  0.00000000000E+00 0. -1.
          1   -1    0    0  501    0 -0.00000000000E+00 -0.00000000000E+00 -0.34500616471E+03  0.34500616471E+03  0.00000000000E+00 0. -1.
         25    2    1    2    0    0  0.19304628313E+02 -0.70130349738E+02  0.20378247074E+03  0.24988971156E+03  0.12500655158E+03 0.  0.
          2    1    1    2  501    0  0.31417081544E+02  0.56469342170E+02 -0.31766133457E+03  0.32416746151E+03  0.00000000000E+00 0. -1.
          1    1    1    2  502    0 -0.50721709856E+02  0.13661007569E+02  0.66344312587E+03  0.66551941838E+03  0.00000000000E+00 0. -1.
         22    1    3    3    0    0 -0.13010558677E+02  0.11503364289E+02  0.14072971250E+03  0.14179722849E+03  0.00000000000E+00 0. -1.
         22    1    3    3    0    0  0.32315186990E+02 -0.81633714028E+02  0.63052758240E+02  0.10809248308E+03  0.00000000000E+00 0. -1.
</event>
<event>
 7    1  0.6294601E-006  0.7052036E+02  0.7818608E-02  0.1402377E+00
          2   -1    0    0  502    0  0.00000000000E+00  0.00000000000E+00  0.11142993184E+04  0.11142993184E+04  0.00000000000E+00 0. -1.
          1   -1    0    0  501    0 -0.00000000000E+00 -0.00000000000E+00 -0.83931225080E+03  0.83931225080E+03  0.00000000000E+00 0. -1.
         25    2    1    2    0    0 -0.89650761720E+02 -0.73628907900E+02  0.12023179470E+03  0.20866104332E+03  0.12500108556E+03 0.  0.
          2    1    1    2  501    0  0.44359203584E+02  0.54296964171E+02 -0.79291138131E+03  0.79600524990E+03  0.00000000000E+00 0. -1.
          1    1    1    2  502    0  0.45291558136E+02  0.19331943729E+02  0.94766665422E+03  0.94894527598E+03  0.00000000000E+00 0. -1.
         22    1    3    3    0    0 -0.82359172960E+02 -0.22375158917E+02  0.88079938266E+01  0.85797796373E+02  0.00000000000E+00 0. -1.
         22    1    3    3    0    0 -0.72915887601E+01 -0.51253748983E+02  0.11142380087E+03  0.12286324695E+03  0.00000000000E+00 0. -1.
</event>
<event>
 7    1  0.6294601E-006  0.5416783E+02  0.7818608E-02  0.1484217E+00
          2   -1    0    0  502    0  0.00000000000E+00  0.00000000000E+00  0.92305272246E+02  0.92305272246E+02  0.00000000000E+00 0. -1.
          1   -1    0    0  501    0 -0.00000000000E+00 -0.00000000000E+00 -0.10230843406E+04  0.10230843406E+04  0.00000000000E+00 0. -1.
         25    2    1    2    0    0 -0.35741372559E+02  0.13107082562E+02 -0.79507907870E+02  0.15295620600E+03  0.12499940886E+03 0.  0.
          2    1    1    2  501    0  0.27900397870E+02 -0.47076428701E+02 -0.90047193592E+03  0.90213321063E+03  0.00000000000E+00 0. -1.
          1    1    1    2  502    0  0.78409746888E+01  0.33969346139E+02  0.49200775430E+02  0.60300196219E+02  0.00000000000E+00 0. -1.
         22    1    3    3    0    0 -0.54332206835E+02  0.44680373517E+02 -0.90573519882E+02  0.11468167674E+03  0.00000000000E+00 0. -1.
         22    1    3    3    0    0  0.18590834276E+02 -0.31573290954E+02  0.11065612012E+02  0.38274529258E+02  0.00000000000E+00 0. -1.
</event>
<event>
 7    1  0.6294601E-006  0.6298535E+02  0.7818608E-02  0.1433633E+00
          2   -1    0    0  502    0  0.00000000000E+00  0.00000000000E+00  0.12677299210E+04  0.12677299210E+04  0.00000000000E+00 0. -1.
          1   -1    0    0  501    0 -0.00000000000E+00 -0.00000000000E+00 -0.82885888458E+02  0.82885888458E+02  0.00000000000E+00 0. -1.
         25    2    1    2    0    0  0.48268283316E+02 -0.91493943286E+02  0.19969041018E+03  0.25729753645E+03  0.12499917407E+03 0.  0.
          2    1    1    2  501    0 -0.11829733215E+02  0.41677611474E+02 -0.44330786527E+02  0.61985357305E+02  0.00000000000E+00 0. -1.
          1    1    1    2  502    0 -0.36438550101E+02  0.49816331812E+02  0.10294844089E+04  0.10313329157E+04  0.00000000000E+00 0. -1.
         22    1    3    3    0    0  0.36015149301E+02 -0.11931735114E+03  0.12436949347E+03  0.17607240604E+03  0.00000000000E+00 0.  1.
         22    1    3    3    0    0  0.12253134015E+02  0.27823407853E+02  0.75320916707E+02  0.81225130417E+02  0.00000000000E+00 0.  1.
</event>
<event>
 7    1  0.6294601E-006  0.7501725E+02  0.7818608E-02  0.1352784E+00
          2   -1    0    0  502    0  0.00000000000E+00  0.00000000000E+00  0.27463977000E+04  0.27463977000E+04  0.00000000000E+00 0. -1.
          1   -1    0    0  501    0 -0.00000000000E+00 -0.00000000000E+00 -0.12014458416E+03  0.12014458416E+03  0.00000000000E+00 0. -1.
         25    2    1    2    0    0  0.41171117319E+01  0.66714075241E+02  0.34176257840E+03  0.36999057826E+03  0.12499459814E+03 0.  0.
          2    1    1    2  501    0  0.62919019007E+02 -0.29471245414E+02 -0.93963885582E+02  0.11686132402E+03  0.00000000000E+00 0. -1.
          1    1    1    2  502    0 -0.67036130739E+02 -0.37242829827E+02  0.23784544231E+04  0.23796903819E+04  0.00000000000E+00 0. -1.
         22    1    3    3    0    0  0.48357683947E+02 -0.17642035237E+01  0.62335023435E+02  0.78912819982E+02  0.00000000000E+00 0.  1.
         22    1    3    3    0    0 -0.44240572215E+02  0.68478278765E+02  0.27942755496E+03  0.29107775828E+03  0.00000000000E+00 0.  1.
</event>
<event>
 7    1  0.6294601E-006  0.1276217E+03  0.7818608E-02  0.1382842E+00
          2   -1    0    0  502    0  0.00000000000E+00  0.00000000000E+00  0.43005838899E+03  0.43005838899E+03  0.00000000000E+00 0. -1.
          1   -1    0    0  501    0 -0.00000000000E+00 -0.00000000000E+00 -0.69301364580E+03  0.69301364580E+03  0.00000000000E+00 0. -1.
         25    2    1    2    0    0 -0.91824625380E+02 -0.83798686530E+02 -0.71867677322E+02  0.19038031736E+03  0.12500288199E+03 0.  0.
          2    1    1    2  501    0  0.70484469357E+02  0.10739812609E+03 -0.55384182637E+03  0.56854479731E+03  0.00000000000E+00 0. -1.
          1    1    1    2  502    0  0.21340156024E+02 -0.23599439555E+02  0.36275424688E+03  0.36414692013E+03  0.00000000000E+00 0. -1.
         22    1    3    3    0    0 -0.27695934022E+02 -0.98484286526E+02 -0.14957398291E+02  0.10339218161E+03  0.00000000000E+00 0. -1.
         22    1    3    3    0    0 -0.64128691358E+02  0.14685599996E+02 -0.56910279032E+02  0.86988135754E+02  0.00000000000E+00 0. -1.
</event>
<event>
 7    1  0.6294601E-006  0.3987928E+02  0.7818608E-02  0.1547125E+00
          2   -1    0    0  502    0  0.00000000000E+00  0.00000000000E+00  0.22099613390E+04  0.22099613390E+04  0.00000000000E+00 0. -1.
          1   -1    0    0  501    0 -0.00000000000E+00 -0.00000000000E+00 -0.56761090898E+02  0.56761090898E+02  0.00000000000E+00 0. -1.
         25    2    1    2    0    0 -0.17649730944E+02  0.16179005353E+02  0.10962690780E+03  0.16796804255E+03  0.12498772414E+03 0.  0.
          2    1    1    2  501    0  0.19877535869E+02  0.23802694560E+02 -0.18620420696E+02  0.36171878130E+02  0.00000000000E+00 0. -1.
          1    1    1    2  502    0 -0.22278049253E+01 -0.39981699913E+02  0.20621937610E+04  0.20625825092E+04  0.00000000000E+00 0. -1.
         22    1    3    3    0    0 -0.27113933470E+02  0.51514271009E+02  0.11697185016E+03  0.13065718211E+03  0.00000000000E+00 0.  1.
         22    1    3    3    0    0  0.94642025261E+01 -0.35335265656E+02 -0.73449423629E+01  0.37310860440E+02  0.00000000000E+00 0.  1.
</event>
<event>
 7    1  0.6294601E-006  0.2202723E+03  0.7818608E-02  0.1293817E+00
          2   -1    0    0  502    0  0.00000000000E+00  0.00000000000E+00  0.60147411392E+03  0.60147411392E+03  0.00000000000E+00 0. -1.
          1   -1    0    0  501    0 -0.00000000000E+00 -0.00000000000E+00 -0.90300613592E+03  0.90300613592E+03  0.00000000000E+00 0. -1.
         25    2    1    2    0    0  0.22445774951E+03 -0.12884518129E+03 -0.53887722134E+03  0.61073441651E+03  0.12500202307E+03 0.  0.
          2    1    1    2  501    0 -0.35161136717E+02  0.19018162610E+02 -0.30567798167E+03  0.30828075600E+03  0.00000000000E+00 0. -1.
          1    1    1    2  502    0 -0.18929661279E+03  0.10982701868E+03  0.54302318101E+03  0.58546507732E+03  0.00000000000E+00 0. -1.
         22    1    3    3    0    0  0.49706898433E+02  0.38547387172E+01 -0.34311511705E+02  0.60522017464E+02  0.00000000000E+00 0.  1.
         22    1    3    3    0    0  0.17475085108E+03 -0.13269992000E+03 -0.50456570964E+03  0.55021239905E+03  0.00000000000E+00 0.  1.
</event>
<event>
 7    1  0.6375970E-006  0.1008020E+03  0.7818608E-02  0.1381288E+00
          2   -1    0    0  502    0  0.00000000000E+00  0.00000000000E+00  0.16014657283E+04  0.16014657283E+04  0.00000000000E+00 0. -1.
          1   -1    0    0  501    0 -0.00000000000E+00 -0.00000000000E+00 -0.98137601061E+03  0.98137601061E+03  0.00000000000E+00 0. -1.
         25    2    1    2    0    0  0.34698541839E+02 -0.52429939317E+02 -0.47983418942E+02  0.14790594944E+03  0.12498349509E+03 0.  0.
          2    1    1    2  501    0  0.34502804684E+02 -0.21766405241E+02 -0.88130028191E+03  0.88224396106E+03  0.00000000000E+00 0. -1.
          1    1    1    2  502    0 -0.69201346524E+02  0.74196344559E+02  0.15493734186E+04  0.15526918284E+04  0.00000000000E+00 0. -1.
         22    1    3    3    0    0  0.17908691129E+02 -0.40092399673E+02  0.38836601986E+02  0.58620844273E+02  0.00000000000E+00 0. -1.
         22    1    3    3    0    0  0.16789850710E+02 -0.12337539645E+02 -0.86820020927E+02  0.89285105170E+02  0.00000000000E+00 0. -1.
</event>
<event>
 7    1  0.6294601E-006  0.1499060E+03  0.7818608E-02  0.1252239E+00
          2   -1    0    0  502    0  0.00000000000E+00  0.00000000000E+00  0.23230732046E+03  0.23230732046E+03  0.00000000000E+00 0. -1.
          1   -1    0    0  501    0 -0.00000000000E+00 -0.00000000000E+00 -0.20922978590E+04  0.20922978590E+04  0.00000000000E+00 0. -1.
         25    2    1    2    0    0  0.11890279699E+03 -0.55246486521E+02 -0.48525641064E+03  0.51796765354E+03  0.12500662636E+03 0.  0.
          2    1    1    2  501    0 -0.15720384515E+03 -0.23587325157E+02 -0.15776311383E+04  0.15856195696E+04  0.00000000000E+00 0. -1.
          1    1    1    2  502    0  0.38301048159E+02  0.78833811678E+02  0.20289701047E+03  0.22101795631E+03  0.00000000000E+00 0. -1.
         22    1    3    3    0    0 -0.16233016671E+02 -0.37341050502E+02 -0.16414842200E+03  0.16912294146E+03  0.00000000000E+00 0. -1.
         22    1    3    3    0    0  0.13513581366E+03 -0.17905436019E+02 -0.32110798864E+03  0.34884471208E+03  0.00000000000E+00 0. -1.
</event>
<event>
 7    1  0.6294601E-006  0.1003295E+03  0.7818608E-02  0.1376297E+00
          2   -1    0    0  502    0  0.00000000000E+00  0.00000000000E+00  0.16445326303E+04  0.16445326303E+04  0.00000000000E+00 0. -1.
          1   -1    0    0  501    0 -0.00000000000E+00 -0.00000000000E+00 -0.12444806139E+04  0.12444806139E+04  0.00000000000E+00 0. -1.
         25    2    1    2    0    0  0.50979456998E+02  0.36812890540E+02 -0.10967224206E+03  0.17778263126E+03  0.12499827740E+03 0.  0.
          2    1    1    2  501    0 -0.71405861860E+02 -0.74301882099E+02 -0.10980573070E+04  0.11028823221E+04  0.00000000000E+00 0. -1.
          1    1    1    2  502    0  0.20426404863E+02  0.37488991559E+02  0.16077815655E+04  0.16083482909E+04  0.00000000000E+00 0. -1.
         22    1    3    3    0    0 -0.70937262759E+01 -0.39713114556E+02 -0.15382970834E+02  0.43175087862E+02  0.00000000000E+00 0.  1.
         22    1    3    3    0    0  0.58073183274E+02  0.76526005096E+02 -0.94289271221E+02  0.13460754339E+03  0.00000000000E+00 0.  1.
</event>
<event>
 7    1  0.6294601E-006  0.6161732E+02  0.7818608E-02  0.1406189E+00
          2   -1    0    0  502    0  0.00000000000E+00  0.00000000000E+00  0.42071865609E+03  0.42071865609E+03  0.00000000000E+00 0. -1.
          1   -1    0    0  501    0 -0.00000000000E+00 -0.00000000000E+00 -0.91642903239E+02  0.91642903239E+02  0.00000000000E+00 0. -1.
         25    2    1    2    0    0 -0.17028860171E+02  0.25834649516E+02  0.10900033343E+03  0.16871490556E+03  0.12500494180E+03 0.  0.
          2    1    1    2  501    0 -0.22480767137E+02 -0.63656952148E+02 -0.39604316612E+02  0.78269370396E+02  0.00000000000E+00 0. -1.
          1    1    1    2  502    0  0.39509627309E+02  0.37822302631E+02  0.25967973603E+03  0.26537728337E+03  0.00000000000E+00 0. -1.
         22    1    3    3    0    0 -0.10057406692E+02 -0.45355657357E+02  0.11624244460E+02  0.47889561941E+02  0.00000000000E+00 0.  1.
         22    1    3    3    0    0 -0.69714534791E+01  0.71190306873E+02  0.97376088971E+02  0.12082534361E+03  0.00000000000E+00 0.  1.
</event>
<event>
 7    1  0.6294601E-006  0.1567561E+03  0.7818608E-02  0.1300016E+00
          2   -1    0    0  502    0  0.00000000000E+00  0.00000000000E+00  0.53164686236E+03  0.53164686236E+03  0.00000000000E+00 0. -1.
          1   -1    0    0  501    0 -0.00000000000E+00 -0.00000000000E+00 -0.40496486868E+03  0.40496486868E+03  0.00000000000E+00 0. -1.
         25    2    1    2    0    0  0.12981041140E+03 -0.77344268338E+02 -0.11986479301E+03  0.22983667579E+03  0.12499780072E+03 0.  0.
          2    1    1    2  501    0 -0.10500635608E+03  0.12422488551E+03 -0.19960121368E+03  0.25748553649E+03  0.00000000000E+00 0. -1.
          1    1    1    2  502    0 -0.24804055311E+02 -0.46880617169E+02  0.44614800037E+03  0.44928951875E+03  0.00000000000E+00 0. -1.
         22    1    3    3    0    0  0.11878970359E+03 -0.59925255871E+02 -0.14535604637E+03  0.19705433308E+03  0.00000000000E+00 0. -1.
         22    1    3    3    0    0  0.11020707804E+02 -0.17419012467E+02  0.25491253358E+02  0.32782342711E+02  0.00000000000E+00 0. -1.
</event>
<event>
 7    1  0.6294601E-006  0.8803896E+02  0.7818608E-02  0.1364957E+00
          2   -1    0    0  502    0  0.00000000000E+00  0.00000000000E+00  0.78564235639E+03  0.78564235639E+03  0.00000000000E+00 0. -1.
          1   -1    0    0  501    0 -0.00000000000E+00 -0.00000000000E+00 -0.31968613529E+03  0.31968613529E+03  0.00000000000E+00 0. -1.
         25    2    1    2    0    0  0.13937400272E+03 -0.78151748871E+01 -0.49294982135E+01  0.18747082807E+03  0.12503928116E+03 0.  0.
          2    1    1    2  501    0 -0.52782881230E+02  0.83324508045E+01 -0.21754020229E+03  0.22400714698E+03  0.00000000000E+00 0. -1.
          1    1    1    2  502    0 -0.86591121487E+02 -0.51727591743E+00  0.68842592160E+03  0.69385051663E+03  0.00000000000E+00 0. -1.
         22    1    3    3    0    0  0.12977600302E+02 -0.72020750201E+01 -0.50863918513E+02  0.52985150757E+02  0.00000000000E+00 0.  1.
         22    1    3    3    0    0  0.12639640241E+03 -0.61309986702E+00  0.45934420300E+02  0.13448567732E+03  0.00000000000E+00 0.  1.
</event>
<event>
 7    1  0.6294601E-006  0.8363980E+02  0.7818608E-02  0.1499364E+00
          2   -1    0    0  502    0  0.00000000000E+00  0.00000000000E+00  0.22355264119E+04  0.22355264119E+04  0.00000000000E+00 0. -1.
          1   -1    0    0  501    0 -0.00000000000E+00 -0.00000000000E+00 -0.60114367425E+02  0.60114367425E+02  0.00000000000E+00 0. -1.
         25    2    1    2    0    0 -0.66371093157E+02 -0.62039903271E+02  0.20369647185E+03  0.25567995604E+03  0.12500366262E+03 0.  0.
          2    1    1    2  501    0 -0.54833371848E+01  0.19568501265E+02 -0.30148017560E+02  0.36357890357E+02  0.00000000000E+00 0. -1.
          1    1    1    2  502    0  0.71854430342E+02  0.42471402006E+02  0.20018635902E+04  0.20036029330E+04  0.00000000000E+00 0. -1.
         22    1    3    3    0    0 -0.92421510637E+02 -0.65400525066E+02  0.10809534982E+03  0.15653615863E+03  0.00000000000E+00 0. -1.
         22    1    3    3    0    0  0.26050417480E+02  0.33606217948E+01  0.95601122031E+02  0.99143797402E+02  0.00000000000E+00 0. -1.
</event>
<event>
 7    1  0.6294601E-006  0.2144345E+03  0.7818608E-02  0.1217542E+00
          2   -1    0    0  502    0  0.00000000000E+00  0.00000000000E+00  0.99841382151E+03  0.99841382151E+03  0.00000000000E+00 0. -1.
          1   -1    0    0  501    0 -0.00000000000E+00 -0.00000000000E+00 -0.12735155698E+04  0.12735155698E+04  0.00000000000E+00 0. -1.
         25    2    1    2    0    0  0.15270372618E+02 -0.14181342897E+03  0.31973124527E+02  0.19232902556E+03  0.12499576179E+03 0.  0.
          2    1    1    2  501    0 -0.16296156680E+02 -0.85886275026E+02 -0.11770644264E+04  0.11803061810E+04  0.00000000000E+00 0. -1.
          1    1    1    2  502    0  0.10257840625E+01  0.22769970399E+03  0.86998955358E+03  0.89929418478E+03  0.00000000000E+00 0. -1.
         22    1    3    3    0    0  0.88232274665E+01 -0.24766587401E+02  0.65354378347E+02  0.70444502721E+02  0.00000000000E+00 0. -1.
         22    1    3    3    0    0  0.64471451511E+01 -0.11704684157E+03 -0.33381253821E+02  0.12188452284E+03  0.00000000000E+00 0. -1.
</event>
<event>
 7    1  0.6294601E-006  0.2235940E+03  0.7818608E-02  0.1250092E+00
          2   -1    0    0  502    0  0.00000000000E+00  0.00000000000E+00  0.22848086992E+03  0.22848086992E+03  0.00000000000E+00 0. -1.
          1   -1    0    0  501    0 -0.00000000000E+00 -0.00000000000E+00 -0.56216458107E+03  0.56216458107E+03  0.00000000000E+00 0. -1.
         25    2    1    2    0    0  0.16525657833E+03  0.94460044576E+02 -0.53573810003E+02  0.23394136666E+03  0.12500389278E+03 0.  0.
          2    1    1    2  501    0  0.52393130881E+02  0.29305830549E+02 -0.29961216950E+03  0.30556721679E+03  0.00000000000E+00 0. -1.
          1    1    1    2  502    0 -0.21764970921E+03 -0.12376587513E+03  0.19502268351E+02  0.25113686754E+03  0.00000000000E+00 0. -1.
         22    1    3    3    0    0  0.16855252533E+02  0.20362635322E+02 -0.62468949897E+02  0.67831454035E+02  0.00000000000E+00 0.  1.
         22    1    3    3    0    0  0.14840132580E+03  0.74097409254E+02  0.88951398940E+01  0.16610991262E+03  0.00000000000E+00 0.  1.
</event>
<event>
 7    1  0.6294601E-006  0.6653503E+02  0.7818608E-02  0.1461706E+00
          2   -1    0    0  502    0  0.00000000000E+00  0.00000000000E+00  0.10238338724E+04  0.10238338724E+04  0.00000000000E+00 0. -1.
          1   -1    0    0  501    0 -0.00000000000E+00 -0.00000000000E+00 -0.33924640262E+02  0.33924640262E+02  0.00000000000E+00 0. -1.
         25    2    1    2    0    0  0.52635121234E+02  0.19276885596E+02  0.86527241903E+03  0.87605479334E+03  0.12503434523E+03 0.  0.
          2    1    1    2  501    0 -0.43653161664E+02 -0.51370105760E+02  0.17705065245E+02  0.69699036036E+02  0.00000000000E+00 0. -1.
          1    1    1    2  502    0 -0.89819595698E+01  0.32093220163E+02  0.10693174790E+03  0.11200468333E+03  0.00000000000E+00 0. -1.
         22    1    3    3    0    0 -0.20517732903E+02 -0.17531024228E+02  0.53855508749E+03  0.53923083780E+03  0.00000000000E+00 0. -1.
         22    1    3    3    0    0  0.73152854137E+02  0.36807909824E+02  0.32671733154E+03  0.33682395554E+03  0.00000000000E+00 0. -1.
</event>
<event>
 7    1  0.6294601E-006  0.1157199E+03  0.7818608E-02  0.1377265E+00
          2   -1    0    0  502    0  0.00000000000E+00  0.00000000000E+00  0.19595900281E+04  0.19595900281E+04  0.00000000000E+00 0. -1.
          1   -1    0    0  501    0 -0.00000000000E+00 -0.00000000000E+00 -0.51593765126E+02  0.51593765126E+02  0.00000000000E+00 0. -1.
         25    2    1    2    0    0 -0.10421586471E+03 -0.99689538339E+02  0.35459683096E+03  0.40269450335E+03  0.12499999993E+03 0.  0.
          2    1    1    2  501    0  0.75282360991E+02  0.77075819755E+02  0.78921601104E+02  0.13355423987E+03  0.00000000000E+00 0. -1.
          1    1    1    2  502    0  0.28933503724E+02  0.22613718584E+02  0.14744778309E+04  0.14749350500E+04  0.00000000000E+00 0. -1.
         22    1    3    3    0    0 -0.11765674517E+03 -0.11212541251E+03  0.34639794208E+03  0.38263135273E+03  0.00000000000E+00 0.  1.
         22    1    3    3    0    0  0.13440880451E+02  0.12435874171E+02  0.81988888810E+01  0.20063150614E+02  0.00000000000E+00 0.  1.
</event>
<event>
 7    1  0.6294601E-006  0.1071065E+03  0.7818608E-02  0.1338948E+00
          2   -1    0    0  502    0  0.00000000000E+00  0.00000000000E+00  0.36120807851E+03  0.36120807851E+03  0.00000000000E+00 0. -1.
          1   -1    0    0  501    0 -0.00000000000E+00 -0.00000000000E+00 -0.60492913499E+03  0.60492913499E+03  0.00000000000E+00 0. -1.
         25    2    1    2    0    0  0.11839590638E+03 -0.57508187144E+00  0.74780357305E+02  0.18770651191E+03  0.12499484552E+03 0.  0.
          2    1    1    2  501    0 -0.23276926280E+02  0.49611939645E+02 -0.53453887166E+03  0.53734064165E+03  0.00000000000E+00 0. -1.
          1    1    1    2  502    0 -0.95118980102E+02 -0.49036857774E+02  0.21603745788E+03  0.24109005994E+03  0.00000000000E+00 0. -1.
         22    1    3    3    0    0  0.31885201824E+02  0.47981405389E+02  0.66754733618E+02  0.88176390371E+02  0.00000000000E+00 0.  1.
         22    1    3    3    0    0  0.86510704558E+02 -0.48556487260E+02  0.80256236872E+01  0.99530121540E+02  0.00000000000E+00 0.  1.
</event>
<event>
 7    1  0.6294601E-006  0.2004522E+03  0.7818608E-02  0.1347177E+00
          2   -1    0    0  502    0  0.00000000000E+00  0.00000000000E+00  0.50330019232E+03  0.50330019232E+03  0.00000000000E+00 0. -1.
          1   -1    0    0  501    0 -0.00000000000E+00 -0.00000000000E+00 -0.67552858227E+03  0.67552858227E+03  0.00000000000E+00 0. -1.
         25    2    1    2    0    0 -0.14955339961E+03  0.11022806360E+03  0.81659690286E+02  0.23834631292E+03  0.12499685805E+03 0.  0.
          2    1    1    2  501    0  0.17517209011E+03 -0.10086567915E+03 -0.57949381315E+03  0.61373628365E+03  0.00000000000E+00 0. -1.
          1    1    1    2  502    0 -0.25618690496E+02 -0.93623844529E+01  0.32560573292E+03  0.32674617803E+03  0.00000000000E+00 0. -1.
         22    1    3    3    0    0 -0.61686423911E+02  0.11785447480E+03  0.66987345711E+02  0.14893688801E+03  0.00000000000E+00 0.  1.
         22    1    3    3    0    0 -0.87866975700E+02 -0.76264112012E+01  0.14672344574E+02  0.89409424904E+02  0.00000000000E+00 0.  1.
</event>
<event>
 7    1  0.6294601E-006  0.1203564E+03  0.7818608E-02  0.1273337E+00
          2   -1    0    0  502    0  0.00000000000E+00  0.00000000000E+00  0.12638811177E+04  0.12638811177E+04  0.00000000000E+00 0. -1.
          1   -1    0    0  501    0 -0.00000000000E+00 -0.00000000000E+00 -0.67512829221E+02  0.67512829221E+02  0.00000000000E+00 0. -1.
         25    2    1    2    0    0 -0.36572477924E+02 -0.10759740165E+03  0.66546536712E+03  0.68657561396E+03  0.12500868714E+03 0.  0.
          2    1    1    2  501    0  0.10998686484E+03  0.57631889730E+02  0.19416869636E+02  0.12568038820E+03  0.00000000000E+00 0. -1.
          1    1    1    2  502    0 -0.73414386917E+02  0.49965511920E+02  0.51148605171E+03  0.51913794475E+03  0.00000000000E+00 0. -1.
         22    1    3    3    0    0 -0.65996669585E+02 -0.30152514871E+02  0.44849713326E+03  0.45432852991E+03  0.00000000000E+00 0.  1.
         22    1    3    3    0    0  0.29424191661E+02 -0.77444886778E+02  0.21696823386E+03  0.23224708405E+03  0.00000000000E+00 0.  1.
</event>
<event>
 7    1  0.6294601E-006  0.7301521E+02  0.7818608E-02  0.1439288E+00
          2   -1    0    0  502    0  0.00000000000E+00  0.00000000000E+00  0.13099163097E+04  0.13099163097E+04  0.00000000000E+00 0. -1.
          1   -1    0    0  501    0 -0.00000000000E+00 -0.00000000000E+00 -0.52433134967E+03  0.52433134967E+03  0.00000000000E+00 0. -1.
         25    2    1    2    0    0 -0.34611662692E+02 -0.40638378701E+02  0.13005131242E+03  0.18811271833E+03  0.12499442354E+03 0.  0.
          2    1    1    2  501    0  0.16543203119E+02  0.71565751781E+02 -0.49229648136E+03  0.49774607980E+03  0.00000000000E+00 0. -1.
          1    1    1    2  502    0  0.18068459573E+02 -0.30927373080E+02  0.11478301290E+04  0.11483888613E+04  0.00000000000E+00 0. -1.
         22    1    3    3    0    0  0.46469210577E+02 -0.19697613920E+02  0.34918546036E+02  0.61373352385E+02  0.00000000000E+00 0.  1.
         22    1    3    3    0    0 -0.81080873268E+02 -0.20940764782E+02  0.95132766384E+02  0.12673936594E+03  0.00000000000E+00 0.  1.
</event>
<event>
 7    1  0.6294601E-006  0.1870575E+03  0.7818608E-02  0.1235466E+00
          2   -1    0    0  502    0  0.00000000000E+00  0.00000000000E+00  0.12112946025E+04  0.12112946025E+04  0.00000000000E+00 0. -1.
          1   -1    0    0  501    0 -0.00000000000E+00 -0.00000000000E+00 -0.28816189635E+04  0.28816189635E+04  0.00000000000E+00 0. -1.
         25    2    1    2    0    0 -0.22687847642E+03  0.13057817097E+03 -0.70221762589E+02  0.29846289632E+03  0.12499801095E+03 0.  0.
          2    1    1    2  501    0  0.17213042099E+03 -0.67939659517E+02 -0.26925191981E+04  0.26988709327E+04  0.00000000000E+00 0. -1.
          1    1    1    2  502    0  0.54748055430E+02 -0.62638511448E+02  0.10924165997E+04  0.10955797370E+04  0.00000000000E+00 0. -1.
         22    1    3    3    0    0 -0.87918350245E+02  0.49866162591E+02 -0.91526189872E+02  0.13635730239E+03  0.00000000000E+00 0.  1.
         22    1    3    3    0    0 -0.13896012618E+03  0.80712008375E+02  0.21304427284E+02  0.16210559394E+03  0.00000000000E+00 0.  1.
</event>
<event>
 7    1  0.6294601E-006  0.4729072E+02  0.7818608E-02  0.1570365E+00
          2   -1    0    0  502    0  0.00000000000E+00  0.00000000000E+00  0.82791695168E+03  0.82791695168E+03  0.00000000000E+00 0. -1.
          1   -1    0    0  501    0 -0.00000000000E+00 -0.00000000000E+00 -0.12649662266E+04  0.12649662266E+04  0.00000000000E+00 0. -1.
         25    2    1    2    0    0  0.51473724061E+02  0.20041046547E+02  0.70285310868E+03  0.71601575819E+03  0.12499954315E+03 0.  0.
          2    1    1    2  501    0 -0.33369200661E+02 -0.33506973842E+02 -0.12568619906E+04  0.12577512808E+04  0.00000000000E+00 0. -1.
          1    1    1    2  502    0 -0.18104523400E+02  0.13465927295E+02  0.11695960702E+03  0.11911613930E+03  0.00000000000E+00 0. -1.
         22    1    3    3    0    0  0.29646037229E+02 -0.46388999897E+02  0.46043152723E+03  0.46371113648E+03  0.00000000000E+00 0.  1.
         22    1    3    3    0    0  0.21827686832E+02  0.66430046444E+02  0.24242158145E+03  0.25230462171E+03  0.00000000000E+00 0.  1.
</event>
<event>
 7    1  0.6294601E-006  0.7765414E+02  0.7818608E-02  0.1410338E+00
          2   -1    0    0  502    0  0.00000000000E+00  0.00000000000E+00  0.41044363601E+03  0.41044363601E+03  0.00000000000E+00 0. -1.
          1   -1    0    0  501    0 -0.00000000000E+00 -0.00000000000E+00 -0.74358802572E+03  0.74358802572E+03  0.00000000000E+00 0. -1.
         25    2    1    2    0    0  0.54108251660E+02  0.10482144876E+03 -0.20040251383E+03  0.26402121325E+03  0.12502317575E+03 0.  0.
          2    1    1    2  501    0 -0.25603221794E+02 -0.33310811952E+02 -0.50658460165E+03  0.50832380801E+03  0.00000000000E+00 0. -1.
          1    1    1    2  502    0 -0.28505029866E+02 -0.71510636812E+02  0.37384272577E+03  0.38168664047E+03  0.00000000000E+00 0. -1.
         22    1    3    3    0    0 -0.16902086733E+02  0.98800675822E+02 -0.10830794880E+03  0.14757325589E+03  0.00000000000E+00 0. -1.
         22    1    3    3    0    0  0.71010338393E+02  0.60207729416E+01 -0.92094565028E+02  0.11644795736E+03  0.00000000000E+00 0. -1.
</event>
<event>
 7    1  0.1058978E-005  0.1269123E+03  0.7818608E-02  0.1330257E+00
          2   -1    0    0  502    0  0.00000000000E+00  0.00000000000E+00  0.15881273839E+04  0.15881273839E+04  0.00000000000E+00 0. -1.
          1   -1    0    0  501    0 -0.00000000000E+00 -0.00000000000E+00 -0.15431035263E+04  0.15431035263E+04  0.00000000000E+00 0. -1.
         25    2    1    2    0    0 -0.16686263317E+03 -0.21189136117E+02 -0.33882046243E+03  0.39838997108E+03  0.12499258163E+03 0.  0.
          2    1    1    2  501    0  0.12261671434E+03 -0.18747314066E+01 -0.11708959697E+04  0.11773001933E+04  0.00000000000E+00 0. -1.
          1    1    1    2  502    0  0.44245918831E+02  0.23063867523E+02  0.15547402898E+04  0.15555407458E+04  0.00000000000E+00 0. -1.
         22    1    3    3    0    0 -0.44216195207E+01  0.47688232449E+01  0.10456115896E+02  0.12313519154E+02  0.00000000000E+00 0.  1.
         22    1    3    3    0    0 -0.16244101365E+03 -0.25957959361E+02 -0.34927657832E+03  0.38607645193E+03  0.00000000000E+00 0.  1.
</event>
<event>
 7    1  0.6294601E-006  0.1024171E+03  0.7818608E-02  0.1352395E+00
          2   -1    0    0  502    0  0.00000000000E+00  0.00000000000E+00  0.14036381783E+04  0.14036381783E+04  0.00000000000E+00 0. -1.
          1   -1    0    0  501    0 -0.00000000000E+00 -0.00000000000E+00 -0.29814646482E+03  0.29814646482E+03  0.00000000000E+00 0. -1.
         25    2    1    2    0    0  0.32092837285E+02 -0.55863603113E+02  0.38466225036E+02  0.14579660271E+03  0.12500522603E+03 0.  0.
          2    1    1    2  501    0 -0.19026856068E+02 -0.47381986628E+02 -0.23972387000E+03  0.24510121941E+03  0.00000000000E+00 0. -1.
          1    1    1    2  502    0 -0.13065981217E+02  0.10324558974E+03  0.13067493585E+04  0.13108868210E+04  0.00000000000E+00 0. -1.
         22    1    3    3    0    0 -0.39673791696E+02 -0.12097624945E+02 -0.17279713703E+02  0.44932736201E+02  0.00000000000E+00 0. -1.
         22    1    3    3    0    0  0.71766628981E+02 -0.43765978168E+02  0.55745938739E+02  0.10086386650E+03  0.00000000000E+00 0. -1.
</event>
<event>
 7    1  0.6294601E-006  0.7562670E+02  0.7818608E-02  0.1374230E+00
          2   -1    0    0  502    0  0.00000000000E+00  0.00000000000E+00  0.17298252366E+03  0.17298252366E+03  0.00000000000E+00 0. -1.
          1   -1    0    0  501    0 -0.00000000000E+00 -0.00000000000E+00 -0.90311732020E+03  0.90311732020E+03  0.00000000000E+00 0. -1.
         25    2    1    2    0    0 -0.84213441416E+02  0.12967144949E+02 -0.34596051949E+03  0.37758929543E+03  0.12499977768E+03 0.  0.
          2    1    1    2  501    0  0.35570870851E+02  0.45313898796E+02 -0.53052471239E+03  0.53364323919E+03  0.00000000000E+00 0. -1.
          1    1    1    2  502    0  0.48642570565E+02 -0.58281043745E+02  0.14635043534E+03  0.16486730924E+03  0.00000000000E+00 0. -1.
         22    1    3    3    0    0 -0.44231959191E+02  0.60981287860E+01 -0.33154315781E+03  0.33453627438E+03  0.00000000000E+00 0.  1.
         22    1    3    3    0    0 -0.39981482225E+02  0.68690161630E+01 -0.14417361678E+02  0.43053021052E+02  0.00000000000E+00 0.  1.
</event>
<event>
 7    1  0.6294601E-006  0.4975800E+02  0.7818608E-02  0.1513295E+00
          2   -1    0    0  502    0  0.00000000000E+00  0.00000000000E+00  0.34335641535E+02  0.34335641535E+02  0.00000000000E+00 0. -1.
          1   -1    0    0  501    0 -0.00000000000E+00 -0.00000000000E+00 -0.22214194550E+04  0.22214194550E+04  0.00000000000E+00 0. -1.
         25    2    1    2    0    0 -0.13947342620E+02 -0.57429562835E+02 -0.61835027208E+03  0.63362023751E+03  0.12499945338E+03 0.  0.
          2    1    1    2  501    0 -0.15408477879E+02  0.47259028548E+02 -0.15858737680E+04  0.15866525912E+04  0.00000000000E+00 0. -1.
          1    1    1    2  502    0  0.29355820500E+02  0.10170534287E+02  0.17140226619E+02  0.35482267873E+02  0.00000000000E+00 0. -1.
         22    1    3    3    0    0 -0.25217509862E+02 -0.13595795799E+02 -0.55513251833E+03  0.55587128130E+03  0.00000000000E+00 0. -1.
         22    1    3    3    0    0  0.11270167242E+02 -0.43833767036E+02 -0.63217753752E+02  0.77748956210E+02  0.00000000000E+00 0. -1.
</event>
<event>
 7    1  0.6294601E-006  0.8140438E+02  0.7818608E-02  0.1363026E+00
          2   -1    0    0  502    0  0.00000000000E+00  0.00000000000E+00  0.51223208356E+03  0.51223208356E+03  0.00000000000E+00 0. -1.
          1   -1    0    0  501    0 -0.00000000000E+00 -0.00000000000E+00 -0.20020260631E+03  0.20020260631E+03  0.00000000000E+00 0. -1.
         25    2    1    2    0    0  0.72800562288E+02 -0.13763247481E+02 -0.86393084742E+02  0.16905133678E+03  0.12500096209E+03 0.  0.
          2    1    1    2  501    0 -0.25033654976E+02 -0.53128719609E+02 -0.56260687062E+02  0.81330250445E+02  0.00000000000E+00 0. -1.
          1    1    1    2  502    0 -0.47766907312E+02  0.66891967090E+02  0.45468324906E+03  0.46205310265E+03  0.00000000000E+00 0. -1.
         22    1    3    3    0    0  0.74605295606E+02 -0.53217892144E+02 -0.23202095235E+02  0.94532700163E+02  0.00000000000E+00 0. -1.
         22    1    3    3    0    0 -0.18047333184E+01  0.39454644662E+02 -0.63190989507E+02  0.74518636613E+02  0.00000000000E+00 0. -1.
</event>
<event>
 7    1  0.6294601E-006  0.2059570E+03  0.7818608E-02  0.1355340E+00
          2   -1    0    0  502    0  0.00000000000E+00  0.00000000000E+00  0.13309537091E+04  0.13309537091E+04  0.00000000000E+00 0. -1.
          1   -1    0    0  501    0 -0.00000000000E+00 -0.00000000000E+00 -0.71718778671E+02  0.71718778671E+02  0.00000000000E+00 0. -1.
         25    2    1    2    0    0  0.84317431197E+02 -0.19983298874E+03  0.10301139125E+04  0.10600960029E+04  0.12500484007E+03 0.  0.
          2    1    1    2  501    0 -0.97913192049E+02  0.17913449390E+03  0.13379087158E+03  0.24408227589E+03  0.00000000000E+00 0. -1.
          1    1    1    2  502    0  0.13595760852E+02  0.20698494842E+02  0.95330146375E+02  0.98494209016E+02  0.00000000000E+00 0. -1.
         22    1    3    3    0    0 -0.70443409455E+01 -0.45537466831E+02  0.46350665856E+03  0.46579148356E+03  0.00000000000E+00 0.  1.
         22    1    3    3    0    0  0.91361772143E+02 -0.15429552191E+03  0.56660725390E+03  0.59430451930E+03  0.00000000000E+00 0.  1.
</event>
<event>
 7    1  0.6294601E-006  0.1060004E+03  0.7818608E-02  0.1340835E+00
          2   -1    0    0  502    0  0.00000000000E+00  0.00000000000E+00  0.10703830658E+04  0.10703830658E+04  0.00000000000E+00 0. -1.
          1   -1    0    0  501    0 -0.00000000000E+00 -0.00000000000E+00 -0.26684800549E+03  0.26684800549E+03  0.00000000000E+00 0. -1.
         25    2    1    2    0    0  0.19533347993E+01 -0.60852810909E+02  0.27710606164E+03  0.31004221890E+03  0.12502610923E+03 0.  0.
          2    1    1    2  501    0 -0.39279476227E+02  0.10052953123E+03 -0.23773372357E+03  0.26108693423E+03  0.00000000000E+00 0. -1.
          1    1    1    2  502    0  0.37326141428E+02 -0.39676720320E+02  0.76416272221E+03  0.76610191814E+03  0.00000000000E+00 0. -1.
         22    1    3    3    0    0  0.53829531678E+02 -0.67671840816E+02  0.18186849797E+03  0.20137836794E+03  0.00000000000E+00 0.  1.
         22    1    3    3    0    0 -0.51876196879E+02  0.68190299067E+01  0.95237563669E+02  0.10866385096E+03  0.00000000000E+00 0.  1.
</event>
<event>
 7    1  0.6294601E-006  0.4549083E+02  0.7818608E-02  0.1486525E+00
          2   -1    0    0  502    0  0.00000000000E+00  0.00000000000E+00  0.32446347606E+03  0.32446347606E+03  0.00000000000E+00 0. -1.
          1   -1    0    0  501    0 -0.00000000000E+00 -0.00000000000E+00 -0.41945158512E+03  0.41945158512E+03  0.00000000000E+00 0. -1.
         25    2    1    2    0    0  0.81748156811E+01 -0.18363671105E+02 -0.51520932088E+02  0.13669109690E+03  0.12500398994E+03 0.  0.
          2    1    1    2  501    0 -0.36642725852E+02 -0.18047182666E+02 -0.32215271874E+03  0.32473183452E+03  0.00000000000E+00 0. -1.
          1    1    1    2  502    0  0.28467910171E+02  0.36410853771E+02  0.27868554178E+03  0.28249212976E+03  0.00000000000E+00 0. -1.
         22    1    3    3    0    0 -0.19786035291E+02 -0.60042450511E+02 -0.58360869926E+02  0.86038213570E+02  0.00000000000E+00 0.  1.
         22    1    3    3    0    0  0.27960850972E+02  0.41678779406E+02  0.68399378376E+01  0.50652883328E+02  0.00000000000E+00 0.  1.
</event>
<event>
 7    1  0.6294601E-006  0.7931063E+02  0.7818608E-02  0.1417826E+00
          2   -1    0    0  502    0  0.00000000000E+00  0.00000000000E+00  0.24287369862E+04  0.24287369862E+04  0.00000000000E+00 0. -1.
          1   -1    0    0  501    0 -0.00000000000E+00 -0.00000000000E+00 -0.10865837707E+04  0.10865837707E+04  0.00000000000E+00 0. -1.
         25    2    1    2    0    0 -0.60029211453E+02  0.65232844266E+02 -0.13220073297E+02  0.15382209473E+03  0.12501054472E+03 0.  0.
          2    1    1    2  501    0 -0.13802932465E+02 -0.36277721016E+02 -0.10020201208E+04  0.10027716173E+04  0.00000000000E+00 0. -1.
          1    1    1    2  502    0  0.73832143918E+02 -0.28955123249E+02  0.23573934096E+04  0.23587270449E+04  0.00000000000E+00 0. -1.
         22    1    3    3    0    0 -0.53454009443E+02 -0.26040270064E+02  0.76876765319E+01  0.59954375662E+02  0.00000000000E+00 0. -1.
         22    1    3    3    0    0 -0.65752020105E+01  0.91273114330E+02 -0.20907749829E+02  0.93867719072E+02  0.00000000000E+00 0. -1.
</event>
<event>
 7    1  0.6294601E-006  0.1886737E+03  0.7818608E-02  0.1233754E+00
          2   -1    0    0  502    0  0.00000000000E+00  0.00000000000E+00  0.63552573276E+03  0.63552573276E+03  0.00000000000E+00 0. -1.
          1   -1    0    0  501    0 -0.00000000000E+00 -0.00000000000E+00 -0.88405854919E+03  0.88405854919E+03  0.00000000000E+00 0. -1.
         25    2    1    2    0    0  0.14798356831E+03  0.71163313383E+02 -0.39840459210E+02  0.21017896016E+03  0.12499831775E+03 0.  0.
          2    1    1    2  501    0 -0.12225318233E+03 -0.15106167051E+03 -0.74328162550E+03  0.76826625833E+03  0.00000000000E+00 0. -1.
          1    1    1    2  502    0 -0.25730385984E+02  0.79898357126E+02  0.53458926829E+03  0.54113906346E+03  0.00000000000E+00 0. -1.
         22    1    3    3    0    0  0.12200276503E+02  0.34541199950E+01  0.37706853017E+02  0.39781710070E+02  0.00000000000E+00 0. -1.
         22    1    3    3    0    0  0.13578329181E+03  0.67709193388E+02 -0.77547312227E+02  0.17039725009E+03  0.00000000000E+00 0. -1.
</event>
<event>
 7    1  0.6294601E-006  0.5767530E+02  0.7818608E-02  0.1433012E+00
          2   -1    0    0  502    0  0.00000000000E+00  0.00000000000E+00  0.28199285856E+02  0.28199285856E+02  0.00000000000E+00 0. -1.
          1   -1    0    0  501    0 -0.00000000000E+00 -0.00000000000E+00 -0.82378040985E+03  0.82378040985E+03  0.00000000000E+00 0. -1.
         25    2    1    2    0    0 -0.24312976351E+02 -0.81448836942E+02 -0.45793439233E+03  0.48223823425E+03  0.12499909213E+03 0.  0.
          2    1    1    2  501    0  0.40005242330E+02  0.36579080188E+02 -0.31009909515E+03  0.31480136171E+03  0.00000000000E+00 0. -1.
          1    1    1    2  502    0 -0.15692265979E+02  0.44869756754E+02 -0.27547636511E+02  0.54940099746E+02  0.00000000000E+00 0. -1.
         22    1    3    3    0    0  0.14316705498E+02  0.93365199506E+01 -0.26490566810E+03  0.26545649673E+03  0.00000000000E+00 0.  1.
         22    1    3    3    0    0 -0.38629681849E+02 -0.90785356892E+02 -0.19302872422E+03  0.21678173752E+03  0.00000000000E+00 0.  1.
</event>
<event>
 7    1  0.8851246E-006  0.1156198E+03  0.7818608E-02  0.1318605E+00
          2   -1    0    0  502    0  0.00000000000E+00  0.00000000000E+00  0.28479911814E+04  0.28479911814E+04  0.00000000000E+00 0. -1.
          1   -1    0    0  501    0 -0.00000000000E+00 -0.00000000000E+00 -0.13627573241E+04  0.13627573241E+04  0.00000000000E+00 0. -1.
         25    2    1    2    0    0 -0.10344938990E+03  0.76080921076E+02 -0.15820410559E+03  0.23905676285E+03  0.12501805477E+03 0.  0.
          2    1    1    2  501    0 -0.11022222874E+02 -0.59726712472E+02 -0.11621429258E+04  0.11637288987E+04  0.00000000000E+00 0. -1.
          1    1    1    2  502    0  0.11447161277E+03 -0.16354208604E+02  0.28055808887E+04  0.28079628440E+04  0.00000000000E+00 0. -1.
         22    1    3    3    0    0 -0.13203746716E+03  0.52327373631E+02 -0.12691138722E+03  0.19046928092E+03  0.00000000000E+00 0. -1.
         22    1    3    3    0    0  0.28588077267E+02  0.23753547446E+02 -0.31292718366E+02  0.48587481935E+02  0.00000000000E+00 0. -1.
</event>
<event>
 7    1  0.6294601E-006  0.1068618E+03  0.7818608E-02  0.1300402E+00
          2   -1    0    0  502    0  0.00000000000E+00  0.00000000000E+00  0.46224506337E+03  0.46224506337E+03  0.00000000000E+00 0. -1.
          1   -1    0    0  501    0 -0.00000000000E+00 -0.00000000000E+00 -0.43979481313E+03  0.43979481313E+03  0.00000000000E+00 0. -1.
         25    2    1    2    0    0 -0.40339821473E+01  0.16168942431E+03  0.14460182153E+03  0.25038649159E+03  0.12499586168E+03 0.  0.
          2    1    1    2  501    0 -0.39573122196E+02 -0.97590642537E+02 -0.37379113454E+03  0.38834234609E+03  0.00000000000E+00 0. -1.
          1    1    1    2  502    0  0.43607104343E+02 -0.64098781772E+02  0.25163956325E+03  0.26331103882E+03  0.00000000000E+00 0. -1.
         22    1    3    3    0    0  0.13373769714E+02  0.96256512907E+02  0.15392784543E+03  0.18203833550E+03  0.00000000000E+00 0. -1.
         22    1    3    3    0    0 -0.17407751861E+02  0.65432911402E+02 -0.93260239000E+01  0.68348156092E+02  0.00000000000E+00 0. -1.
</event>
<event>
 7    1  0.6294601E-006  0.7356027E+02  0.7818608E-02  0.1355275E+00
          2   -1    0    0  502    0  0.00000000000E+00  0.00000000000E+00  0.34864516937E+04  0.34864516937E+04  0.00000000000E+00 0. -1.
          1   -1    0    0  501    0 -0.00000000000E+00 -0.00000000000E+00 -0.11215677992E+03  0.11215677992E+03  0.00000000000E+00 0. -1.
         25    2    1    2    0    0  0.54300501436E+02  0.39163475211E+02  0.19606926051E+04  0.19658129356E+04  0.12499073565E+03 0.  0.
          2    1    1    2  501    0 -0.60659533742E+02  0.41611714818E+02 -0.96043378313E+02  0.12097704064E+03  0.00000000000E+00 0. -1.
          1    1    1    2  502    0  0.63590323061E+01 -0.80775190029E+02  0.15096456871E+04  0.15118184974E+04  0.00000000000E+00 0. -1.
         22    1    3    3    0    0  0.44280154957E+02  0.11461498708E+02  0.21226223291E+03  0.21713441367E+03  0.00000000000E+00 0. -1.
         22    1    3    3    0    0  0.10020346479E+02  0.27701976504E+02  0.17484303721E+04  0.17486785219E+04  0.00000000000E+00 0. -1.
</event>
<event>
 7    1  0.6294601E-006  0.1929389E+03  0.7818608E-02  0.1173901E+00
          2   -1    0    0  502    0  0.00000000000E+00  0.00000000000E+00  0.84580527698E+03  0.84580527698E+03  0.00000000000E+00 0. -1.
          1   -1    0    0  501    0 -0.00000000000E+00 -0.00000000000E+00 -0.43402631267E+03  0.43402631267E+03  0.00000000000E+00 0. -1.
         25    2    1    2    0    0  0.20005821356E+02  0.21947107919E+03 -0.19890854524E+03  0.32211267990E+03  0.12499672673E+03 0.  0.
          2    1    1    2  501    0 -0.14133547061E+03 -0.67514590131E+02 -0.12271264633E+03  0.19897821163E+03  0.00000000000E+00 0. -1.
          1    1    1    2  502    0  0.12132964926E+03 -0.15195648906E+03  0.73340015587E+03  0.75874069813E+03  0.00000000000E+00 0. -1.
         22    1    3    3    0    0 -0.35765460395E+02  0.45067427901E+02 -0.88680775972E+01  0.58214122128E+02  0.00000000000E+00 0.  1.
         22    1    3    3    0    0  0.55771281751E+02  0.17440365129E+03 -0.19004046764E+03  0.26389855777E+03  0.00000000000E+00 0.  1.
</event>
<event>
 7    1  0.6294601E-006  0.3953700E+02  0.7818608E-02  0.1515527E+00
          2   -1    0    0  502    0  0.00000000000E+00  0.00000000000E+00  0.33419378848E+03  0.33419378848E+03  0.00000000000E+00 0. -1.
          1   -1    0    0  501    0 -0.00000000000E+00 -0.00000000000E+00 -0.27822848778E+03  0.27822848778E+03  0.00000000000E+00 0. -1.
         25    2    1    2    0    0  0.34732737596E+02 -0.62683581380E+02  0.11124528604E+03  0.18202875539E+03  0.12499343858E+03 0.  0.
          2    1    1    2  501    0 -0.30759622762E+02  0.24373540570E+02 -0.23924363709E+03  0.24244121300E+03  0.00000000000E+00 0. -1.
          1    1    1    2  502    0 -0.39731148345E+01  0.38310040810E+02  0.18396365175E+03  0.18795230787E+03  0.00000000000E+00 0. -1.
         22    1    3    3    0    0 -0.32294731929E+02 -0.38155208657E+02  0.15769363555E+00  0.49987943799E+02  0.00000000000E+00 0. -1.
         22    1    3    3    0    0  0.67027469525E+02 -0.24528372723E+02  0.11108759241E+03  0.13204081159E+03  0.00000000000E+00 0. -1.
</event>
<event>
 7    1  0.6294601E-006  0.6210477E+02  0.7818608E-02  0.1402109E+00
          2   -1    0    0  502    0  0.00000000000E+00  0.00000000000E+00  0.53143735238E+03  0.53143735238E+03  0.00000000000E+00 0. -1.
          1   -1    0    0  501    0 -0.00000000000E+00 -0.00000000000E+00 -0.67187683507E+03  0.67187683507E+03  0.00000000000E+00 0. -1.
         25    2    1    2    0    0  0.10474145675E+03  0.32757905757E+02 -0.47066324144E+03  0.49919211326E+03  0.12500010380E+03 0.  0.
          2    1    1    2  501    0 -0.42882653496E+02 -0.36071408960E+02 -0.18083725582E+03  0.18932031483E+03  0.00000000000E+00 0. -1.
          1    1    1    2  502    0 -0.61858803249E+02  0.33135032034E+01  0.51106101456E+03  0.51480175937E+03  0.00000000000E+00 0. -1.
         22    1    3    3    0    0  0.86546913683E+02  0.43876852915E+02 -0.46770522888E+03  0.47766486956E+03  0.00000000000E+00 0. -1.
         22    1    3    3    0    0  0.18194543062E+02 -0.11118947158E+02 -0.29580125604E+01  0.21527243703E+02  0.00000000000E+00 0. -1.
</event>
<event>
 7    1  0.6294601E-006  0.7486832E+02  0.7818608E-02  0.1442641E+00
          2   -1    0    0  502    0  0.00000000000E+00  0.00000000000E+00  0.18106537388E+04  0.18106537388E+04  0.00000000000E+00 0. -1.
          1   -1    0    0  501    0 -0.00000000000E+00 -0.00000000000E+00 -0.18641585560E+02  0.18641585560E+02  0.00000000000E+00 0. -1.
         25    2    1    2    0    0 -0.28446469177E+02 -0.76534393584E+02  0.38036100549E+03  0.40861704272E+03  0.12500671219E+03 0.  0.
          2    1    1    2  501    0 -0.24541932379E+02  0.23629819632E+02  0.80365138894E+02  0.87288202927E+02  0.00000000000E+00 0. -1.
          1    1    1    2  502    0  0.52988401556E+02  0.52904573952E+02  0.13312860089E+04  0.13333900788E+04  0.00000000000E+00 0. -1.
         22    1    3    3    0    0  0.31768128762E+02 -0.24564034203E+00  0.21077354183E+03  0.21315431096E+03  0.00000000000E+00 0.  1.
         22    1    3    3    0    0 -0.60214597938E+02 -0.76288753242E+02  0.16958746366E+03  0.19546273176E+03  0.00000000000E+00 0.  1.
</event>
<event>
 7    1  0.6294601E-006  0.8634965E+02  0.7818608E-02  0.1329492E+00
          2   -1    0    0  502    0  0.00000000000E+00  0.00000000000E+00  0.13168945662E+04  0.13168945662E+04  0.00000000000E+00 0. -1.
          1   -1    0    0  501    0 -0.00000000000E+00 -0.00000000000E+00 -0.60024058406E+03  0.60024058406E+03  0.00000000000E+00 0. -1.
         25    2    1    2    0    0  0.19289610542E+02 -0.25811800339E+00  0.26112152510E+03  0.29013722921E+03  0.12499202056E+03 0.  0.
          2    1    1    2  501    0 -0.64659820951E+02  0.58502460260E+02 -0.58116736619E+03  0.58767247496E+03  0.00000000000E+00 0. -1.
          1    1    1    2  502    0  0.45370210409E+02 -0.58244342257E+02  0.10366998232E+04  0.10393254461E+04  0.00000000000E+00 0. -1.
         22    1    3    3    0    0 -0.22978059876E+02 -0.52145228369E+02  0.14948236875E+03  0.15997529385E+03  0.00000000000E+00 0. -1.
         22    1    3    3    0    0  0.42267670419E+02  0.51887110365E+02  0.11163915636E+03  0.13016193536E+03  0.00000000000E+00 0. -1.
</event>
<event>
 7    1  0.6294601E-006  0.8877163E+02  0.7818608E-02  0.1357995E+00
          2   -1    0    0  502    0  0.00000000000E+00  0.00000000000E+00  0.34959842679E+04  0.34959842679E+04  0.00000000000E+00 0. -1.
          1   -1    0    0  501    0 -0.00000000000E+00 -0.00000000000E+00 -0.10615319958E+02  0.10615319958E+02  0.00000000000E+00 0. -1.
         25    2    1    2    0    0 -0.11193014908E+03 -0.38454293770E+01  0.16170056475E+04  0.16256922004E+04  0.12499888362E+03 0.  0.
          2    1    1    2  501    0  0.76689534443E+02 -0.39908679030E+02  0.31845442987E+03  0.32998062255E+03  0.00000000000E+00 0. -1.
          1    1    1    2  502    0  0.35240614639E+02  0.43754108407E+02  0.15499088705E+04  0.15509267648E+04  0.00000000000E+00 0. -1.
         22    1    3    3    0    0  0.51188300211E+01  0.36171355806E+02  0.61426770727E+03  0.61535305768E+03  0.00000000000E+00 0.  1.
         22    1    3    3    0    0 -0.11704897910E+03 -0.40016785183E+02  0.10027379402E+04  0.10103391427E+04  0.00000000000E+00 0.  1.
</event>
<event>
 7    1  0.6294601E-006  0.8895248E+02  0.7818608E-02  0.1350329E+00
          2   -1    0    0  502    0  0.00000000000E+00  0.00000000000E+00  0.98499805481E+03  0.98499805481E+03  0.00000000000E+00 0. -1.
          1   -1    0    0  501    0 -0.00000000000E+00 -0.00000000000E+00 -0.42774320702E+03  0.42774320702E+03  0.00000000000E+00 0. -1.
         25    2    1    2    0    0 -0.42104865281E+02  0.11340654050E+03  0.55906646528E+03  0.58550150522E+03  0.12499134735E+03 0.  0.
          2    1    1    2  501    0 -0.12055824704E+02 -0.87981287313E+02 -0.40755043192E+03  0.41711317935E+03  0.00000000000E+00 0. -1.
          1    1    1    2  502    0  0.54160689985E+02 -0.25425253190E+02  0.40573881443E+03  0.41012657726E+03  0.00000000000E+00 0. -1.
         22    1    3    3    0    0  0.71758143506E+01  0.96869948442E+01 -0.25023781461E+01  0.12312273433E+02  0.00000000000E+00 0. -1.
         22    1    3    3    0    0 -0.49280679631E+02  0.10371954566E+03  0.56156884342E+03  0.57318923179E+03  0.00000000000E+00 0. -1.
</event>
<event>
 7    1  0.6294601E-006  0.1478087E+03  0.7818608E-02  0.1237892E+00
          2   -1    0    0  502    0  0.00000000000E+00  0.00000000000E+00  0.58673572532E+02  0.58673572532E+02  0.00000000000E+00 0. -1.
          1   -1    0    0  501    0 -0.00000000000E+00 -0.00000000000E+00 -0.14836660755E+04  0.14836660755E+04  0.00000000000E+00 0. -1.
         25    2    1    2    0    0 -0.17135551273E+03  0.12168073035E+03 -0.81930048995E+03  0.85501270800E+03  0.12499810449E+03 0.  0.
          2    1    1    2  501    0  0.69929482413E+02 -0.10551233258E+03 -0.56137102635E+03  0.57546538911E+03  0.00000000000E+00 0. -1.
          1    1    1    2  502    0  0.10142603031E+03 -0.16168397769E+02 -0.44320986633E+02  0.11186155089E+03  0.00000000000E+00 0. -1.
         22    1    3    3    0    0 -0.18332825191E+03  0.79367472146E+02 -0.69614022991E+03  0.72423729763E+03  0.00000000000E+00 0.  1.
         22    1    3    3    0    0  0.11972739181E+02  0.42313258202E+02 -0.12316026004E+03  0.13077541037E+03  0.00000000000E+00 0.  1.
</event>
<event>
 7    1  0.6294601E-006  0.7135972E+02  0.7818608E-02  0.1375733E+00
          2   -1    0    0  502    0  0.00000000000E+00  0.00000000000E+00  0.13442106174E+04  0.13442106174E+04  0.00000000000E+00 0. -1.
          1   -1    0    0  501    0 -0.00000000000E+00 -0.00000000000E+00 -0.20269547902E+04  0.20269547902E+04  0.00000000000E+00 0. -1.
         25    2    1    2    0    0  0.27312712468E+02  0.15885660235E+02  0.61483330948E+03  0.62820690107E+03  0.12500229455E+03 0.  0.
          2    1    1    2  501    0  0.60156338509E+02 -0.42062323375E+01 -0.20171218754E+04  0.20180230766E+04  0.00000000000E+00 0. -1.
          1    1    1    2  502    0 -0.87469050977E+02 -0.11679427898E+02  0.71954439316E+03  0.72493542998E+03  0.00000000000E+00 0. -1.
         22    1    3    3    0    0 -0.40554361610E+02 -0.25693800540E+02  0.18920346708E+03  0.19519933296E+03  0.00000000000E+00 0.  1.
         22    1    3    3    0    0  0.67867074077E+02  0.41579460775E+02  0.42562984240E+03  0.43300756811E+03  0.00000000000E+00 0.  1.
</event>
<event>
 7    1  0.6294601E-006  0.1112562E+03  0.7818608E-02  0.1304183E+00
          2   -1    0    0  502    0  0.00000000000E+00  0.00000000000E+00  0.50254229756E+03  0.50254229756E+03  0.00000000000E+00 0. -1.
          1   -1    0    0  501    0 -0.00000000000E+00 -0.00000000000E+00 -0.10052816347E+04  0.10052816347E+04  0.00000000000E+00 0. -1.
         25    2    1    2    0    0 -0.75101580712E+01 -0.83234294741E+02 -0.21266156062E+02  0.15186018277E+03  0.12499966169E+03 0.  0.
          2    1    1    2  501    0 -0.63552668525E+02  0.94319038300E+02 -0.91220546279E+03  0.91926809419E+03  0.00000000000E+00 0. -1.
          1    1    1    2  502    0  0.71062826596E+02 -0.11084743558E+02  0.43073228170E+03  0.43669565530E+03  0.00000000000E+00 0. -1.
         22    1    3    3    0    0 -0.59155976127E+02 -0.72931120954E+02  0.28232566273E+01  0.93948649236E+02  0.00000000000E+00 0.  1.
         22    1    3    3    0    0  0.51645818056E+02 -0.10303173787E+02 -0.24089412689E+02  0.57911533536E+02  0.00000000000E+00 0.  1.
</event>
<event>
 7    1  0.6294601E-006  0.1026473E+03  0.7818608E-02  0.1416653E+00
          2   -1    0    0  502    0  0.00000000000E+00  0.00000000000E+00  0.15112088114E+04  0.15112088114E+04  0.00000000000E+00 0. -1.
          1   -1    0    0  501    0 -0.00000000000E+00 -0.00000000000E+00 -0.60435648190E+02  0.60435648190E+02  0.00000000000E+00 0. -1.
         25    2    1    2    0    0 -0.80506148182E+02 -0.49945543678E+02  0.62968363034E+03  0.64892455476E+03  0.12500322489E+03 0.  0.
          2    1    1    2  501    0  0.68514245764E+02  0.77731483222E+02  0.25774891674E+01  0.10364858324E+03  0.00000000000E+00 0. -1.
          1    1    1    2  502    0  0.11991902419E+02 -0.27785939544E+02  0.81851204368E+03  0.81907132156E+03  0.00000000000E+00 0. -1.
         22    1    3    3    0    0  0.21836956134E+02 -0.51101743974E+01  0.29969174080E+03  0.30052970908E+03  0.00000000000E+00 0.  1.
         22    1    3    3    0    0 -0.10234310432E+03 -0.44835369280E+02  0.32999188954E+03  0.34839484569E+03  0.00000000000E+00 0.  1.
</event>
<event>
 7    1  0.6294601E-006  0.1680598E+03  0.7818608E-02  0.1193080E+00
          2   -1    0    0  502    0  0.00000000000E+00  0.00000000000E+00  0.20358586434E+04  0.20358586434E+04  0.00000000000E+00 0. -1.
          1   -1    0    0  501    0 -0.00000000000E+00 -0.00000000000E+00 -0.71983951862E+03  0.71983951862E+03  0.00000000000E+00 0. -1.
         25    2    1    2    0    0  0.13189850892E+03  0.21594351362E+03  0.54432491359E+03  0.61314299889E+03  0.12500363116E+03 0.  0.
          2    1    1    2  501    0  0.48060311377E+01 -0.16719323198E+03 -0.67153223444E+03  0.69204928773E+03  0.00000000000E+00 0. -1.
          1    1    1    2  502    0 -0.13670454005E+03 -0.48750281640E+02  0.14432264456E+04  0.14505058754E+04  0.00000000000E+00 0. -1.
         22    1    3    3    0    0  0.91691531616E+02  0.10228449729E+03  0.16273321547E+03  0.21295904483E+03  0.00000000000E+00 0.  1.
         22    1    3    3    0    0  0.40206977300E+02  0.11365901634E+03  0.38159169811E+03  0.40018395406E+03  0.00000000000E+00 0.  1.
</event>
<event>
 7    1  0.6294601E-006  0.2043253E+03  0.7818608E-02  0.1210069E+00
          2   -1    0    0  502    0  0.00000000000E+00  0.00000000000E+00  0.12178132279E+04  0.12178132279E+04  0.00000000000E+00 0. -1.
          1   -1    0    0  501    0 -0.00000000000E+00 -0.00000000000E+00 -0.21590587698E+04  0.21590587698E+04  0.00000000000E+00 0. -1.
         25    2    1    2    0    0 -0.12152609114E+03  0.13955440875E+03  0.20270241171E+03  0.30159083911E+03  0.12499897076E+03 0.  0.
          2    1    1    2  501    0  0.19272802736E+03 -0.70320162350E+02 -0.21020540027E+04  0.21120416776E+04  0.00000000000E+00 0. -1.
          1    1    1    2  502    0 -0.71201936218E+02 -0.69234246402E+02  0.95810604908E+03  0.96323948106E+03  0.00000000000E+00 0. -1.
         22    1    3    3    0    0 -0.47395987452E+01  0.84360558430E+02  0.12490720076E+03  0.15080111544E+03  0.00000000000E+00 0.  1.
         22    1    3    3    0    0 -0.11678649239E+03  0.55193850322E+02  0.77795210949E+02  0.15078972367E+03  0.00000000000E+00 0.  1.
</event>
<event>
 7    1  0.6294601E-006  0.5651768E+02  0.7818608E-02  0.1530511E+00
          2   -1    0    0  502    0  0.00000000000E+00  0.00000000000E+00  0.94002699735E+02  0.94002699735E+02  0.00000000000E+00 0. -1.
          1   -1    0    0  501    0 -0.00000000000E+00 -0.00000000000E+00 -0.55657414275E+03  0.55657414275E+03  0.00000000000E+00 0. -1.
         25    2    1    2    0    0  0.78485468065E+02  0.46041992797E+01 -0.96664346542E+02  0.17649470534E+03  0.12500087108E+03 0.  0.
          2    1    1    2  501    0 -0.24384881872E+02  0.42060507631E-01 -0.40590769769E+03  0.40663950039E+03  0.00000000000E+00 0. -1.
          1    1    1    2  502    0 -0.54100586193E+02 -0.46462597873E+01  0.40000601211E+02  0.67442636764E+02  0.00000000000E+00 0. -1.
         22    1    3    3    0    0  0.58844656730E+02 -0.39042341550E+02 -0.22648587365E+01  0.70654990231E+02  0.00000000000E+00 0. -1.
         22    1    3    3    0    0  0.19640811335E+02  0.43646540829E+02 -0.94399487806E+02  0.10583971511E+03  0.00000000000E+00 0. -1.
</event>
<event>
 7    1  0.6294601E-006  0.1093445E+03  0.7818608E-02  0.1310395E+00
          2   -1    0    0  502    0  0.00000000000E+00  0.00000000000E+00  0.63270579221E+03  0.63270579221E+03  0.00000000000E+00 0. -1.
          1   -1    0    0  501    0 -0.00000000000E+00 -0.00000000000E+00 -0.91689538093E+03  0.91689538093E+03  0.00000000000E+00 0. -1.
         25    2    1    2    0    0 -0.35604611518E+02  0.23820365189E+02  0.20066858818E+03  0.24026658551E+03  0.12500020668E+03 0.  0.
          2    1    1    2  501    0  0.10275773871E+03 -0.40326540717E+02 -0.89076530630E+03  0.89757908491E+03  0.00000000000E+00 0. -1.
          1    1    1    2  502    0 -0.67153127188E+02  0.16506175528E+02  0.40590712940E+03  0.41175550272E+03  0.00000000000E+00 0. -1.
         22    1    3    3    0    0 -0.87930029807E+01 -0.50174809760E+02  0.56936903142E+02  0.76397901641E+02  0.00000000000E+00 0.  1.
         22    1    3    3    0    0 -0.26811608537E+02  0.73995174949E+02  0.14373168504E+03  0.16386868387E+03  0.00000000000E+00 0.  1.
</event>
<event>
 7    1  0.6294601E-006  0.1466679E+03  0.7818608E-02  0.1280793E+00
          2   -1    0    0  502    0  0.00000000000E+00  0.00000000000E+00  0.19146186109E+04  0.19146186109E+04  0.00000000000E+00 0. -1.
          1   -1    0    0  501    0 -0.00000000000E+00 -0.00000000000E+00 -0.79083566228E+02  0.79083566228E+02  0.00000000000E+00 0. -1.
         25    2    1    2    0    0  0.42849037917E+02  0.74156202333E+02  0.88253383465E+03  0.89544645697E+03  0.12499282222E+03 0.  0.
          2    1    1    2  501    0 -0.90463110779E+02 -0.12250726562E+03  0.97853761478E+01  0.15260195977E+03  0.00000000000E+00 0. -1.
          1    1    1    2  502    0  0.47614072862E+02  0.48351063283E+02  0.94321583391E+03  0.94565376042E+03  0.00000000000E+00 0. -1.
         22    1    3    3    0    0  0.63385900108E+01  0.20634326080E+02  0.72212588056E+03  0.72244843450E+03  0.00000000000E+00 0.  1.
         22    1    3    3    0    0  0.36510447906E+02  0.53521876253E+02  0.16040795409E+03  0.17299802247E+03  0.00000000000E+00 0.  1.
</event>
<event>
 7    1  0.6294601E-006  0.6795565E+02  0.7818608E-02  0.1444379E+00
          2   -1    0    0  502    0  0.00000000000E+00  0.00000000000E+00  0.13855574083E+03  0.13855574083E+03  0.00000000000E+00 0. -1.
          1   -1    0    0  501    0 -0.00000000000E+00 -0.00000000000E+00 -0.21482742726E+04  0.21482742726E+04  0.00000000000E+00 0. -1.
         25    2    1    2    0    0 -0.40694149411E+02 -0.78613499333E+02 -0.44969007149E+02  0.15961770365E+03  0.12497801263E+03 0.  0.
          2    1    1    2  501    0  0.53123497186E+01  0.67612786827E+02 -0.20411629672E+04  0.20422893939E+04  0.00000000000E+00 0. -1.
          1    1    1    2  502    0  0.35381799693E+02  0.11000712506E+02  0.76413442575E+02  0.84922915819E+02  0.00000000000E+00 0. -1.
         22    1    3    3    0    0  0.24863882308E+02 -0.13103105505E+01 -0.52371469774E+02  0.57988795500E+02  0.00000000000E+00 0. -1.
         22    1    3    3    0    0 -0.65558031719E+02 -0.77303188782E+02  0.74024626251E+01  0.10162890815E+03  0.00000000000E+00 0. -1.
</event>
<event>
 7    1  0.6294601E-006  0.4500540E+02  0.7818608E-02  0.1518262E+00
          2   -1    0    0  502    0  0.00000000000E+00  0.00000000000E+00  0.62626092040E+03  0.62626092040E+03  0.00000000000E+00 0. -1.
          1   -1    0    0  501    0 -0.00000000000E+00 -0.00000000000E+00 -0.38342429249E+02  0.38342429249E+02  0.00000000000E+00 0. -1.
         25    2    1    2    0    0 -0.10816631444E+02  0.46196720015E+02  0.34965544194E+03  0.37434533961E+03  0.12499747499E+03 0.  0.
          2    1    1    2  501    0  0.37285308815E+02 -0.26122251146E+02 -0.40251225282E+01  0.45703040049E+02  0.00000000000E+00 0. -1.
          1    1    1    2  502    0 -0.26468677371E+02 -0.20074468869E+02  0.24228817174E+03  0.24455496999E+03  0.00000000000E+00 0. -1.
         22    1    3    3    0    0  0.14516259704E+02 -0.38443334040E+02  0.15883049481E+03  0.16406016522E+03  0.00000000000E+00 0.  1.
         22    1    3    3    0    0 -0.25332891148E+02  0.84640054055E+02  0.19082494713E+03  0.21028517439E+03  0.00000000000E+00 0.  1.
</event>
<event>
 7    1  0.6294601E-006  0.4535774E+02  0.7818608E-02  0.1518189E+00
          2   -1    0    0  502    0  0.00000000000E+00  0.00000000000E+00  0.96892060950E+03  0.96892060950E+03  0.00000000000E+00 0. -1.
          1   -1    0    0  501    0 -0.00000000000E+00 -0.00000000000E+00 -0.31860621194E+03  0.31860621194E+03  0.00000000000E+00 0. -1.
         25    2    1    2    0    0 -0.18276481215E+02 -0.72766489592E+02 -0.75450712987E+02  0.16415536566E+03  0.12500072885E+03 0.  0.
          2    1    1    2  501    0  0.26510141918E+01  0.43725065294E+02 -0.19609166886E+03  0.20092499050E+03  0.00000000000E+00 0. -1.
          1    1    1    2  502    0  0.15625467023E+02  0.29041424298E+02  0.92185677941E+03  0.92244646527E+03  0.00000000000E+00 0. -1.
         22    1    3    3    0    0  0.23714570710E+02 -0.90817444536E+02 -0.27269405281E+02  0.97743590892E+02  0.00000000000E+00 0.  1.
         22    1    3    3    0    0 -0.41991051925E+02  0.18050954945E+02 -0.48181307706E+02  0.66411774773E+02  0.00000000000E+00 0.  1.
</event>
<event>
 7    1  0.6294601E-006  0.4295198E+02  0.7818608E-02  0.1549964E+00
          2   -1    0    0  502    0  0.00000000000E+00  0.00000000000E+00  0.21274395411E+04  0.21274395411E+04  0.00000000000E+00 0. -1.
          1   -1    0    0  501    0 -0.00000000000E+00 -0.00000000000E+00 -0.18911957754E+03  0.18911957754E+03  0.00000000000E+00 0. -1.
         25    2    1    2    0    0  0.49003347516E+02  0.50438683535E+02  0.23755747305E+03  0.27749328471E+03  0.12499432463E+03 0.  0.
          2    1    1    2  501    0 -0.22613649715E+02 -0.16967363413E+02 -0.16772563683E+03  0.17009161597E+03  0.00000000000E+00 0. -1.
          1    1    1    2  502    0 -0.26389697801E+02 -0.33471320122E+02  0.18684881273E+04  0.18689742179E+04  0.00000000000E+00 0. -1.
         22    1    3    3    0    0  0.19354555326E+02  0.66642731296E+02  0.46649412618E+02  0.83618300294E+02  0.00000000000E+00 0.  1.
         22    1    3    3    0    0  0.29648792190E+02 -0.16204047761E+02  0.19090806043E+03  0.19387498441E+03  0.00000000000E+00 0.  1.
</event>
<event>
 7    1  0.6294601E-006  0.1181222E+03  0.7818608E-02  0.1280031E+00
          2   -1    0    0  502    0  0.00000000000E+00  0.00000000000E+00  0.14860758287E+04  0.14860758287E+04  0.00000000000E+00 0. -1.
          1   -1    0    0  501    0 -0.00000000000E+00 -0.00000000000E+00 -0.71563705787E+03  0.71563705787E+03  0.00000000000E+00 0. -1.
         25    2    1    2    0    0  0.11197098632E+03 -0.75638213807E+02  0.29616596758E+03  0.34870910251E+03  0.12500046662E+03 0.  0.
          2    1    1    2  501    0 -0.11796362723E+03 -0.90212989594E+01 -0.68272370329E+03  0.69289859014E+03  0.00000000000E+00 0. -1.
          1    1    1    2  502    0  0.59926409089E+01  0.84659512766E+02  0.11569965065E+04  0.11601051939E+04  0.00000000000E+00 0. -1.
         22    1    3    3    0    0  0.11886751665E+03 -0.65605905827E+02  0.30487539038E+03  0.33374035575E+03  0.00000000000E+00 0.  1.
         22    1    3    3    0    0 -0.68965303324E+01 -0.10032307980E+02 -0.87094228016E+01  0.14968746760E+02  0.00000000000E+00 0.  1.
</event>
<event>
 7    1  0.6294601E-006  0.1337498E+03  0.7818608E-02  0.1272490E+00
          2   -1    0    0  502    0  0.00000000000E+00  0.00000000000E+00  0.30834339008E+04  0.30834339008E+04  0.00000000000E+00 0. -1.
          1   -1    0    0  501    0 -0.00000000000E+00 -0.00000000000E+00 -0.18978708969E+03  0.18978708969E+03  0.00000000000E+00 0. -1.
         25    2    1    2    0    0 -0.76594230348E+02 -0.64377233172E+02  0.29831077786E+03  0.33856497262E+03  0.12500326485E+03 0.  0.
          2    1    1    2  501    0  0.13775089311E+03  0.11929502718E+02 -0.14079775854E+03  0.19733633826E+03  0.00000000000E+00 0. -1.
          1    1    1    2  502    0 -0.61156662765E+02  0.52447730454E+02  0.27361337918E+04  0.27373196796E+04  0.00000000000E+00 0. -1.
         22    1    3    3    0    0  0.15673226031E+02  0.20794007237E+02  0.18716045429E+02  0.32067602151E+02  0.00000000000E+00 0.  1.
         22    1    3    3    0    0 -0.92267456379E+02 -0.85171240409E+02  0.27959473243E+03  0.30649737047E+03  0.00000000000E+00 0.  1.
</event>
<event>
 7    1  0.6294601E-006  0.8754794E+02  0.7818608E-02  0.1466756E+00
          2   -1    0    0  502    0  0.00000000000E+00  0.00000000000E+00  0.16003261412E+03  0.16003261412E+03  0.00000000000E+00 0. -1.
          1   -1    0    0  501    0 -0.00000000000E+00 -0.00000000000E+00 -0.18119195314E+03  0.18119195314E+03  0.00000000000E+00 0. -1.
         25    2    1    2    0    0  0.48723093264E+02  0.65048876123E+02  0.75804428558E+01  0.14929045374E+03  0.12499952144E+03 0.  0.
          2    1    1    2  501    0 -0.32662882196E+02 -0.83445638908E+02 -0.89377424201E+02  0.12656366968E+03  0.00000000000E+00 0. -1.
          1    1    1    2  502    0 -0.16060211067E+02  0.18396762785E+02  0.60637642329E+02  0.65370443839E+02  0.00000000000E+00 0. -1.
         22    1    3    3    0    0 -0.22193658314E+02  0.70797179656E+02  0.20507404064E+02  0.76976312837E+02  0.00000000000E+00 0.  1.
         22    1    3    3    0    0  0.70916751577E+02 -0.57483035332E+01 -0.12926961208E+02  0.72314140898E+02  0.00000000000E+00 0.  1.
</event>
<event>
 7    1  0.6294601E-006  0.5782446E+02  0.7818608E-02  0.1551439E+00
          2   -1    0    0  502    0  0.00000000000E+00  0.00000000000E+00  0.14480883442E+04  0.14480883442E+04  0.00000000000E+00 0. -1.
          1   -1    0    0  501    0 -0.00000000000E+00 -0.00000000000E+00 -0.17489197744E+04  0.17489197744E+04  0.00000000000E+00 0. -1.
         25    2    1    2    0    0  0.31405429303E+02 -0.67739768652E+02 -0.12281204733E+03  0.19048283716E+03  0.12500374010E+03 0.  0.
          2    1    1    2  501    0 -0.14403991213E+02  0.55753168508E+02 -0.15916751625E+04  0.15927164574E+04  0.00000000000E+00 0. -1.
          1    1    1    2  502    0 -0.17001438089E+02  0.11986600144E+02  0.14136557796E+04  0.14138088240E+04  0.00000000000E+00 0. -1.
         22    1    3    3    0    0 -0.43910165682E+02 -0.51076604057E+02 -0.69033398208E+02  0.96449635563E+02  0.00000000000E+00 0.  1.
         22    1    3    3    0    0  0.75315594985E+02 -0.16663164595E+02 -0.53778649119E+02  0.94033201601E+02  0.00000000000E+00 0.  1.
</event>
<event>
 7    1  0.6294601E-006  0.1337750E+03  0.7818608E-02  0.1356260E+00
          2   -1    0    0  502    0  0.00000000000E+00  0.00000000000E+00  0.31464963840E+04  0.31464963840E+04  0.00000000000E+00 0. -1.
          1   -1    0    0  501    0 -0.00000000000E+00 -0.00000000000E+00 -0.31142903973E+03  0.31142903973E+03  0.00000000000E+00 0. -1.
         25    2    1    2    0    0 -0.66303741724E+02 -0.89719656513E+02  0.10584943617E+04  0.10716674770E+04  0.12496025220E+03 0.  0.
          2    1    1    2  501    0  0.10382831726E+03  0.84914940884E+02 -0.28990673849E+03  0.31943197033E+03  0.00000000000E+00 0. -1.
          1    1    1    2  502    0 -0.37524575533E+02  0.48047156290E+01  0.20664797211E+04  0.20668259764E+04  0.00000000000E+00 0. -1.
         22    1    3    3    0    0  0.36509357736E+02 -0.29206531352E+02  0.36567302357E+03  0.36864985398E+03  0.00000000000E+00 0.  1.
         22    1    3    3    0    0 -0.10281309946E+03 -0.60513125161E+02  0.69282133812E+03  0.70301762303E+03  0.00000000000E+00 0.  1.
</event>
<event>
 7    1  0.6294601E-006  0.6867780E+02  0.7818608E-02  0.1475187E+00
          2   -1    0    0  502    0  0.00000000000E+00  0.00000000000E+00  0.49148526458E+03  0.49148526458E+03  0.00000000000E+00 0. -1.
          1   -1    0    0  501    0 -0.00000000000E+00 -0.00000000000E+00 -0.44089036323E+03  0.44089036323E+03  0.00000000000E+00 0. -1.
         25    2    1    2    0    0 -0.71182153955E+01  0.40383568302E+02 -0.15850297365E+03  0.20598391692E+03  0.12499871916E+03 0.  0.
          2    1    1    2  501    0 -0.15476568746E+02  0.24889208764E+02 -0.25525374273E+03  0.25693086632E+03  0.00000000000E+00 0. -1.
          1    1    1    2  502    0  0.22594784142E+02 -0.65272777066E+02  0.46435161774E+03  0.46946084458E+03  0.00000000000E+00 0. -1.
         22    1    3    3    0    0 -0.63814494067E+02  0.13465978166E+02 -0.10452359030E+03  0.12320228549E+03  0.00000000000E+00 0.  1.
         22    1    3    3    0    0  0.56696278671E+02  0.26917590136E+02 -0.53979383350E+02  0.82781631421E+02  0.00000000000E+00 0.  1.
</event>
<event>
 7    1  0.6294601E-006  0.1809704E+03  0.7818608E-02  0.1239577E+00
          2   -1    0    0  502    0  0.00000000000E+00  0.00000000000E+00  0.92712169319E+02  0.92712169319E+02  0.00000000000E+00 0. -1.
          1   -1    0    0  501    0 -0.00000000000E+00 -0.00000000000E+00 -0.11535399266E+04  0.11535399266E+04  0.00000000000E+00 0. -1.
         25    2    1    2    0    0 -0.18783900550E+03  0.16831933678E+03 -0.23197638029E+03  0.36476380347E+03  0.12499880075E+03 0.  0.
          2    1    1    2  501    0  0.12025284427E+03 -0.12107755484E+03 -0.74341361414E+03  0.76274787612E+03  0.00000000000E+00 0. -1.
          1    1    1    2  502    0  0.67586161227E+02 -0.47241781949E+02 -0.85437762897E+02  0.11874041637E+03  0.00000000000E+00 0. -1.
         22    1    3    3    0    0 -0.42026936076E+02  0.19288949178E+02  0.79304363036E+01  0.46917147572E+02  0.00000000000E+00 0.  1.
         22    1    3    3    0    0 -0.14581206942E+03  0.14903038761E+03 -0.23990681660E+03  0.31784665590E+03  0.00000000000E+00 0.  1.
</event>
<event>
 7    1  0.6294601E-006  0.5904329E+02  0.7818608E-02  0.1533790E+00
          2   -1    0    0  502    0  0.00000000000E+00  0.00000000000E+00  0.38248359007E+02  0.38248359007E+02  0.00000000000E+00 0. -1.
          1   -1    0    0  501    0 -0.00000000000E+00 -0.00000000000E+00 -0.11525193831E+04  0.11525193831E+04  0.00000000000E+00 0. -1.
         25    2    1    2    0    0  0.43783473124E+02  0.77974269257E+01 -0.33821316669E+03  0.36330567362E+03  0.12500029590E+03 0.  0.
          2    1    1    2  501    0 -0.53444279449E+02 -0.28497708245E+02 -0.79529462189E+03  0.79759760907E+03  0.00000000000E+00 0. -1.
          1    1    1    2  502    0  0.96608063243E+01  0.20700281320E+02  0.19236764518E+02  0.29864459391E+02  0.00000000000E+00 0. -1.
         22    1    3    3    0    0  0.28531928367E+02 -0.58220768719E+02 -0.15897793904E+03  0.17169075091E+03  0.00000000000E+00 0. -1.
         22    1    3    3    0    0  0.15251544757E+02  0.66018195645E+02 -0.17923522765E+03  0.19161492271E+03  0.00000000000E+00 0. -1.
</event>
<event>
 7    1  0.6294601E-006  0.5949169E+02  0.7818608E-02  0.1517802E+00
          2   -1    0    0  502    0  0.00000000000E+00  0.00000000000E+00  0.16732225658E+03  0.16732225658E+03  0.00000000000E+00 0. -1.
          1   -1    0    0  501    0 -0.00000000000E+00 -0.00000000000E+00 -0.64858657074E+03  0.64858657074E+03  0.00000000000E+00 0. -1.
         25    2    1    2    0    0  0.65783694309E+02  0.18319843235E+02 -0.88513188950E+02  0.16769767478E+03  0.12499925766E+03 0.  0.
          2    1    1    2  501    0 -0.68270105486E+01 -0.24266515314E+02 -0.51328271553E+03  0.51390136982E+03  0.00000000000E+00 0. -1.
          1    1    1    2  502    0 -0.58956683761E+02  0.59466720792E+01  0.12053159032E+03  0.13430978272E+03  0.00000000000E+00 0. -1.
         22    1    3    3    0    0  0.13581464546E+02  0.44043479826E+02  0.15402791494E+02  0.48595578813E+02  0.00000000000E+00 0. -1.
         22    1    3    3    0    0  0.52202229764E+02 -0.25723636591E+02 -0.10391598044E+03  0.11910209597E+03  0.00000000000E+00 0. -1.
</event>
<event>
 7    1  0.6294601E-006  0.1341079E+03  0.7818608E-02  0.1373032E+00
          2   -1    0    0  502    0  0.00000000000E+00  0.00000000000E+00  0.32797119222E+04  0.32797119222E+04  0.00000000000E+00 0. -1.
          1   -1    0    0  501    0 -0.00000000000E+00 -0.00000000000E+00 -0.15631441201E+03  0.15631441201E+03  0.00000000000E+00 0. -1.
         25    2    1    2    0    0  0.31923967375E+02 -0.15082298289E+03  0.10662574312E+04  0.10845723796E+04  0.12500250059E+03 0.  0.
          2    1    1    2  501    0 -0.50424330428E+02  0.12372824137E+03 -0.11668066263E+03  0.17738564723E+03  0.00000000000E+00 0. -1.
          1    1    1    2  502    0  0.18500363053E+02  0.27094741521E+02  0.21738207416E+04  0.21740683074E+04  0.00000000000E+00 0. -1.
         22    1    3    3    0    0  0.26268476909E+02  0.16514713932E+02  0.17130934822E+03  0.17409670141E+03  0.00000000000E+00 0.  1.
         22    1    3    3    0    0  0.56554904657E+01 -0.16733769682E+03  0.89494808295E+03  0.91047567816E+03  0.00000000000E+00 0.  1.
</event>
<event>
 7    1  0.6294601E-006  0.5428062E+02  0.7818608E-02  0.1488079E+00
          2   -1    0    0  502    0  0.00000000000E+00  0.00000000000E+00  0.62639485921E+02  0.62639485921E+02  0.00000000000E+00 0. -1.
          1   -1    0    0  501    0 -0.00000000000E+00 -0.00000000000E+00 -0.13812679574E+04  0.13812679574E+04  0.00000000000E+00 0. -1.
         25    2    1    2    0    0 -0.14177088732E+02 -0.77135445736E+02 -0.30156800835E+03  0.33573708818E+03  0.12500104754E+03 0.  0.
          2    1    1    2  501    0  0.27397326546E+02  0.45960986131E+02 -0.10555502178E+04  0.10569055247E+04  0.00000000000E+00 0. -1.
          1    1    1    2  502    0 -0.13220237814E+02  0.31174459606E+02  0.38489754730E+02  0.51264830427E+02  0.00000000000E+00 0. -1.
         22    1    3    3    0    0  0.49535295149E+01 -0.87400296622E+02 -0.99588819149E+02  0.13259442750E+03  0.00000000000E+00 0. -1.
         22    1    3    3    0    0 -0.19130618247E+02  0.10264850886E+02 -0.20197918920E+03  0.20314266068E+03  0.00000000000E+00 0. -1.
</event>
<event>
 7    1  0.6294601E-006  0.1662402E+03  0.7818608E-02  0.1304123E+00
          2   -1    0    0  502    0  0.00000000000E+00  0.00000000000E+00  0.10491640908E+04  0.10491640908E+04  0.00000000000E+00 0. -1.
          1   -1    0    0  501    0 -0.00000000000E+00 -0.00000000000E+00 -0.31863493392E+03  0.31863493392E+03  0.00000000000E+00 0. -1.
         25    2    1    2    0    0 -0.13282891746E+03  0.66205647175E+02 -0.17115295625E+03  0.25872259198E+03  0.12496934079E+03 0.  0.
          2    1    1    2  501    0 -0.31500657810E+02 -0.36429675856E+02 -0.90724994595E+02  0.10271532198E+03  0.00000000000E+00 0. -1.
          1    1    1    2  502    0  0.16432957527E+03 -0.29775971319E+02  0.99240710770E+03  0.10063611107E+04  0.00000000000E+00 0. -1.
         22    1    3    3    0    0 -0.51382356765E+02  0.33955662415E+02  0.52040524621E+01  0.61807893984E+02  0.00000000000E+00 0.  1.
         22    1    3    3    0    0 -0.81446560697E+02  0.32249984760E+02 -0.17635700871E+03  0.19691469800E+03  0.00000000000E+00 0.  1.
</event>
<event>
 7    1  0.6294601E-006  0.6616380E+02  0.7818608E-02  0.1409576E+00
          2   -1    0    0  502    0  0.00000000000E+00  0.00000000000E+00  0.12075156845E+04  0.12075156845E+04  0.00000000000E+00 0. -1.
          1   -1    0    0  501    0 -0.00000000000E+00 -0.00000000000E+00 -0.20680213152E+04  0.20680213152E+04  0.00000000000E+00 0. -1.
         25    2    1    2    0    0  0.16375392518E+02  0.88331940746E+01  0.11756825207E+03  0.17261338680E+03  0.12500763420E+03 0.  0.
          2    1    1    2  501    0  0.39566106260E+02  0.29917336449E+02 -0.20391070791E+04  0.20397103235E+04  0.00000000000E+00 0. -1.
          1    1    1    2  502    0 -0.55941498778E+02 -0.38750530523E+02  0.10610331963E+04  0.10632132893E+04  0.00000000000E+00 0. -1.
         22    1    3    3    0    0  0.69623364126E+02  0.90888956830E+01  0.84776988594E+02  0.11007796624E+03  0.00000000000E+00 0.  1.
         22    1    3    3    0    0 -0.53247971608E+02 -0.25570160836E+00  0.32791263474E+02  0.62535420554E+02  0.00000000000E+00 0.  1.
</event>
<event>
 7    1  0.6294601E-006  0.8531865E+02  0.7818608E-02  0.1321868E+00
          2   -1    0    0  502    0  0.00000000000E+00  0.00000000000E+00  0.18644389189E+04  0.18644389189E+04  0.00000000000E+00 0. -1.
          1   -1    0    0  501    0 -0.00000000000E+00 -0.00000000000E+00 -0.35804518580E+03  0.35804518580E+03  0.00000000000E+00 0. -1.
         25    2    1    2    0    0  0.59178364540E+02  0.37266863385E+02  0.27796700857E+03  0.31269089468E+03  0.12497615704E+03 0.  0.
          2    1    1    2  501    0  0.20037950263E+02 -0.77389344428E+02 -0.33471619296E+03  0.34413014967E+03  0.00000000000E+00 0. -1.
          1    1    1    2  502    0 -0.79216314804E+02  0.40122481044E+02  0.15631429175E+04  0.15656630603E+04  0.00000000000E+00 0. -1.
         22    1    3    3    0    0  0.18088648862E+02 -0.13288558310E+02 -0.44287285403E+01  0.22877907162E+02  0.00000000000E+00 0.  1.
         22    1    3    3    0    0  0.41089715678E+02  0.50555421695E+02  0.28239573711E+03  0.28981298752E+03  0.00000000000E+00 0.  1.
</event>
<event>
 7    1  0.6294601E-006  0.8153166E+02  0.7818608E-02  0.1421821E+00
          2   -1    0    0  502    0  0.00000000000E+00  0.00000000000E+00  0.52145966038E+02  0.52145966038E+02  0.00000000000E+00 0. -1.
          1   -1    0    0  501    0 -0.00000000000E+00 -0.00000000000E+00 -0.17025166778E+04  0.17025166778E+04  0.00000000000E+00 0. -1.
         25    2    1    2    0    0  0.10631336451E+03  0.23148865147E+02 -0.69161789570E+03  0.71119529479E+03  0.12500012897E+03 0.  0.
          2    1    1    2  501    0 -0.26143100582E+02 -0.25635356088E+02 -0.96247597180E+03  0.96317217022E+03  0.00000000000E+00 0. -1.
          1    1    1    2  502    0 -0.80170263930E+02  0.24864909407E+01  0.37231557337E+01  0.80295178837E+02  0.00000000000E+00 0. -1.
         22    1    3    3    0    0  0.87361236061E+02  0.67226700606E+02 -0.37175832447E+03  0.38775722644E+03  0.00000000000E+00 0.  1.
         22    1    3    3    0    0  0.18952128451E+02 -0.44077835459E+02 -0.31985957122E+03  0.32343806835E+03  0.00000000000E+00 0.  1.
</event>
<event>
 7    1  0.6294601E-006  0.9920324E+02  0.7818608E-02  0.1320777E+00
          2   -1    0    0  502    0  0.00000000000E+00  0.00000000000E+00  0.75078410699E+03  0.75078410699E+03  0.00000000000E+00 0. -1.
          1   -1    0    0  501    0 -0.00000000000E+00 -0.00000000000E+00 -0.17428524237E+04  0.17428524237E+04  0.00000000000E+00 0. -1.
         25    2    1    2    0    0 -0.13942720005E+02  0.47164953062E+02  0.51238101126E+02  0.14376652627E+03  0.12499815531E+03 0.  0.
          2    1    1    2  501    0 -0.66713235162E+02  0.19212238766E+02 -0.16916961094E+04  0.16931200467E+04  0.00000000000E+00 0. -1.
          1    1    1    2  502    0  0.80655955167E+02 -0.66377191828E+02  0.64838969164E+03  0.65674995769E+03  0.00000000000E+00 0. -1.
         22    1    3    3    0    0  0.35164104329E+02  0.67128210813E+02  0.96551352617E+01  0.76393275601E+02  0.00000000000E+00 0. -1.
         22    1    3    3    0    0 -0.49106824334E+02 -0.19963257750E+02  0.41582965864E+02  0.67373250673E+02  0.00000000000E+00 0. -1.
</event>
<event>
 7    1  0.6294601E-006  0.8383478E+02  0.7818608E-02  0.1427579E+00
          2   -1    0    0  502    0  0.00000000000E+00  0.00000000000E+00  0.12981397622E+03  0.12981397622E+03  0.00000000000E+00 0. -1.
          1   -1    0    0  501    0 -0.00000000000E+00 -0.00000000000E+00 -0.25899669530E+04  0.25899669530E+04  0.00000000000E+00 0. -1.
         25    2    1    2    0    0 -0.53242330176E+01  0.51998673095E+02 -0.73592814904E+02  0.15418823934E+03  0.12500360509E+03 0.  0.
          2    1    1    2  501    0  0.22729781471E+02 -0.81294651361E+02 -0.24720867270E+04  0.24735274911E+04  0.00000000000E+00 0. -1.
          1    1    1    2  502    0 -0.17405548453E+02  0.29295978266E+02  0.85526565199E+02  0.92065198714E+02  0.00000000000E+00 0. -1.
         22    1    3    3    0    0 -0.19698933814E+02  0.90406180018E+02 -0.62655505492E+02  0.11174541488E+03  0.00000000000E+00 0.  1.
         22    1    3    3    0    0  0.14374700796E+02 -0.38407506923E+02 -0.10937309412E+02  0.42442824461E+02  0.00000000000E+00 0.  1.
</event>
<event>
 7    1  0.6294601E-006  0.6909979E+02  0.7818608E-02  0.1442357E+00
          2   -1    0    0  502    0  0.00000000000E+00  0.00000000000E+00  0.17510972431E+02  0.17510972431E+02  0.00000000000E+00 0. -1.
          1   -1    0    0  501    0 -0.00000000000E+00 -0.00000000000E+00 -0.25667756519E+04  0.25667756519E+04  0.00000000000E+00 0. -1.
         25    2    1    2    0    0 -0.36349425510E+02 -0.20818567008E+01 -0.93140250117E+03  0.94045829591E+03  0.12500228923E+03 0.  0.
          2    1    1    2  501    0 -0.36195265557E+02  0.76318050873E+01 -0.15269002345E+04  0.15273482471E+04  0.00000000000E+00 0. -1.
          1    1    1    2  502    0  0.72544691066E+02 -0.55499483866E+01 -0.90961943756E+02  0.11648008131E+03  0.00000000000E+00 0. -1.
         22    1    3    3    0    0  0.41793737841E+02 -0.25723413803E+01 -0.17104712112E+03  0.17609784526E+03  0.00000000000E+00 0. -1.
         22    1    3    3    0    0 -0.78143163351E+02  0.49048467950E+00 -0.76035538005E+03  0.76436045065E+03  0.00000000000E+00 0. -1.
</event>
<event>
 7    1  0.6294601E-006  0.5001367E+02  0.7818608E-02  0.1488419E+00
          2   -1    0    0  502    0  0.00000000000E+00  0.00000000000E+00  0.30984019699E+02  0.30984019699E+02  0.00000000000E+00 0. -1.
          1   -1    0    0  501    0 -0.00000000000E+00 -0.00000000000E+00 -0.86303890569E+03  0.86303890569E+03  0.00000000000E+00 0. -1.
         25    2    1    2    0    0  0.26214176949E+01 -0.25146941350E+02 -0.19577432071E+03  0.23365103935E+03  0.12500393214E+03 0.  0.
          2    1    1    2  501    0  0.23495022894E+02 -0.28145948044E+02 -0.57088534623E+03  0.57206143817E+03  0.00000000000E+00 0. -1.
          1    1    1    2  502    0 -0.26116440589E+02  0.53292889394E+02 -0.65395219046E+02  0.88310447871E+02  0.00000000000E+00 0. -1.
         22    1    3    3    0    0 -0.54492574512E+02 -0.11725511182E+02 -0.14747699558E+03  0.15765910223E+03  0.00000000000E+00 0. -1.
         22    1    3    3    0    0  0.57113992207E+02 -0.13421430168E+02 -0.48297325132E+02  0.75991937128E+02  0.00000000000E+00 0. -1.
</event>
<event>
 7    1  0.6294601E-006  0.7280443E+02  0.7818608E-02  0.1400838E+00
          2   -1    0    0  502    0  0.00000000000E+00  0.00000000000E+00  0.15184322988E+04  0.15184322988E+04  0.00000000000E+00 0. -1.
          1   -1    0    0  501    0 -0.00000000000E+00 -0.00000000000E+00 -0.40473358748E+03  0.40473358748E+03  0.00000000000E+00 0. -1.
         25    2    1    2    0    0 -0.29916706082E+02 -0.30506676999E+02 -0.97276477963E+02  0.16405614939E+03  0.12500416130E+03 0.  0.
          2    1    1    2  501    0  0.76716802387E+02  0.18631524956E+02 -0.26797983658E+03  0.27936677380E+03  0.00000000000E+00 0. -1.
          1    1    1    2  502    0 -0.46800096305E+02  0.11875152043E+02  0.14789550259E+04  0.14797429631E+04  0.00000000000E+00 0. -1.
         22    1    3    3    0    0  0.93283545794E+01 -0.67265692991E+02 -0.21679506869E+02  0.71285992108E+02  0.00000000000E+00 0.  1.
         22    1    3    3    0    0 -0.39245060662E+02  0.36759015992E+02 -0.75596971094E+02  0.92770157279E+02  0.00000000000E+00 0.  1.
</event>
<event>
 7    1  0.6294601E-006  0.1183373E+03  0.7818608E-02  0.1314261E+00
          2   -1    0    0  502    0  0.00000000000E+00  0.00000000000E+00  0.23264445269E+04  0.23264445269E+04  0.00000000000E+00 0. -1.
          1   -1    0    0  501    0 -0.00000000000E+00 -0.00000000000E+00 -0.36868695727E+03  0.36868695727E+03  0.00000000000E+00 0. -1.
         25    2    1    2    0    0 -0.12722517221E+03 -0.10285552945E+03 -0.50312869140E+02  0.21194748930E+03  0.12499939616E+03 0.  0.
          2    1    1    2  501    0  0.61499566482E+02  0.49908790592E+01 -0.23197400434E+03  0.24003967223E+03  0.00000000000E+00 0. -1.
          1    1    1    2  502    0  0.65725605724E+02  0.97864650390E+02  0.22400444432E+04  0.22431443227E+04  0.00000000000E+00 0. -1.
         22    1    3    3    0    0 -0.77043876896E+02 -0.71494830524E+02 -0.91903185840E+02  0.13961900059E+03  0.00000000000E+00 0.  1.
         22    1    3    3    0    0 -0.50181295310E+02 -0.31360698925E+02  0.41590316700E+02  0.72328488712E+02  0.00000000000E+00 0.  1.
</event>
<event>
 7    1  0.6294601E-006  0.3876342E+02  0.7818608E-02  0.1531120E+00
          2   -1    0    0  502    0  0.00000000000E+00  0.00000000000E+00  0.14109639215E+03  0.14109639215E+03  0.00000000000E+00 0. -1.
          1   -1    0    0  501    0 -0.00000000000E+00 -0.00000000000E+00 -0.82579907585E+03  0.82579907585E+03  0.00000000000E+00 0. -1.
         25    2    1    2    0    0  0.37029859458E+02  0.40668642445E+02 -0.35805327631E+03  0.38321311128E+03  0.12499996403E+03 0.  0.
          2    1    1    2  501    0 -0.35356290281E+02 -0.19698440021E+01 -0.45153816571E+03  0.45292456617E+03  0.00000000000E+00 0. -1.
          1    1    1    2  502    0 -0.16735691774E+01 -0.38698798443E+02  0.12488875832E+03  0.13075779055E+03  0.00000000000E+00 0. -1.
         22    1    3    3    0    0  0.26343368643E+02 -0.37224393846E+02 -0.21688245614E+03  0.22162497230E+03  0.00000000000E+00 0.  1.
         22    1    3    3    0    0  0.10686490816E+02  0.77893036291E+02 -0.14117082017E+03  0.16158813897E+03  0.00000000000E+00 0.  1.
</event>
<event>
 7    1  0.6294601E-006  0.5453085E+02  0.7818608E-02  0.1457562E+00
          2   -1    0    0  502    0  0.00000000000E+00  0.00000000000E+00  0.10145003725E+04  0.10145003725E+04  0.00000000000E+00 0. -1.
          1   -1    0    0  501    0 -0.00000000000E+00 -0.00000000000E+00 -0.24602985264E+02  0.24602985264E+02  0.00000000000E+00 0. -1.
         25    2    1    2    0    0 -0.17856788133E+02 -0.63240636296E+02  0.27337031671E+03  0.30769239788E+03  0.12500015477E+03 0.  0.
          2    1    1    2  501    0 -0.21807681252E+02  0.49718289411E+02  0.10280505924E+03  0.11625989622E+03  0.00000000000E+00 0. -1.
          1    1    1    2  502    0  0.39664469385E+02  0.13522346885E+02  0.61372201133E+03  0.61515106371E+03  0.00000000000E+00 0. -1.
         22    1    3    3    0    0 -0.53545604203E+02 -0.29895439831E+02  0.50236043593E+02  0.79275022094E+02  0.00000000000E+00 0. -1.
         22    1    3    3    0    0  0.35688816070E+02 -0.33345196464E+02  0.22313427312E+03  0.22841737578E+03  0.00000000000E+00 0. -1.
</event>
<event>
 7    1  0.6294601E-006  0.5558811E+02  0.7818608E-02  0.1536078E+00
          2   -1    0    0  502    0  0.00000000000E+00  0.00000000000E+00  0.70859216354E+03  0.70859216354E+03  0.00000000000E+00 0. -1.
          1   -1    0    0  501    0 -0.00000000000E+00 -0.00000000000E+00 -0.28950701974E+03  0.28950701974E+03  0.00000000000E+00 0. -1.
         25    2    1    2    0    0 -0.31670006413E+02  0.72514545617E+02  0.21301868202E+03  0.25935197725E+03  0.12500056233E+03 0.  0.
          2    1    1    2  501    0  0.23582424474E+02 -0.50021864508E+02 -0.26316220310E+03  0.26891013892E+03  0.00000000000E+00 0. -1.
          1    1    1    2  502    0  0.80875819386E+01 -0.22492681109E+02  0.46922866488E+03  0.46983706711E+03  0.00000000000E+00 0. -1.
         22    1    3    3    0    0 -0.55355003816E+02 -0.10684868909E+02  0.11847735869E+03  0.13120681154E+03  0.00000000000E+00 0.  1.
         22    1    3    3    0    0  0.23684997403E+02  0.83199414525E+02  0.94541323325E+02  0.12814516571E+03  0.00000000000E+00 0.  1.
</event>
<event>
 7    1  0.6294601E-006  0.7161342E+02  0.7818608E-02  0.1396414E+00
          2   -1    0    0  502    0  0.00000000000E+00  0.00000000000E+00  0.27166287753E+03  0.27166287753E+03  0.00000000000E+00 0. -1.
          1   -1    0    0  501    0 -0.00000000000E+00 -0.00000000000E+00 -0.17514831386E+04  0.17514831386E+04  0.00000000000E+00 0. -1.
         25    2    1    2    0    0  0.76717873242E+02  0.15632962321E+02  0.52831184672E+02  0.15667003116E+03  0.12499737199E+03 0.  0.
          2    1    1    2  501    0 -0.45277678285E+02 -0.55585358556E+02 -0.16949169636E+04  0.16964325255E+04  0.00000000000E+00 0. -1.
          1    1    1    2  502    0 -0.31440194957E+02  0.39952396235E+02  0.16226551783E+03  0.17004345944E+03  0.00000000000E+00 0. -1.
         22    1    3    3    0    0  0.62402233675E+02 -0.48745502314E+02  0.14851811666E+02  0.80565123181E+02  0.00000000000E+00 0.  1.
         22    1    3    3    0    0  0.14315639567E+02  0.64378464635E+02  0.37979373006E+02  0.76104907981E+02  0.00000000000E+00 0.  1.
</event>
<event>
 7    1  0.6294601E-006  0.1015285E+03  0.7818608E-02  0.1279118E+00
          2   -1    0    0  502    0  0.00000000000E+00  0.00000000000E+00  0.10618794044E+04  0.10618794044E+04  0.00000000000E+00 0. -1.
          1   -1    0    0  501    0 -0.00000000000E+00 -0.00000000000E+00 -0.21896709912E+03  0.21896709912E+03  0.00000000000E+00 0. -1.
         25    2    1    2    0    0 -0.66388597420E+02  0.21426645582E+02  0.50747782578E+03  0.52728120062E+03  0.12500069544E+03 0.  0.
          2    1    1    2  501    0 -0.66792788139E+02 -0.73891392474E+02 -0.18700140733E+03  0.21187435138E+03  0.00000000000E+00 0. -1.
          1    1    1    2  502    0  0.13318138556E+03  0.52464746891E+02  0.52243588677E+03  0.54169095148E+03  0.00000000000E+00 0. -1.
         22    1    3    3    0    0  0.33563902596E+02  0.84466354177E+01  0.21864053466E+03  0.22136297027E+03  0.00000000000E+00 0. -1.
         22    1    3    3    0    0 -0.99952500016E+02  0.12980010165E+02  0.28883729112E+03  0.30591823036E+03  0.00000000000E+00 0. -1.
</event>
<event>
 7    1  0.6294601E-006  0.1993577E+03  0.7818608E-02  0.1241082E+00
          2   -1    0    0  502    0  0.00000000000E+00  0.00000000000E+00  0.43573082119E+03  0.43573082119E+03  0.00000000000E+00 0. -1.
          1   -1    0    0  501    0 -0.00000000000E+00 -0.00000000000E+00 -0.18514664835E+04  0.18514664835E+04  0.00000000000E+00 0. -1.
         25    2    1    2    0    0 -0.19091670295E+03 -0.29325684971E+02 -0.47302647869E+03  0.52600826051E+03  0.12498582850E+03 0.  0.
          2    1    1    2  501    0  0.17863295364E+02 -0.71523380169E+02 -0.13263564501E+04  0.13284035998E+04  0.00000000000E+00 0. -1.
          1    1    1    2  502    0  0.17305340758E+03  0.10084906514E+03  0.38364726646E+03  0.43278544439E+03  0.00000000000E+00 0. -1.
         22    1    3    3    0    0 -0.20456213519E+03 -0.37516069203E+02 -0.39532168197E+03  0.44669044632E+03  0.00000000000E+00 0.  1.
         22    1    3    3    0    0  0.13645432241E+02  0.81903842321E+01 -0.77704796719E+02  0.79317814191E+02  0.00000000000E+00 0.  1.
</event>
<event>
 7    1  0.6294601E-006  0.6072607E+02  0.7818608E-02  0.1420054E+00
          2   -1    0    0  502    0  0.00000000000E+00  0.00000000000E+00  0.48649447508E+03  0.48649447508E+03  0.00000000000E+00 0. -1.
          1   -1    0    0  501    0 -0.00000000000E+00 -0.00000000000E+00 -0.84255158571E+03  0.84255158571E+03  0.00000000000E+00 0. -1.
         25    2    1    2    0    0 -0.23988530333E+02 -0.56478698195E+02  0.44194694348E+02  0.14609182911E+03  0.12499743432E+03 0.  0.
          2    1    1    2  501    0 -0.25826906219E+02  0.55226727277E+02 -0.78883571790E+03  0.79118822686E+03  0.00000000000E+00 0. -1.
          1    1    1    2  502    0  0.49815436552E+02  0.12519709183E+01  0.38858391292E+03  0.39176600482E+03  0.00000000000E+00 0. -1.
         22    1    3    3    0    0  0.33748023774E+02 -0.38765586218E+02 -0.22509224743E+02  0.56110293013E+02  0.00000000000E+00 0.  1.
         22    1    3    3    0    0 -0.57736554107E+02 -0.17713111977E+02  0.66703919091E+02  0.89981536096E+02  0.00000000000E+00 0.  1.
</event>
<event>
 7    1  0.6294601E-006  0.6350318E+02  0.7818608E-02  0.1482115E+00
          2   -1    0    0  502    0  0.00000000000E+00  0.00000000000E+00  0.24170857117E+03  0.24170857117E+03  0.00000000000E+00 0. -1.
          1   -1    0    0  501    0 -0.00000000000E+00 -0.00000000000E+00 -0.15682928092E+04  0.15682928092E+04  0.00000000000E+00 0. -1.
         25    2    1    2    0    0 -0.27307370445E+01 -0.37091362041E+02 -0.50829519702E+02  0.13997233696E+03  0.12500155590E+03 0.  0.
          2    1    1    2  501    0  0.13321349740E+02 -0.27081241825E+02 -0.14673678410E+04  0.14676781775E+04  0.00000000000E+00 0. -1.
          1    1    1    2  502    0 -0.10590612695E+02  0.64172603866E+02  0.19161312264E+03  0.20235086590E+03  0.00000000000E+00 0. -1.
         22    1    3    3    0    0 -0.11636810885E+02  0.38448290840E+02 -0.49695631740E+02  0.63901034813E+02  0.00000000000E+00 0.  1.
         22    1    3    3    0    0  0.89060738410E+01 -0.75539652882E+02 -0.11338879621E+01  0.76071302149E+02  0.00000000000E+00 0.  1.
</event>
<event>
 7    1  0.6294601E-006  0.2171090E+03  0.7818608E-02  0.1290948E+00
          2   -1    0    0  502    0  0.00000000000E+00  0.00000000000E+00  0.19143586320E+04  0.19143586320E+04  0.00000000000E+00 0. -1.
          1   -1    0    0  501    0 -0.00000000000E+00 -0.00000000000E+00 -0.22261704506E+03  0.22261704506E+03  0.00000000000E+00 0. -1.
         25    2    1    2    0    0  0.11992111170E+03  0.14363943421E+03  0.34004484448E+03  0.40775994566E+03  0.12499726771E+03 0.  0.
          2    1    1    2  501    0  0.79786530411E+01  0.40886632209E+02 -0.17816329706E+03  0.18296867496E+03  0.00000000000E+00 0. -1.
          1    1    1    2  502    0 -0.12789976474E+03 -0.18452606642E+03  0.15298600395E+04  0.15462470564E+04  0.00000000000E+00 0. -1.
         22    1    3    3    0    0 -0.10066354686E+02  0.75064920221E+02  0.89033369055E+02  0.11688889832E+03  0.00000000000E+00 0. -1.
         22    1    3    3    0    0  0.12998746638E+03  0.68574513990E+02  0.25101147543E+03  0.29087104734E+03  0.00000000000E+00 0. -1.
</event>
<event>
 7    1  0.6294601E-006  0.9929930E+02  0.7818608E-02  0.1285278E+00
          2   -1    0    0  502    0  0.00000000000E+00  0.00000000000E+00  0.26636833104E+04  0.26636833104E+04  0.00000000000E+00 0. -1.
          1   -1    0    0  501    0 -0.00000000000E+00 -0.00000000000E+00 -0.44703977562E+02  0.44703977562E+02  0.00000000000E+00 0. -1.
         25    2    1    2    0    0 -0.18219962371E+02  0.22632593049E+02  0.32897296180E+03  0.35311744004E+03  0.12499806225E+03 0.  0.
          2    1    1    2  501    0  0.90692334666E+02 -0.85687246911E+02  0.91644083481E+02  0.15480969571E+03  0.00000000000E+00 0. -1.
          1    1    1    2  502    0 -0.72472372295E+02  0.63054653862E+02  0.21983622876E+04  0.22004601522E+04  0.00000000000E+00 0. -1.
         22    1    3    3    0    0 -0.27198387078E+02  0.72492853390E+02  0.18814711597E+03  0.20345590013E+03  0.00000000000E+00 0.  1.
         22    1    3    3    0    0  0.89784247076E+01 -0.49860260341E+02  0.14082584584E+03  0.14966153991E+03  0.00000000000E+00 0.  1.
</event>
<event>
 7    1  0.6294601E-006  0.6319216E+02  0.7818608E-02  0.1435417E+00
          2   -1    0    0  502    0  0.00000000000E+00  0.00000000000E+00  0.94428718772E+03  0.94428718772E+03  0.00000000000E+00 0. -1.
          1   -1    0    0  501    0 -0.00000000000E+00 -0.00000000000E+00 -0.13875542985E+03  0.13875542985E+03  0.00000000000E+00 0. -1.
         25    2    1    2    0    0 -0.34295215698E+02 -0.20852281961E+02 -0.20163852220E+01  0.13130289650E+03  0.12500162133E+03 0.  0.
          2    1    1    2  501    0 -0.28554000669E+02  0.31621697910E+02 -0.64533818874E+02  0.77329661265E+02  0.00000000000E+00 0. -1.
          1    1    1    2  502    0  0.62849216367E+02 -0.10769415948E+02  0.87208196196E+03  0.87441005981E+03  0.00000000000E+00 0. -1.
         22    1    3    3    0    0  0.22115439937E+02 -0.54376645845E+02  0.20112307063E+02  0.62051729971E+02  0.00000000000E+00 0. -1.
         22    1    3    3    0    0 -0.56410655635E+02  0.33524363883E+02 -0.22128692285E+02  0.69251166526E+02  0.00000000000E+00 0. -1.
</event>
<event>
 7    1  0.6294601E-006  0.1264091E+03  0.7818608E-02  0.1299820E+00
          2   -1    0    0  502    0  0.00000000000E+00  0.00000000000E+00  0.15051323498E+04  0.15051323498E+04  0.00000000000E+00 0. -1.
          1   -1    0    0  501    0 -0.00000000000E+00 -0.00000000000E+00 -0.46465772735E+03  0.46465772735E+03  0.00000000000E+00 0. -1.
         25    2    1    2    0    0 -0.15130260137E+03  0.86859165901E+02 -0.11607699449E+03  0.24397411150E+03  0.12495001621E+03 0.  0.
          2    1    1    2  501    0  0.11318827968E+03 -0.33111780931E+02 -0.27162417694E+03  0.29612103977E+03  0.00000000000E+00 0. -1.
          1    1    1    2  502    0  0.38114321686E+02 -0.53747384970E+02  0.14281757939E+04  0.14296949259E+04  0.00000000000E+00 0. -1.
         22    1    3    3    0    0  0.13461716066E+02 -0.75178126218E+01 -0.33573650854E+02  0.36944895963E+02  0.00000000000E+00 0. -1.
         22    1    3    3    0    0 -0.16476431743E+03  0.94376978523E+02 -0.82503343633E+02  0.20702921553E+03  0.00000000000E+00 0. -1.
</event>
<event>
 7    1  0.6294601E-006  0.1021534E+03  0.7818608E-02  0.1312058E+00
          2   -1    0    0  502    0  0.00000000000E+00  0.00000000000E+00  0.15313477625E+04  0.15313477625E+04  0.00000000000E+00 0. -1.
          1   -1    0    0  501    0 -0.00000000000E+00 -0.00000000000E+00 -0.22972439625E+02  0.22972439625E+02  0.00000000000E+00 0. -1.
         25    2    1    2    0    0  0.90568730230E+02 -0.40500609988E+02  0.60453638306E+03  0.62524617019E+03  0.12500216231E+03 0.  0.
          2    1    1    2  501    0 -0.10736609379E+03 -0.30451538955E+02  0.28690192133E+03  0.30784328283E+03  0.00000000000E+00 0. -1.
          1    1    1    2  502    0  0.16797363564E+02  0.70952148943E+02  0.61693701844E+03  0.62123074906E+03  0.00000000000E+00 0. -1.
         22    1    3    3    0    0  0.19441221665E+02 -0.76007754613E+02  0.34496464808E+03  0.35377358336E+03  0.00000000000E+00 0. -1.
         22    1    3    3    0    0  0.71127508565E+02  0.35507144625E+02  0.25957173498E+03  0.27147258682E+03  0.00000000000E+00 0. -1.
</event>
<event>
 7    1  0.6294601E-006  0.1489179E+03  0.7818608E-02  0.1309399E+00
          2   -1    0    0  502    0  0.00000000000E+00  0.00000000000E+00  0.70900983313E+03  0.70900983313E+03  0.00000000000E+00 0. -1.
          1   -1    0    0  501    0 -0.00000000000E+00 -0.00000000000E+00 -0.90245440854E+03  0.90245440854E+03  0.00000000000E+00 0. -1.
         25    2    1    2    0    0  0.10398219603E+03 -0.24066443169E+02 -0.19766849563E+03  0.25708593830E+03  0.12501541796E+03 0.  0.
          2    1    1    2  501    0  0.32403762400E+02 -0.39688374120E+02 -0.66573914098E+03  0.66770785130E+03  0.00000000000E+00 0. -1.
          1    1    1    2  502    0 -0.13638595843E+03  0.63754817289E+02  0.66996306119E+03  0.68667045207E+03  0.00000000000E+00 0. -1.
         22    1    3    3    0    0  0.13075717590E+03 -0.14670495019E+02 -0.13615557121E+03  0.18934360840E+03  0.00000000000E+00 0.  1.
         22    1    3    3    0    0 -0.26774979869E+02 -0.93959481502E+01 -0.61512924421E+02  0.67742329894E+02  0.00000000000E+00 0.  1.
</event>
<event>
 7    1  0.6294601E-006  0.1647004E+03  0.7818608E-02  0.1185311E+00
          2   -1    0    0  502    0  0.00000000000E+00  0.00000000000E+00  0.75121634620E+03  0.75121634620E+03  0.00000000000E+00 0. -1.
          1   -1    0    0  501    0 -0.00000000000E+00 -0.00000000000E+00 -0.18648631920E+04  0.18648631920E+04  0.00000000000E+00 0. -1.
         25    2    1    2    0    0  0.11962923665E+03  0.62527581723E+02 -0.13570284945E+03  0.22861649195E+03  0.12501753599E+03 0.  0.
          2    1    1    2  501    0  0.12812659980E+02 -0.16420129016E+03 -0.16687028539E+04  0.16768110933E+04  0.00000000000E+00 0. -1.
          1    1    1    2  502    0 -0.13244189663E+03  0.10167370843E+03  0.69075885755E+03  0.71065195296E+03  0.00000000000E+00 0. -1.
         22    1    3    3    0    0  0.79111344699E+02  0.20140567007E+02 -0.14770505857E+03  0.16876324134E+03  0.00000000000E+00 0.  1.
         22    1    3    3    0    0  0.40517891955E+02  0.42387014716E+02  0.12002209124E+02  0.59853250613E+02  0.00000000000E+00 0.  1.
</event>
<event>
 7    1  0.6294601E-006  0.5152390E+02  0.7818608E-02  0.1485961E+00
          2   -1    0    0  502    0  0.00000000000E+00  0.00000000000E+00  0.26907772712E+04  0.26907772712E+04  0.00000000000E+00 0. -1.
          1   -1    0    0  501    0 -0.00000000000E+00 -0.00000000000E+00 -0.22035528678E+04  0.22035528678E+04  0.00000000000E+00 0. -1.
         25    2    1    2    0    0  0.48806450152E+02  0.66205194863E+02  0.22192394100E+03  0.26765518232E+03  0.12499545445E+03 0.  0.
          2    1    1    2  501    0 -0.17208617185E+02 -0.48529343490E+02 -0.21802492865E+04  0.21808572134E+04  0.00000000000E+00 0. -1.
          1    1    1    2  502    0 -0.31597832967E+02 -0.17675851373E+02  0.24455497490E+04  0.24458177433E+04  0.00000000000E+00 0. -1.
         22    1    3    3    0    0 -0.22346984179E+02  0.69204752404E+02  0.14858861188E+03  0.16543053236E+03  0.00000000000E+00 0. -1.
         22    1    3    3    0    0  0.71153434331E+02 -0.29995575408E+01  0.73335329115E+02  0.10222464996E+03  0.00000000000E+00 0. -1.
</event>
<event>
 7    1  0.6294601E-006  0.7750944E+02  0.7818608E-02  0.1404325E+00
          2   -1    0    0  502    0  0.00000000000E+00  0.00000000000E+00  0.51966712433E+03  0.51966712433E+03  0.00000000000E+00 0. -1.
          1   -1    0    0  501    0 -0.00000000000E+00 -0.00000000000E+00 -0.42215406258E+03  0.42215406258E+03  0.00000000000E+00 0. -1.
         25    2    1    2    0    0  0.10569666341E+03  0.47244914023E+01 -0.22082861306E+03  0.27492759519E+03  0.12500320307E+03 0.  0.
          2    1    1    2  501    0 -0.68372149248E+02  0.18804998942E+02 -0.16601824037E+03  0.18052821086E+03  0.00000000000E+00 0. -1.
          1    1    1    2  502    0 -0.37324514158E+02 -0.23529490344E+02  0.48435991518E+03  0.48636538087E+03  0.00000000000E+00 0. -1.
         22    1    3    3    0    0  0.10303211159E+02 -0.30602159436E+02 -0.14366190573E+03  0.14724602365E+03  0.00000000000E+00 0. -1.
         22    1    3    3    0    0  0.95393452246E+02  0.35326650838E+02 -0.77166707324E+02  0.12768157154E+03  0.00000000000E+00 0. -1.
</event>
<event>
 7    1  0.6294601E-006  0.4364855E+02  0.7818608E-02  0.1593459E+00
          2   -1    0    0  502    0  0.00000000000E+00  0.00000000000E+00  0.94654768062E+03  0.94654768062E+03  0.00000000000E+00 0. -1.
          1   -1    0    0  501    0 -0.00000000000E+00 -0.00000000000E+00 -0.51166518066E+03  0.51166518066E+03  0.00000000000E+00 0. -1.
         25    2    1    2    0    0  0.58584315907E+02 -0.10624085373E+02 -0.43611388762E+02  0.14516361557E+03  0.12500211517E+03 0.  0.
          2    1    1    2  501    0 -0.15210662169E+02  0.14774413013E+02 -0.41647793260E+03  0.41701740475E+03  0.00000000000E+00 0. -1.
          1    1    1    2  502    0 -0.43373653738E+02 -0.41503276404E+01  0.89497182132E+03  0.89603184096E+03  0.00000000000E+00 0. -1.
         22    1    3    3    0    0  0.62225700671E+01 -0.55963991168E+02 -0.50397224651E+02  0.75568306440E+02  0.00000000000E+00 0.  1.
         22    1    3    3    0    0  0.52361745840E+02  0.45339905795E+02  0.67858358882E+01  0.69595309135E+02  0.00000000000E+00 0.  1.
</event>
<event>
 7    1  0.6294601E-006  0.1254666E+03  0.7818608E-02  0.1409181E+00
          2   -1    0    0  502    0  0.00000000000E+00  0.00000000000E+00  0.13575576632E+03  0.13575576632E+03  0.00000000000E+00 0. -1.
          1   -1    0    0  501    0 -0.00000000000E+00 -0.00000000000E+00 -0.91716819458E+03  0.91716819458E+03  0.00000000000E+00 0. -1.
         25    2    1    2    0    0  0.11003327044E+03  0.33991942749E+02 -0.21032699483E+03  0.27041576177E+03  0.12499786673E+03 0.  0.
          2    1    1    2  501    0  0.22977345717E+01  0.26138120145E+02 -0.63803699861E+03  0.63857630124E+03  0.00000000000E+00 0. -1.
          1    1    1    2  502    0 -0.11233100501E+03 -0.60130062894E+02  0.66951565168E+02  0.14393189789E+03  0.00000000000E+00 0. -1.
         22    1    3    3    0    0  0.45538032470E+02  0.56922031516E+02 -0.18251015587E+03  0.19652935422E+03  0.00000000000E+00 0.  1.
         22    1    3    3    0    0  0.64495237973E+02 -0.22930088767E+02 -0.27816838957E+02  0.73886407556E+02  0.00000000000E+00 0.  1.
</event>
<event>
 7    1  0.6294601E-006  0.6882653E+02  0.7818608E-02  0.1410059E+00
          2   -1    0    0  502    0  0.00000000000E+00  0.00000000000E+00  0.35236009303E+03  0.35236009303E+03  0.00000000000E+00 0. -1.
          1   -1    0    0  501    0 -0.00000000000E+00 -0.00000000000E+00 -0.18725642241E+03  0.18725642241E+03  0.00000000000E+00 0. -1.
         25    2    1    2    0    0  0.40407450683E+02  0.93477162618E+02  0.10905660083E+03  0.19464690667E+03  0.12499333619E+03 0.  0.
          2    1    1    2  501    0 -0.48696175295E+02 -0.46700567886E+02 -0.13348875918E+03  0.14957108463E+03  0.00000000000E+00 0. -1.
          1    1    1    2  502    0  0.82887246123E+01 -0.46776594732E+02  0.18953582897E+03  0.19539852413E+03  0.00000000000E+00 0. -1.
         22    1    3    3    0    0  0.28309554185E+02  0.53689531678E+02 -0.16072776487E+02  0.62787983038E+02  0.00000000000E+00 0. -1.
         22    1    3    3    0    0  0.12097896497E+02  0.39787630940E+02  0.12512937731E+03  0.13185892364E+03  0.00000000000E+00 0. -1.
</event>
<event>
 7    1  0.6294601E-006  0.8060905E+02  0.7818608E-02  0.1402033E+00
          2   -1    0    0  502    0  0.00000000000E+00  0.00000000000E+00  0.13670335409E+03  0.13670335409E+03  0.00000000000E+00 0. -1.
          1   -1    0    0  501    0 -0.00000000000E+00 -0.00000000000E+00 -0.30672317634E+03  0.30672317634E+03  0.00000000000E+00 0. -1.
         25    2    1    2    0    0 -0.39169957375E+00 -0.87498542643E+02 -0.98087783448E+02  0.18139437610E+03  0.12500623194E+03 0.  0.
          2    1    1    2  501    0 -0.39478780251E+02  0.70870789565E+02 -0.15129583200E+03  0.17167315365E+03  0.00000000000E+00 0. -1.
          1    1    1    2  502    0  0.39870479825E+02  0.16627753079E+02  0.79363793194E+02  0.90359000681E+02  0.00000000000E+00 0. -1.
         22    1    3    3    0    0  0.10193912845E+02  0.16677945875E+02 -0.70427618837E+02  0.73089802522E+02  0.00000000000E+00 0.  1.
         22    1    3    3    0    0 -0.10585612419E+02 -0.10417648852E+03 -0.27660164611E+02  0.10830457357E+03  0.00000000000E+00 0.  1.
</event>
<event>
 7    1  0.6294601E-006  0.1985544E+03  0.7818608E-02  0.1335935E+00
          2   -1    0    0  502    0  0.00000000000E+00  0.00000000000E+00  0.17771617572E+03  0.17771617572E+03  0.00000000000E+00 0. -1.
          1   -1    0    0  501    0 -0.00000000000E+00 -0.00000000000E+00 -0.18385678523E+04  0.18385678523E+04  0.00000000000E+00 0. -1.
         25    2    1    2    0    0 -0.20771580785E+03  0.32598696600E+02 -0.21369472773E+03  0.32480599480E+03  0.12499986300E+03 0.  0.
          2    1    1    2  501    0  0.20147425111E+02  0.22692791712E+02 -0.14908083159E+04  0.14911171370E+04  0.00000000000E+00 0. -1.
          1    1    1    2  502    0  0.18756838274E+03 -0.55291488312E+02  0.43651367056E+02  0.20036089621E+03  0.00000000000E+00 0. -1.
         22    1    3    3    0    0 -0.22027523339E+03  0.32609238284E+02 -0.17231344202E+03  0.28156076283E+03  0.00000000000E+00 0. -1.
         22    1    3    3    0    0  0.12559425541E+02 -0.10541683793E-01 -0.41381285712E+02  0.43245231971E+02  0.00000000000E+00 0. -1.
</event>
<event>
 7    1  0.9085495E-006  0.9001216E+02  0.7818608E-02  0.1326231E+00
          2   -1    0    0  502    0  0.00000000000E+00  0.00000000000E+00  0.91039575921E+03  0.91039575921E+03  0.00000000000E+00 0. -1.
          1   -1    0    0  501    0 -0.00000000000E+00 -0.00000000000E+00 -0.85342133129E+03  0.85342133129E+03  0.00000000000E+00 0. -1.
         25    2    1    2    0    0 -0.16054511170E+02  0.75343760851E+02 -0.24772146687E+03  0.28796614480E+03  0.12499658306E+03 0.  0.
          2    1    1    2  501    0  0.83934356282E+02 -0.48775463579E+02 -0.58004490996E+03  0.58811233586E+03  0.00000000000E+00 0. -1.
          1    1    1    2  502    0 -0.67879845112E+02 -0.26568297271E+02  0.88474080476E+03  0.88773860984E+03  0.00000000000E+00 0. -1.
         22    1    3    3    0    0 -0.39223233933E+02  0.73683877485E+00 -0.14195342784E+02  0.41719453116E+02  0.00000000000E+00 0.  1.
         22    1    3    3    0    0  0.23168722763E+02  0.74606922076E+02 -0.23352612408E+03  0.24624669169E+03  0.00000000000E+00 0.  1.
</event>
<event>
 7    1  0.6294601E-006  0.1197947E+03  0.7818608E-02  0.1286019E+00
          2   -1    0    0  502    0  0.00000000000E+00  0.00000000000E+00  0.34758279934E+03  0.34758279934E+03  0.00000000000E+00 0. -1.
          1   -1    0    0  501    0 -0.00000000000E+00 -0.00000000000E+00 -0.41850442736E+03  0.41850442736E+03  0.00000000000E+00 0. -1.
         25    2    1    2    0    0 -0.93062336555E+02 -0.35983692767E+02  0.16595508919E+03  0.23048157049E+03  0.12500095231E+03 0.  0.
          2    1    1    2  501    0 -0.58614933869E+02  0.53074557840E+02 -0.34151225005E+03  0.35054705261E+03  0.00000000000E+00 0. -1.
          1    1    1    2  502    0  0.15167727042E+03 -0.17090865073E+02  0.10463553284E+03  0.18505860359E+03  0.00000000000E+00 0. -1.
         22    1    3    3    0    0  0.18529363901E+01  0.18866533486E+02  0.10162078992E+03  0.10337390581E+03  0.00000000000E+00 0. -1.
         22    1    3    3    0    0 -0.94915272945E+02 -0.54850226253E+02  0.64334299277E+02  0.12710766468E+03  0.00000000000E+00 0. -1.
</event>
<event>
 7    1  0.6948035E-006  0.1079608E+03  0.7818608E-02  0.1309794E+00
          2   -1    0    0  502    0  0.00000000000E+00  0.00000000000E+00  0.13205455426E+04  0.13205455426E+04  0.00000000000E+00 0. -1.
          1   -1    0    0  501    0 -0.00000000000E+00 -0.00000000000E+00 -0.55047287267E+03  0.55047287267E+03  0.00000000000E+00 0. -1.
         25    2    1    2    0    0 -0.84116795200E+02 -0.30980377729E+01 -0.10241750738E+03  0.18220220759E+03  0.12499226199E+03 0.  0.
          2    1    1    2  501    0  0.95048497973E+02 -0.66469322772E+02 -0.39892933789E+03  0.41544795639E+03  0.00000000000E+00 0. -1.
          1    1    1    2  502    0 -0.10931702772E+02  0.69567360545E+02  0.12714195152E+04  0.12733682513E+04  0.00000000000E+00 0. -1.
         22    1    3    3    0    0  0.82815801323E+00 -0.44941524244E+02 -0.67870379627E+02  0.81405250922E+02  0.00000000000E+00 0.  1.
         22    1    3    3    0    0 -0.84944953213E+02  0.41843486471E+02 -0.34547127757E+02  0.10079695666E+03  0.00000000000E+00 0.  1.
</event>
<event>
 7    1  0.6294601E-006  0.2018445E+03  0.7818608E-02  0.1289037E+00
          2   -1    0    0  502    0  0.00000000000E+00  0.00000000000E+00  0.77940266355E+02  0.77940266355E+02  0.00000000000E+00 0. -1.
          1   -1    0    0  501    0 -0.00000000000E+00 -0.00000000000E+00 -0.16403335235E+04  0.16403335235E+04  0.00000000000E+00 0. -1.
         25    2    1    2    0    0 -0.68253868731E+02 -0.16677983947E+03 -0.23889132930E+03  0.32429702039E+03  0.12500153905E+03 0.  0.
          2    1    1    2  501    0  0.39906992384E+02  0.20252058127E+03 -0.13317225271E+04  0.13476245928E+04  0.00000000000E+00 0. -1.
          1    1    1    2  502    0  0.28346876348E+02 -0.35740741803E+02  0.82205993346E+01  0.46352176613E+02  0.00000000000E+00 0. -1.
         22    1    3    3    0    0 -0.53138607141E+02 -0.79260343467E+02 -0.34546956441E+02  0.10148598827E+03  0.00000000000E+00 0.  1.
         22    1    3    3    0    0 -0.15115261590E+02 -0.87519496000E+02 -0.20434437286E+03  0.22281103212E+03  0.00000000000E+00 0.  1.
</event>
<event>
 7    1  0.6294601E-006  0.1661599E+03  0.7818608E-02  0.1289204E+00
          2   -1    0    0  502    0  0.00000000000E+00  0.00000000000E+00  0.48876091549E+03  0.48876091549E+03  0.00000000000E+00 0. -1.
          1   -1    0    0  501    0 -0.00000000000E+00 -0.00000000000E+00 -0.17913681910E+04  0.17913681910E+04  0.00000000000E+00 0. -1.
         25    2    1    2    0    0 -0.88977937178E+02 -0.13010953344E+03  0.38282948224E+02  0.20478328630E+03  0.12500018491E+03 0.  0.
          2    1    1    2  501    0  0.43919419012E+02 -0.33647644881E+02 -0.16880023779E+04  0.16889088511E+04  0.00000000000E+00 0. -1.
          1    1    1    2  502    0  0.45058518165E+02  0.16375717832E+03  0.34711215419E+03  0.38643696911E+03  0.00000000000E+00 0. -1.
         22    1    3    3    0    0 -0.49182463240E+02 -0.14915203538E+03  0.30454178065E+02  0.15997718997E+03  0.00000000000E+00 0.  1.
         22    1    3    3    0    0 -0.39795473938E+02  0.19042501945E+02  0.78287701584E+01  0.44806096331E+02  0.00000000000E+00 0.  1.
</event>
<event>
 7    1  0.6294601E-006  0.1160378E+03  0.7818608E-02  0.1281244E+00
          2   -1    0    0  502    0  0.00000000000E+00  0.00000000000E+00  0.14656855809E+04  0.14656855809E+04  0.00000000000E+00 0. -1.
          1   -1    0    0  501    0 -0.00000000000E+00 -0.00000000000E+00 -0.35684212065E+02  0.35684212065E+02  0.00000000000E+00 0. -1.
         25    2    1    2    0    0  0.53871051558E+02 -0.41615428641E+02  0.43282656831E+03  0.45563223224E+03  0.12501183434E+03 0.  0.
          2    1    1    2  501    0  0.84495275430E+02  0.12436242779E+02  0.77729616412E+02  0.11548162179E+03  0.00000000000E+00 0. -1.
          1    1    1    2  502    0 -0.13836632699E+03  0.29179185861E+02  0.91944518414E+03  0.93025593896E+03  0.00000000000E+00 0. -1.
         22    1    3    3    0    0  0.87301650737E+02  0.15864908393E+01  0.28262753949E+03  0.29580808179E+03  0.00000000000E+00 0.  1.
         22    1    3    3    0    0 -0.33430599179E+02 -0.43201919480E+02  0.15019902882E+03  0.15982415045E+03  0.00000000000E+00 0.  1.
</event>
<event>
 7    1  0.6294601E-006  0.6946403E+02  0.7818608E-02  0.1396984E+00
          2   -1    0    0  502    0  0.00000000000E+00  0.00000000000E+00  0.24591937050E+04  0.24591937050E+04  0.00000000000E+00 0. -1.
          1   -1    0    0  501    0 -0.00000000000E+00 -0.00000000000E+00 -0.72428777630E+02  0.72428777630E+02  0.00000000000E+00 0. -1.
         25    2    1    2    0    0  0.41589924389E+02  0.38888032711E+02  0.19113558331E+03  0.23537255385E+03  0.12500170800E+03 0.  0.
          2    1    1    2  501    0 -0.20613198160E+01 -0.72943822976E+02 -0.23380313808E+02  0.76626949721E+02  0.00000000000E+00 0. -1.
          1    1    1    2  502    0 -0.39528604573E+02  0.34055790265E+02  0.22190096579E+04  0.22196229791E+04  0.00000000000E+00 0. -1.
         22    1    3    3    0    0  0.23069575040E+02 -0.44602847313E+02  0.88724828168E+02  0.10194956799E+03  0.00000000000E+00 0. -1.
         22    1    3    3    0    0  0.18520349349E+02  0.83490880024E+02  0.10241075514E+03  0.13342298586E+03  0.00000000000E+00 0. -1.
</event>
<event>
 7    1  0.6294601E-006  0.6172552E+02  0.7818608E-02  0.1515820E+00
          2   -1    0    0  502    0  0.00000000000E+00  0.00000000000E+00  0.15779308106E+03  0.15779308106E+03  0.00000000000E+00 0. -1.
          1   -1    0    0  501    0 -0.00000000000E+00 -0.00000000000E+00 -0.10125752235E+04  0.10125752235E+04  0.00000000000E+00 0. -1.
         25    2    1    2    0    0  0.28084787969E+02  0.29034906800E+02 -0.52775740457E+03  0.54385248289E+03  0.12496345040E+03 0.  0.
          2    1    1    2  501    0  0.33645106124E+01  0.24390863482E+02 -0.47001770689E+03  0.47066217072E+03  0.00000000000E+00 0. -1.
          1    1    1    2  502    0 -0.31449298581E+02 -0.53425770281E+02  0.14299296905E+03  0.15585365093E+03  0.00000000000E+00 0. -1.
         22    1    3    3    0    0 -0.64693436713E+01  0.21891018551E+02 -0.49555975999E+03  0.49608521932E+03  0.00000000000E+00 0.  1.
         22    1    3    3    0    0  0.34554131640E+02  0.71438882486E+01 -0.32197644581E+02  0.47767263573E+02  0.00000000000E+00 0.  1.
</event>
<event>
 7    1  0.6294601E-006  0.5444955E+02  0.7818608E-02  0.1452857E+00
          2   -1    0    0  502    0  0.00000000000E+00  0.00000000000E+00  0.22123570442E+03  0.22123570442E+03  0.00000000000E+00 0. -1.
          1   -1    0    0  501    0 -0.00000000000E+00 -0.00000000000E+00 -0.19691822744E+04  0.19691822744E+04  0.00000000000E+00 0. -1.
         25    2    1    2    0    0  0.13464510651E+02 -0.17773477978E+02 -0.14211605353E+03  0.19057860172E+03  0.12500416472E+03 0.  0.
          2    1    1    2  501    0  0.10231055907E+02  0.54179089537E+02 -0.18000132545E+04  0.18008575082E+04  0.00000000000E+00 0. -1.
          1    1    1    2  502    0 -0.23695566558E+02 -0.36405611559E+02  0.19418273803E+03  0.19898186897E+03  0.00000000000E+00 0. -1.
         22    1    3    3    0    0  0.38241836877E+02 -0.41707445622E+02 -0.14535166067E+03  0.15597773677E+03  0.00000000000E+00 0.  1.
         22    1    3    3    0    0 -0.24777326226E+02  0.23933967644E+02  0.32356071421E+01  0.34600864956E+02  0.00000000000E+00 0.  1.
</event>
<event>
 7    1  0.6294601E-006  0.8667852E+02  0.7818608E-02  0.1376920E+00
          2   -1    0    0  502    0  0.00000000000E+00  0.00000000000E+00  0.86028848976E+02  0.86028848976E+02  0.00000000000E+00 0. -1.
          1   -1    0    0  501    0 -0.00000000000E+00 -0.00000000000E+00 -0.13546058288E+04  0.13546058288E+04  0.00000000000E+00 0. -1.
         25    2    1    2    0    0  0.61675828375E+02 -0.65933487431E+02 -0.25790120407E+03  0.30048081693E+03  0.12499823082E+03 0.  0.
          2    1    1    2  501    0 -0.16719174842E+02  0.85835396489E+02 -0.10640207136E+04  0.10676082264E+04  0.00000000000E+00 0. -1.
          1    1    1    2  502    0 -0.44956653533E+02 -0.19901909059E+02  0.53344937861E+02  0.72545634441E+02  0.00000000000E+00 0. -1.
         22    1    3    3    0    0  0.10380625677E+02 -0.27046622734E+02 -0.22742286165E+03  0.22926062721E+03  0.00000000000E+00 0. -1.
         22    1    3    3    0    0  0.51295202697E+02 -0.38886864697E+02 -0.30478342425E+02  0.71220189713E+02  0.00000000000E+00 0. -1.
</event>
<event>
 7    1  0.6294601E-006  0.9638463E+02  0.7818608E-02  0.1321740E+00
          2   -1    0    0  502    0  0.00000000000E+00  0.00000000000E+00  0.11162005116E+03  0.11162005116E+03  0.00000000000E+00 0. -1.
          1   -1    0    0  501    0 -0.00000000000E+00 -0.00000000000E+00 -0.48143922762E+03  0.48143922762E+03  0.00000000000E+00 0. -1.
         25    2    1    2    0    0  0.38816162259E+02 -0.55788069870E+02 -0.59848154468E+02  0.15435809692E+03  0.12500246917E+03 0.  0.
          2    1    1    2  501    0  0.69381690514E+02  0.14318857594E+02 -0.31485397247E+03  0.32272569256E+03  0.00000000000E+00 0. -1.
          1    1    1    2  502    0 -0.10819785277E+03  0.41469212276E+02  0.48829504845E+01  0.11597548929E+03  0.00000000000E+00 0. -1.
         22    1    3    3    0    0  0.36932670894E+02 -0.54588705313E+02 -0.96926716545E+02  0.11721235987E+03  0.00000000000E+00 0.  1.
         22    1    3    3    0    0  0.18834913645E+01 -0.11993645569E+01  0.37078562077E+02  0.37145737047E+02  0.00000000000E+00 0.  1.
</event>
<event>
 7    1  0.6294601E-006  0.6038421E+02  0.7818608E-02  0.1403638E+00
          2   -1    0    0  502    0  0.00000000000E+00  0.00000000000E+00  0.19640888664E+03  0.19640888664E+03  0.00000000000E+00 0. -1.
          1   -1    0    0  501    0 -0.00000000000E+00 -0.00000000000E+00 -0.66136303548E+03  0.66136303548E+03  0.00000000000E+00 0. -1.
         25    2    1    2    0    0  0.38210037440E+02 -0.13545180121E+02  0.10709477727E+02  0.13184431137E+03  0.12499900265E+03 0.  0.
          2    1    1    2  501    0  0.27505841527E+01  0.60321529256E+02 -0.59143884350E+03  0.59451337933E+03  0.00000000000E+00 0. -1.
          1    1    1    2  502    0 -0.40960621593E+02 -0.46776349134E+02  0.11577521694E+03  0.13141423141E+03  0.00000000000E+00 0. -1.
         22    1    3    3    0    0  0.63131108161E+02 -0.29775762704E+01 -0.39693640631E+02  0.74632351461E+02  0.00000000000E+00 0.  1.
         22    1    3    3    0    0 -0.24921070721E+02 -0.10567603851E+02  0.50403118358E+02  0.57211959914E+02  0.00000000000E+00 0.  1.
</event>
<event>
 7    1  0.6294601E-006  0.4927262E+02  0.7818608E-02  0.1452633E+00
          2   -1    0    0  502    0  0.00000000000E+00  0.00000000000E+00  0.54235439916E+02  0.54235439916E+02  0.00000000000E+00 0. -1.
          1   -1    0    0  501    0 -0.00000000000E+00 -0.00000000000E+00 -0.18032367438E+04  0.18032367438E+04  0.00000000000E+00 0. -1.
         25    2    1    2    0    0  0.28632170356E+02 -0.59458208316E+00 -0.11682082057E+03  0.17345517041E+03  0.12497774729E+03 0.  0.
          2    1    1    2  501    0 -0.18219873524E+02 -0.46345299588E+02 -0.16350900590E+04  0.16358482055E+04  0.00000000000E+00 0. -1.
          1    1    1    2  502    0 -0.10412296832E+02  0.46939881671E+02  0.29095756094E+01  0.48168807820E+02  0.00000000000E+00 0. -1.
         22    1    3    3    0    0 -0.46838625237E+02  0.49730799143E+01 -0.70309535340E+02  0.84628713199E+02  0.00000000000E+00 0. -1.
         22    1    3    3    0    0  0.75470795593E+02 -0.55676619975E+01 -0.46511285228E+02  0.88826457213E+02  0.00000000000E+00 0. -1.
</event>
<event>
 7    1  0.6294601E-006  0.4625939E+02  0.7818608E-02  0.1547653E+00
          2   -1    0    0  502    0  0.00000000000E+00  0.00000000000E+00  0.68473683366E+03  0.68473683366E+03  0.00000000000E+00 0. -1.
          1   -1    0    0  501    0 -0.00000000000E+00 -0.00000000000E+00 -0.79860279267E+03  0.79860279267E+03  0.00000000000E+00 0. -1.
         25    2    1    2    0    0 -0.20086415087E+02 -0.40782486792E+01 -0.12410568926E+03  0.17733412517E+03  0.12500029463E+03 0.  0.
          2    1    1    2  501    0  0.45588786549E+02  0.11790981358E+02 -0.64675690581E+03  0.64846885809E+03  0.00000000000E+00 0. -1.
          1    1    1    2  502    0 -0.25502371462E+02 -0.77127326791E+01  0.65699663606E+03  0.65753664308E+03  0.00000000000E+00 0. -1.
         22    1    3    3    0    0  0.29442628697E+02  0.43292088053E+02 -0.80747756728E+02  0.96235510542E+02  0.00000000000E+00 0. -1.
         22    1    3    3    0    0 -0.49529043784E+02 -0.47370336732E+02 -0.43357932534E+02  0.81098614624E+02  0.00000000000E+00 0. -1.
</event>
<event>
 7    1  0.6294601E-006  0.1062195E+03  0.7818608E-02  0.1453402E+00
          2   -1    0    0  502    0  0.00000000000E+00  0.00000000000E+00  0.97791555329E+03  0.97791555329E+03  0.00000000000E+00 0. -1.
          1   -1    0    0  501    0 -0.00000000000E+00 -0.00000000000E+00 -0.20278779298E+03  0.20278779298E+03  0.00000000000E+00 0. -1.
         25    2    1    2    0    0 -0.10115266331E+03  0.14619979471E+02 -0.12683238059E+01  0.16145141257E+03  0.12497737748E+03 0.  0.
          2    1    1    2  501    0  0.12429313644E+01  0.22143149231E+02 -0.11722872716E+03  0.11930816573E+03  0.00000000000E+00 0. -1.
          1    1    1    2  502    0  0.99909731949E+02 -0.36763128702E+02  0.89362481128E+03  0.89994376797E+03  0.00000000000E+00 0. -1.
         22    1    3    3    0    0 -0.69127626090E+02  0.27196316228E+02 -0.58581032235E+02  0.94604469466E+02  0.00000000000E+00 0. -1.
         22    1    3    3    0    0 -0.32025037223E+02 -0.12576336757E+02  0.57312708429E+02  0.66846943107E+02  0.00000000000E+00 0. -1.
</event>
<event>
 7    1  0.6294601E-006  0.8502201E+02  0.7818608E-02  0.1370440E+00
          2   -1    0    0  502    0  0.00000000000E+00  0.00000000000E+00  0.20554301208E+04  0.20554301208E+04  0.00000000000E+00 0. -1.
          1   -1    0    0  501    0 -0.00000000000E+00 -0.00000000000E+00 -0.18709146826E+03  0.18709146826E+03  0.00000000000E+00 0. -1.
         25    2    1    2    0    0 -0.10890668199E+03 -0.47869619300E+02  0.32603964969E+03  0.36888792403E+03  0.12499712591E+03 0.  0.
          2    1    1    2  501    0  0.25108340472E+02  0.46526601012E+02 -0.16039222393E+03  0.16888107904E+03  0.00000000000E+00 0. -1.
          1    1    1    2  502    0  0.83798341521E+02  0.13430182884E+01  0.17026912267E+04  0.17047525860E+04  0.00000000000E+00 0. -1.
         22    1    3    3    0    0 -0.39130710797E+02  0.13124958360E+02  0.14325888985E+02  0.43688764627E+02  0.00000000000E+00 0.  1.
         22    1    3    3    0    0 -0.69775971196E+02 -0.60994577660E+02  0.31171376071E+03  0.32519915940E+03  0.00000000000E+00 0.  1.
</event>
<event>
 7    1  0.6294601E-006  0.7163808E+02  0.7818608E-02  0.1359715E+00
          2   -1    0    0  502    0  0.00000000000E+00  0.00000000000E+00  0.15126968654E+04  0.15126968654E+04  0.00000000000E+00 0. -1.
          1   -1    0    0  501    0 -0.00000000000E+00 -0.00000000000E+00 -0.30363214099E+02  0.30363214099E+02  0.00000000000E+00 0. -1.
         25    2    1    2    0    0  0.37709606106E+02  0.71573925361E+02  0.59112994513E+03  0.60959347150E+03  0.12499898913E+03 0.  0.
          2    1    1    2  501    0 -0.68530733669E+02 -0.34453124903E+01  0.40901502589E+02  0.79882817611E+02  0.00000000000E+00 0. -1.
          1    1    1    2  502    0  0.30821127563E+02 -0.68128612871E+02  0.85030220356E+03  0.85358379036E+03  0.00000000000E+00 0. -1.
         22    1    3    3    0    0 -0.20985417032E+02  0.32143891798E+02  0.45103238439E+03  0.45266304165E+03  0.00000000000E+00 0. -1.
         22    1    3    3    0    0  0.58695023138E+02  0.39430033563E+02  0.14009756074E+03  0.15693042985E+03  0.00000000000E+00 0. -1.
</event>
<event>
 7    1  0.6294601E-006  0.3120074E+02  0.7818608E-02  0.1597636E+00
          2   -1    0    0  502    0  0.00000000000E+00  0.00000000000E+00  0.19798610145E+02  0.19798610145E+02  0.00000000000E+00 0. -1.
          1   -1    0    0  501    0 -0.00000000000E+00 -0.00000000000E+00 -0.17155349783E+04  0.17155349783E+04  0.00000000000E+00 0. -1.
         25    2    1    2    0    0  0.24584230601E+01  0.73022283762E+01 -0.48951475757E+03  0.50528089756E+03  0.12499888468E+03 0.  0.
          2    1    1    2  501    0 -0.22508585481E+02  0.18165388604E+02 -0.11955910209E+04  0.11959408460E+04  0.00000000000E+00 0. -1.
          1    1    1    2  502    0  0.20050162421E+02 -0.25467616980E+02 -0.10630589682E+02  0.34111844933E+02  0.00000000000E+00 0. -1.
         22    1    3    3    0    0  0.31497892245E+02  0.51881962607E+02 -0.15322028548E+03  0.16480385658E+03  0.00000000000E+00 0.  1.
         22    1    3    3    0    0 -0.29039469185E+02 -0.44579734231E+02 -0.33629447209E+03  0.34047704098E+03  0.00000000000E+00 0.  1.
</event>
<event>
 7    1  0.6294601E-006  0.8401688E+02  0.7818608E-02  0.1390035E+00
          2   -1    0    0  502    0  0.00000000000E+00  0.00000000000E+00  0.28749226605E+04  0.28749226605E+04  0.00000000000E+00 0. -1.
          1   -1    0    0  501    0 -0.00000000000E+00 -0.00000000000E+00 -0.10666118249E+02  0.10666118249E+02  0.00000000000E+00 0. -1.
         25    2    1    2    0    0 -0.90560759860E+02  0.41066622062E+02  0.22384143888E+04  0.22441059434E+04  0.12499916098E+03 0.  0.
          2    1    1    2  501    0  0.16464181670E+02 -0.42526635323E+02  0.93733511249E+02  0.10423797351E+03  0.00000000000E+00 0. -1.
          1    1    1    2  502    0  0.74096578190E+02  0.14600132614E+01  0.53210864214E+03  0.53724486184E+03  0.00000000000E+00 0. -1.
         22    1    3    3    0    0 -0.21615149128E+02  0.67928460174E+02  0.15682079550E+04  0.15698272773E+04  0.00000000000E+00 0. -1.
         22    1    3    3    0    0 -0.68945610732E+02 -0.26861838112E+02  0.67020643386E+03  0.67427866611E+03  0.00000000000E+00 0. -1.
</event>
<event>
 7    1  0.6294601E-006  0.3053646E+02  0.7818608E-02  0.1654347E+00
          2   -1    0    0  502    0  0.00000000000E+00  0.00000000000E+00  0.60813371428E+03  0.60813371428E+03  0.00000000000E+00 0. -1.
          1   -1    0    0  501    0 -0.00000000000E+00 -0.00000000000E+00 -0.38983470560E+02  0.38983470560E+02  0.00000000000E+00 0. -1.
         25    2    1    2    0    0 -0.40991194661E+02 -0.23068625379E+02  0.19779856606E+03  0.23866665040E+03  0.12500023105E+03 0.  0.
          2    1    1    2  501    0  0.21241194182E+02  0.30802791362E+00 -0.11675011932E+02  0.24240237522E+02  0.00000000000E+00 0. -1.
          1    1    1    2  502    0  0.19750000479E+02  0.22760597465E+02  0.38302668959E+03  0.38421029692E+03  0.00000000000E+00 0. -1.
         22    1    3    3    0    0 -0.56417194547E+02  0.88821617324E+01  0.25140050268E+02  0.62400438822E+02  0.00000000000E+00 0. -1.
         22    1    3    3    0    0  0.15425999886E+02 -0.31950787111E+02  0.17265851579E+03  0.17626621158E+03  0.00000000000E+00 0. -1.
</event>
<event>
 7    1  0.6294601E-006  0.5149778E+02  0.7818608E-02  0.1560199E+00
          2   -1    0    0  502    0  0.00000000000E+00  0.00000000000E+00  0.24502139567E+04  0.24502139567E+04  0.00000000000E+00 0. -1.
          1   -1    0    0  501    0 -0.00000000000E+00 -0.00000000000E+00 -0.38803418282E+03  0.38803418282E+03  0.00000000000E+00 0. -1.
         25    2    1    2    0    0  0.29525428101E+02  0.21930858530E+01  0.71381924175E+02  0.14695693323E+03  0.12499760236E+03 0.  0.
          2    1    1    2  501    0  0.22089276607E+02  0.40995238321E-01 -0.34961304090E+03  0.35031017140E+03  0.00000000000E+00 0. -1.
          1    1    1    2  502    0 -0.51614704708E+02 -0.22340810914E+01  0.23404108906E+04  0.23409810349E+04  0.00000000000E+00 0. -1.
         22    1    3    3    0    0  0.78527703968E+02  0.13586360434E+01  0.35353860853E+02  0.86129795423E+02  0.00000000000E+00 0.  1.
         22    1    3    3    0    0 -0.49002275868E+02  0.83444980961E+00  0.36028063322E+02  0.60827137804E+02  0.00000000000E+00 0.  1.
</event>
<event>
 7    1  0.6294601E-006  0.7189787E+02  0.7818608E-02  0.1427861E+00
          2   -1    0    0  502    0  0.00000000000E+00  0.00000000000E+00  0.19674747920E+04  0.19674747920E+04  0.00000000000E+00 0. -1.
          1   -1    0    0  501    0 -0.00000000000E+00 -0.00000000000E+00 -0.21690617273E+03  0.21690617273E+03  0.00000000000E+00 0. -1.
         25    2    1    2    0    0  0.16479666765E+02  0.95295163248E+02 -0.55546493797E+02  0.16751804609E+03  0.12499654090E+03 0.  0.
          2    1    1    2  501    0 -0.30812313693E+02 -0.24953075960E+02 -0.10094480525E+03  0.10845233230E+03  0.00000000000E+00 0. -1.
          1    1    1    2  502    0  0.14332646928E+02 -0.70342087288E+02  0.19070599183E+04  0.19084105864E+04  0.00000000000E+00 0. -1.
         22    1    3    3    0    0  0.58624227526E+02  0.58001924754E+02 -0.71367037942E+02  0.10906088865E+03  0.00000000000E+00 0.  1.
         22    1    3    3    0    0 -0.42144560762E+02  0.37293238494E+02  0.15820544145E+02  0.58457157442E+02  0.00000000000E+00 0.  1.
</event>
<event>
 7    1  0.6294601E-006  0.5020472E+02  0.7818608E-02  0.1484389E+00
          2   -1    0    0  502    0  0.00000000000E+00  0.00000000000E+00  0.40702539566E+03  0.40702539566E+03  0.00000000000E+00 0. -1.
          1   -1    0    0  501    0 -0.00000000000E+00 -0.00000000000E+00 -0.83805187946E+02  0.83805187946E+02  0.00000000000E+00 0. -1.
         25    2    1    2    0    0 -0.55446908026E+02 -0.65850824807E+02  0.23141952300E+03  0.27674995020E+03  0.12499939429E+03 0.  0.
          2    1    1    2  501    0  0.28785602060E+02  0.39381693364E+02 -0.48529346875E+02  0.68808619855E+02  0.00000000000E+00 0. -1.
          1    1    1    2  502    0  0.26661305966E+02  0.26469131443E+02  0.14033003159E+03  0.14527201355E+03  0.00000000000E+00 0. -1.
         22    1    3    3    0    0 -0.27432266966E+01  0.20156419101E+02 -0.39085765677E+01  0.20714330654E+02  0.00000000000E+00 0.  1.
         22    1    3    3    0    0 -0.52703681329E+02 -0.86007243908E+02  0.23532809957E+03  0.25603561955E+03  0.00000000000E+00 0.  1.
</event>
<event>
 7    1  0.6294601E-006  0.5801130E+02  0.7818608E-02  0.1551618E+00
          2   -1    0    0  502    0  0.00000000000E+00  0.00000000000E+00  0.53068631542E+02  0.53068631542E+02  0.00000000000E+00 0. -1.
          1   -1    0    0  501    0 -0.00000000000E+00 -0.00000000000E+00 -0.12254162347E+04  0.12254162347E+04  0.00000000000E+00 0. -1.
         25    2    1    2    0    0 -0.60072320931E+02 -0.26883864879E+02 -0.89660640185E+03  0.90766694314E+03  0.12499925563E+03 0.  0.
          2    1    1    2  501    0  0.16997266378E+02 -0.11834417754E+02 -0.30515594372E+03  0.30585799074E+03  0.00000000000E+00 0. -1.
          1    1    1    2  502    0  0.43075054552E+02  0.38718282633E+02  0.29414742448E+02  0.64959932328E+02  0.00000000000E+00 0. -1.
         22    1    3    3    0    0 -0.52635202019E+02  0.43652060701E+02 -0.51563396978E+03  0.52014839968E+03  0.00000000000E+00 0. -1.
         22    1    3    3    0    0 -0.74371189117E+01 -0.70535925580E+02 -0.38097243206E+03  0.38751854346E+03  0.00000000000E+00 0. -1.
</event>
<event>
 7    1  0.6294601E-006  0.1248822E+03  0.7818608E-02  0.1246015E+00
          2   -1    0    0  502    0  0.00000000000E+00  0.00000000000E+00  0.55424560893E+02  0.55424560893E+02  0.00000000000E+00 0. -1.
          1   -1    0    0  501    0 -0.00000000000E+00 -0.00000000000E+00 -0.20094214622E+04  0.20094214622E+04  0.00000000000E+00 0. -1.
         25    2    1    2    0    0 -0.84692658081E+02 -0.26048075295E+02 -0.11506376278E+04  0.11607943004E+04  0.12500043584E+03 0.  0.
          2    1    1    2  501    0  0.10599854235E+03  0.14909939885E+03 -0.74329430031E+03  0.76547549836E+03  0.00000000000E+00 0. -1.
          1    1    1    2  502    0 -0.21305884271E+02 -0.12305132355E+03 -0.60064973258E+02  0.13857622431E+03  0.00000000000E+00 0. -1.
         22    1    3    3    0    0 -0.20833729196E+01 -0.60395347627E+02 -0.35060917974E+03  0.35577905415E+03  0.00000000000E+00 0.  1.
         22    1    3    3    0    0 -0.82609285162E+02  0.34347272331E+02 -0.80002844801E+03  0.80501524628E+03  0.00000000000E+00 0.  1.
</event>
<event>
 7    1  0.6294601E-006  0.7378899E+02  0.7818608E-02  0.1426752E+00
          2   -1    0    0  502    0  0.00000000000E+00  0.00000000000E+00  0.84896539080E+03  0.84896539080E+03  0.00000000000E+00 0. -1.
          1   -1    0    0  501    0 -0.00000000000E+00 -0.00000000000E+00 -0.22060811164E+04  0.22060811164E+04  0.00000000000E+00 0. -1.
         25    2    1    2    0    0 -0.15979220270E+02 -0.33929516284E+02  0.86343273028E+02  0.15648378119E+03  0.12500186167E+03 0.  0.
          2    1    1    2  501    0 -0.24902971833E+02 -0.29962479202E+02 -0.21688584138E+04  0.21692083181E+04  0.00000000000E+00 0. -1.
          1    1    1    2  502    0  0.40882192103E+02  0.63891995486E+02  0.72539941521E+03  0.72935440788E+03  0.00000000000E+00 0. -1.
         22    1    3    3    0    0  0.49125143016E+02 -0.35819718458E+02  0.21259027002E+02  0.64407127989E+02  0.00000000000E+00 0. -1.
         22    1    3    3    0    0 -0.65104363285E+02  0.18902021742E+01  0.65084246026E+02  0.92076653196E+02  0.00000000000E+00 0. -1.
</event>
<event>
 7    1  0.6294601E-006  0.8584573E+02  0.7818608E-02  0.1383110E+00
          2   -1    0    0  502    0  0.00000000000E+00  0.00000000000E+00  0.89051658219E+03  0.89051658219E+03  0.00000000000E+00 0. -1.
          1   -1    0    0  501    0 -0.00000000000E+00 -0.00000000000E+00 -0.13165939599E+04  0.13165939599E+04  0.00000000000E+00 0. -1.
         25    2    1    2    0    0 -0.57723604514E+02 -0.14258913772E+02 -0.93053286198E+02  0.16678221597E+03  0.12498824886E+03 0.  0.
          2    1    1    2  501    0  0.83638811605E+02 -0.25188005001E+02 -0.11844142943E+04  0.11876308799E+04  0.00000000000E+00 0. -1.
          1    1    1    2  502    0 -0.25915207091E+02  0.39446918773E+02  0.85139020278E+03  0.85269744620E+03  0.00000000000E+00 0. -1.
         22    1    3    3    0    0 -0.53461008736E+02  0.39121115573E+02 -0.91813703962E+02  0.11321791984E+03  0.00000000000E+00 0.  1.
         22    1    3    3    0    0 -0.42625957778E+01 -0.53380029345E+02 -0.12395822361E+01  0.53564296128E+02  0.00000000000E+00 0.  1.
</event>
<event>
 7    1  0.6294601E-006  0.4977590E+02  0.7818608E-02  0.1479776E+00
          2   -1    0    0  502    0  0.00000000000E+00  0.00000000000E+00  0.11336932571E+04  0.11336932571E+04  0.00000000000E+00 0. -1.
          1   -1    0    0  501    0 -0.00000000000E+00 -0.00000000000E+00 -0.34729881870E+03  0.34729881870E+03  0.00000000000E+00 0. -1.
         25    2    1    2    0    0  0.42412130881E+02  0.14392185820E+02 -0.13521938636E+02  0.13346796494E+03  0.12499972393E+03 0.  0.
          2    1    1    2  501    0 -0.23052477580E+02  0.31636057037E+02 -0.27182053473E+03  0.27462457998E+03  0.00000000000E+00 0. -1.
          1    1    1    2  502    0 -0.19359653301E+02 -0.46028242857E+02  0.10717369117E+04  0.10728995309E+04  0.00000000000E+00 0. -1.
         22    1    3    3    0    0 -0.15384168009E+01  0.66943942043E+01 -0.64989660077E+02  0.65351645403E+02  0.00000000000E+00 0. -1.
         22    1    3    3    0    0  0.43950547682E+02  0.76977916160E+01  0.51467721441E+02  0.68116319540E+02  0.00000000000E+00 0. -1.
</event>
<event>
 7    1  0.6294601E-006  0.3661535E+03  0.7818608E-02  0.1221909E+00
          2   -1    0    0  502    0  0.00000000000E+00  0.00000000000E+00  0.14356776911E+04  0.14356776911E+04  0.00000000000E+00 0. -1.
          1   -1    0    0  501    0 -0.00000000000E+00 -0.00000000000E+00 -0.51114695747E+03  0.51114695747E+03  0.00000000000E+00 0. -1.
         25    2    1    2    0    0 -0.31982698387E+03  0.18061184628E+03  0.28556243577E+03  0.48174764991E+03  0.12499981941E+03 0.  0.
          2    1    1    2  501    0  0.29231709264E+03 -0.22104092016E+03 -0.33102725760E+03  0.49384958875E+03  0.00000000000E+00 0. -1.
          1    1    1    2  502    0  0.27509891222E+02  0.40429073880E+02  0.96999555545E+03  0.97122740989E+03  0.00000000000E+00 0. -1.
         22    1    3    3    0    0 -0.49607065553E+01  0.36775953450E+02  0.77958233722E+01  0.37919048297E+02  0.00000000000E+00 0.  1.
         22    1    3    3    0    0 -0.31486627731E+03  0.14383589283E+03  0.27776661239E+03  0.44382860162E+03  0.00000000000E+00 0.  1.
</event>
<event>
 7    1  0.6294601E-006  0.1302255E+03  0.7818608E-02  0.1290483E+00
          2   -1    0    0  502    0  0.00000000000E+00  0.00000000000E+00  0.14408043425E+04  0.14408043425E+04  0.00000000000E+00 0. -1.
          1   -1    0    0  501    0 -0.00000000000E+00 -0.00000000000E+00 -0.23010566649E+03  0.23010566649E+03  0.00000000000E+00 0. -1.
         25    2    1    2    0    0 -0.10881314710E+03  0.69603797815E+02  0.34958508286E+03  0.39309012617E+03  0.12500050993E+03 0.  0.
          2    1    1    2  501    0 -0.24519524874E+02 -0.65302346737E+02 -0.19821200821E+03  0.21012758931E+03  0.00000000000E+00 0. -1.
          1    1    1    2  502    0  0.13333267197E+03 -0.43014510787E+01  0.10593256014E+04  0.10676922935E+04  0.00000000000E+00 0. -1.
         22    1    3    3    0    0 -0.57919962441E+02  0.10226113586E+03  0.20374740362E+03  0.23521281096E+03  0.00000000000E+00 0. -1.
         22    1    3    3    0    0 -0.50893184656E+02 -0.32657338047E+02  0.14583767924E+03  0.15787731521E+03  0.00000000000E+00 0. -1.
</event>
<event>
 7    1  0.6294601E-006  0.5170149E+02  0.7818608E-02  0.1552267E+00
          2   -1    0    0  502    0  0.00000000000E+00  0.00000000000E+00  0.10008220528E+03  0.10008220528E+03  0.00000000000E+00 0. -1.
          1   -1    0    0  501    0 -0.00000000000E+00 -0.00000000000E+00 -0.89837312054E+03  0.89837312054E+03  0.00000000000E+00 0. -1.
         25    2    1    2    0    0 -0.18754517127E+02  0.71439966787E+02 -0.17453309141E+03  0.22703030627E+03  0.12500223678E+03 0.  0.
          2    1    1    2  501    0  0.66287337837E+01 -0.22172932453E+02 -0.68865756387E+03  0.68904631145E+03  0.00000000000E+00 0. -1.
          1    1    1    2  502    0  0.12125783343E+02 -0.49267034333E+02  0.64899740017E+02  0.82378708099E+02  0.00000000000E+00 0. -1.
         22    1    3    3    0    0 -0.62759492913E+02  0.63481923690E+02 -0.15359667890E+03  0.17765316872E+03  0.00000000000E+00 0. -1.
         22    1    3    3    0    0  0.44004975787E+02  0.79580430968E+01 -0.20936412514E+02  0.49377137553E+02  0.00000000000E+00 0. -1.
</event>
<event>
 7    1  0.6294601E-006  0.1275348E+03  0.7818608E-02  0.1438482E+00
          2   -1    0    0  502    0  0.00000000000E+00  0.00000000000E+00  0.36634848963E+03  0.36634848963E+03  0.00000000000E+00 0. -1.
          1   -1    0    0  501    0 -0.00000000000E+00 -0.00000000000E+00 -0.12300256964E+04  0.12300256964E+04  0.00000000000E+00 0. -1.
         25    2    1    2    0    0 -0.11352053905E+03  0.87106671279E+02 -0.36999166232E+02  0.19356668479E+03  0.12499855276E+03 0.  0.
          2    1    1    2  501    0  0.20473631508E+02 -0.25399717745E+01 -0.11009212970E+04  0.11011145822E+04  0.00000000000E+00 0. -1.
          1    1    1    2  502    0  0.93046907546E+02 -0.84566699505E+02  0.27424325646E+03  0.30169291901E+03  0.00000000000E+00 0. -1.
         22    1    3    3    0    0 -0.38109470725E+02  0.10354735528E+03 -0.37025807764E+02  0.11638426434E+03  0.00000000000E+00 0.  1.
         22    1    3    3    0    0 -0.75411068329E+02 -0.16440684005E+02  0.26641531770E-01  0.77182420452E+02  0.00000000000E+00 0.  1.
</event>
<event>
 7    1  0.6294601E-006  0.5947147E+02  0.7818608E-02  0.1546958E+00
          2   -1    0    0  502    0  0.00000000000E+00  0.00000000000E+00  0.10807055164E+03  0.10807055164E+03  0.00000000000E+00 0. -1.
          1   -1    0    0  501    0 -0.00000000000E+00 -0.00000000000E+00 -0.88401128553E+03  0.88401128553E+03  0.00000000000E+00 0. -1.
         25    2    1    2    0    0 -0.46066518951E+02 -0.32355713705E+02 -0.29943345348E+03  0.32932391172E+03  0.12499931756E+03 0.  0.
          2    1    1    2  501    0  0.58142721926E+02  0.15399199582E+02 -0.56685796309E+03  0.57004005279E+03  0.00000000000E+00 0. -1.
          1    1    1    2  502    0 -0.12076202976E+02  0.16956514123E+02  0.90350682687E+02  0.92717872666E+02  0.00000000000E+00 0. -1.
         22    1    3    3    0    0 -0.57749244784E+02  0.35357624905E+02 -0.16480690177E+03  0.17817534000E+03  0.00000000000E+00 0.  1.
         22    1    3    3    0    0  0.11682725834E+02 -0.67713338610E+02 -0.13462655171E+03  0.15114857173E+03  0.00000000000E+00 0.  1.
</event>
<event>
 7    1  0.6294601E-006  0.1026846E+03  0.7818608E-02  0.1397065E+00
          2   -1    0    0  502    0  0.00000000000E+00  0.00000000000E+00  0.17061814591E+04  0.17061814591E+04  0.00000000000E+00 0. -1.
          1   -1    0    0  501    0 -0.00000000000E+00 -0.00000000000E+00 -0.59425297291E+02  0.59425297291E+02  0.00000000000E+00 0. -1.
         25    2    1    2    0    0  0.24394523810E+02 -0.68149992548E+02  0.17017421807E+03  0.22321141536E+03  0.12499822869E+03 0.  0.
          2    1    1    2  501    0 -0.51140606663E+01 -0.34900323120E+02 -0.21064414491E+02  0.41084008181E+02  0.00000000000E+00 0. -1.
          1    1    1    2  502    0 -0.19280463143E+02  0.10305031567E+03  0.14976463582E+04  0.15013113328E+04  0.00000000000E+00 0. -1.
         22    1    3    3    0    0  0.40515392894E+02 -0.38882444594E+02  0.69276346143E+01  0.56580329447E+02  0.00000000000E+00 0.  1.
         22    1    3    3    0    0 -0.16120869085E+02 -0.29267547955E+02  0.16324658346E+03  0.16663108592E+03  0.00000000000E+00 0.  1.
</event>
<event>
 7    1  0.6294601E-006  0.1352679E+03  0.7818608E-02  0.1387882E+00
          2   -1    0    0  502    0  0.00000000000E+00  0.00000000000E+00  0.10412987437E+04  0.10412987437E+04  0.00000000000E+00 0. -1.
          1   -1    0    0  501    0 -0.00000000000E+00 -0.00000000000E+00 -0.12596188048E+04  0.12596188048E+04  0.00000000000E+00 0. -1.
         25    2    1    2    0    0  0.52725908505E+02  0.10401759505E+03  0.40925820061E+02  0.17580469794E+03  0.12503074646E+03 0.  0.
          2    1    1    2  501    0 -0.40129302795E+02 -0.12993811373E+03 -0.11880768968E+04  0.11958348495E+04  0.00000000000E+00 0. -1.
          1    1    1    2  502    0 -0.12596605710E+02  0.25920518677E+02  0.92883101570E+03  0.92927800118E+03  0.00000000000E+00 0. -1.
         22    1    3    3    0    0  0.84490371493E+02  0.50280090966E+02  0.53786577393E+02  0.11207009561E+03  0.00000000000E+00 0. -1.
         22    1    3    3    0    0 -0.31764462988E+02  0.53737504087E+02 -0.12860757333E+02  0.63734602326E+02  0.00000000000E+00 0. -1.
</event>
<event>
 7    1  0.6294601E-006  0.6604248E+02  0.7818608E-02  0.1493362E+00
          2   -1    0    0  502    0  0.00000000000E+00  0.00000000000E+00  0.81113031149E+03  0.81113031149E+03  0.00000000000E+00 0. -1.
          1   -1    0    0  501    0 -0.00000000000E+00 -0.00000000000E+00 -0.50062104933E+03  0.50062104933E+03  0.00000000000E+00 0. -1.
         25    2    1    2    0    0 -0.13124362052E+02 -0.45448465148E+02  0.15295414831E+03  0.20312793151E+03  0.12501269220E+03 0.  0.
          2    1    1    2  501    0  0.15259250031E+02 -0.22063876931E+02 -0.47335162299E+03  0.47411118776E+03  0.00000000000E+00 0. -1.
          1    1    1    2  502    0 -0.21348879785E+01  0.67512342080E+02  0.63090673684E+03  0.63451224155E+03  0.00000000000E+00 0. -1.
         22    1    3    3    0    0 -0.83715209599E+01  0.35237335206E+01  0.15365245646E+03  0.15392068230E+03  0.00000000000E+00 0.  1.
         22    1    3    3    0    0 -0.47528410922E+01 -0.48972198669E+02 -0.69830815708E+00  0.49207249214E+02  0.00000000000E+00 0.  1.
</event>
<event>
 7    1  0.6294601E-006  0.3429412E+02  0.7818608E-02  0.1558285E+00
          2   -1    0    0  502    0  0.00000000000E+00  0.00000000000E+00  0.35636961802E+03  0.35636961802E+03  0.00000000000E+00 0. -1.
          1   -1    0    0  501    0 -0.00000000000E+00 -0.00000000000E+00 -0.96053290247E+03  0.96053290247E+03  0.00000000000E+00 0. -1.
         25    2    1    2    0    0  0.51045114644E+00 -0.26219188272E+01 -0.94269789446E+02  0.15659372080E+03  0.12501066024E+03 0.  0.
          2    1    1    2  501    0 -0.33438198677E+02  0.91858068766E+01 -0.83387321119E+03  0.83459392792E+03  0.00000000000E+00 0. -1.
          1    1    1    2  502    0  0.32927747531E+02 -0.65638880494E+01  0.32397971619E+03  0.32571487176E+03  0.00000000000E+00 0. -1.
         22    1    3    3    0    0 -0.58654169605E+02  0.20305675338E+01 -0.72734859090E+02  0.93460122744E+02  0.00000000000E+00 0.  1.
         22    1    3    3    0    0  0.59164620751E+02 -0.46524863610E+01 -0.21534930356E+02  0.63133598056E+02  0.00000000000E+00 0.  1.
</event>
<event>
 7    1  0.6294601E-006  0.8428923E+02  0.7818608E-02  0.1327693E+00
          2   -1    0    0  502    0  0.00000000000E+00  0.00000000000E+00  0.23719260528E+04  0.23719260528E+04  0.00000000000E+00 0. -1.
          1   -1    0    0  501    0 -0.00000000000E+00 -0.00000000000E+00 -0.90154223061E+02  0.90154223061E+02  0.00000000000E+00 0. -1.
         25    2    1    2    0    0  0.17387730233E+02  0.97628485729E+02  0.20335024727E+04  0.20397526523E+04  0.12499968731E+03 0.  0.
          2    1    1    2  501    0  0.51359497162E+02 -0.57159924775E+02 -0.64015098987E+02  0.10001493812E+03  0.00000000000E+00 0. -1.
          1    1    1    2  502    0 -0.68747227395E+02 -0.40468560955E+02  0.31228445604E+03  0.32231268542E+03  0.00000000000E+00 0. -1.
         22    1    3    3    0    0  0.94498086778E+01 -0.66473873556E+01  0.17083189065E+02  0.20623336087E+02  0.00000000000E+00 0.  1.
         22    1    3    3    0    0  0.79379215557E+01  0.10427587309E+03  0.20164192836E+04  0.20191293162E+04  0.00000000000E+00 0.  1.
</event>
<event>
 7    1  0.6294601E-006  0.7815445E+02  0.7818608E-02  0.1351724E+00
          2   -1    0    0  502    0  0.00000000000E+00  0.00000000000E+00  0.74809403144E+02  0.74809403144E+02  0.00000000000E+00 0. -1.
          1   -1    0    0  501    0 -0.00000000000E+00 -0.00000000000E+00 -0.92755796739E+03  0.92755796739E+03  0.00000000000E+00 0. -1.
         25    2    1    2    0    0 -0.92721991684E+02  0.10431541377E+03 -0.18723408724E+03  0.26487811634E+03  0.12499895918E+03 0.  0.
          2    1    1    2  501    0  0.59190065100E+02 -0.45971020088E+02 -0.66599014000E+03  0.67019375189E+03  0.00000000000E+00 0. -1.
          1    1    1    2  502    0  0.33531926585E+02 -0.58344393686E+02  0.47566299865E+00  0.67295502304E+02  0.00000000000E+00 0. -1.
         22    1    3    3    0    0 -0.85031840088E+02  0.59438170053E+02 -0.40718589451E+02  0.11145094623E+03  0.00000000000E+00 0.  1.
         22    1    3    3    0    0 -0.76901515967E+01  0.44877243720E+02 -0.14651549779E+03  0.15342717011E+03  0.00000000000E+00 0.  1.
</event>
<event>
 7    1  0.6294601E-006  0.1428277E+03  0.7818608E-02  0.1233117E+00
          2   -1    0    0  502    0  0.00000000000E+00  0.00000000000E+00  0.18134599730E+04  0.18134599730E+04  0.00000000000E+00 0. -1.
          1   -1    0    0  501    0 -0.00000000000E+00 -0.00000000000E+00 -0.24119091318E+03  0.24119091318E+03  0.00000000000E+00 0. -1.
         25    2    1    2    0    0  0.76009864872E+02  0.83401639663E+00  0.54513599608E+02  0.15612367332E+03  0.12499869474E+03 0.  0.
          2    1    1    2  501    0  0.24174701390E+02  0.10895986788E+03 -0.17047822536E+03  0.20376332918E+03  0.00000000000E+00 0. -1.
          1    1    1    2  502    0 -0.10018456626E+03 -0.10979388428E+03  0.16882336856E+04  0.16947638837E+04  0.00000000000E+00 0. -1.
         22    1    3    3    0    0  0.31070830303E+02  0.14821194402E+02  0.90532875860E+02  0.96856935274E+02  0.00000000000E+00 0.  1.
         22    1    3    3    0    0  0.44939034569E+02 -0.13987178005E+02 -0.36019276252E+02  0.59266738043E+02  0.00000000000E+00 0.  1.
</event>
<event>
 7    1  0.6294601E-006  0.5855547E+02  0.7818608E-02  0.1470025E+00
          2   -1    0    0  502    0  0.00000000000E+00  0.00000000000E+00  0.25414997462E+04  0.25414997462E+04  0.00000000000E+00 0. -1.
          1   -1    0    0  501    0 -0.00000000000E+00 -0.00000000000E+00 -0.38675965191E+03  0.38675965191E+03  0.00000000000E+00 0. -1.
         25    2    1    2    0    0 -0.48541814724E+02  0.79796388218E+02  0.91025829133E+03  0.92353409046E+03  0.12498515097E+03 0.  0.
          2    1    1    2  501    0  0.25379601461E+02 -0.52675804526E+02 -0.37767604603E+03  0.38217543131E+03  0.00000000000E+00 0. -1.
          1    1    1    2  502    0  0.23162213262E+02 -0.27120583692E+02  0.16221578490E+04  0.16225498763E+04  0.00000000000E+00 0. -1.
         22    1    3    3    0    0 -0.83397662665E+02  0.33663261836E+02  0.68903043352E+03  0.69487504175E+03  0.00000000000E+00 0.  1.
         22    1    3    3    0    0  0.34855847941E+02  0.46133126382E+02  0.22122785781E+03  0.22865904871E+03  0.00000000000E+00 0.  1.
</event>
<event>
 7    1  0.6294601E-006  0.7668787E+02  0.7818608E-02  0.1351342E+00
          2   -1    0    0  502    0  0.00000000000E+00  0.00000000000E+00  0.87227655215E+03  0.87227655215E+03  0.00000000000E+00 0. -1.
          1   -1    0    0  501    0 -0.00000000000E+00 -0.00000000000E+00 -0.20155548038E+03  0.20155548038E+03  0.00000000000E+00 0. -1.
         25    2    1    2    0    0  0.52699473271E+02 -0.55915284873E+02  0.27760399660E+03  0.31399651128E+03  0.12500430634E+03 0.  0.
          2    1    1    2  501    0 -0.77060468684E+02 -0.84319867985E+01 -0.17298862934E+03  0.18956392092E+03  0.00000000000E+00 0. -1.
          1    1    1    2  502    0  0.24360995412E+02  0.64347271672E+02  0.56610570451E+03  0.57027160033E+03  0.00000000000E+00 0. -1.
         22    1    3    3    0    0  0.58972062631E+02  0.25795943792E+02  0.11054721054E+03  0.12792115011E+03  0.00000000000E+00 0. -1.
         22    1    3    3    0    0 -0.62725893603E+01 -0.81711228665E+02  0.16705678606E+03  0.18607536118E+03  0.00000000000E+00 0. -1.
</event>
<event>
 7    1  0.6294601E-006  0.5873302E+02  0.7818608E-02  0.1499442E+00
          2   -1    0    0  502    0  0.00000000000E+00  0.00000000000E+00  0.12112093149E+04  0.12112093149E+04  0.00000000000E+00 0. -1.
          1   -1    0    0  501    0 -0.00000000000E+00 -0.00000000000E+00 -0.12181277667E+03  0.12181277667E+03  0.00000000000E+00 0. -1.
         25    2    1    2    0    0 -0.55043669239E+02 -0.65241750759E+02 -0.18604187531E+01  0.15137724968E+03  0.12500127599E+03 0.  0.
          2    1    1    2  501    0  0.11025610895E+02  0.26740872769E+02 -0.39731770674E+02  0.49145213124E+02  0.00000000000E+00 0. -1.
          1    1    1    2  502    0  0.44018058344E+02  0.38500877989E+02  0.11309887276E+04  0.11324996288E+04  0.00000000000E+00 0. -1.
         22    1    3    3    0    0 -0.56695220434E+02 -0.13045023558E+02  0.50784266689E+02  0.77224105063E+02  0.00000000000E+00 0. -1.
         22    1    3    3    0    0  0.16515511956E+01 -0.52196727201E+02 -0.52644685442E+02  0.74153144621E+02  0.00000000000E+00 0. -1.
</event>
<event>
 7    1  0.6294601E-006  0.7142229E+02  0.7818608E-02  0.1377224E+00
          2   -1    0    0  502    0  0.00000000000E+00  0.00000000000E+00  0.93473163039E+03  0.93473163039E+03  0.00000000000E+00 0. -1.
          1   -1    0    0  501    0 -0.00000000000E+00 -0.00000000000E+00 -0.40268910660E+03  0.40268910660E+03  0.00000000000E+00 0. -1.
         25    2    1    2    0    0 -0.10949352639E+03 -0.33499355000E+02  0.48645259633E+03  0.51514309148E+03  0.12500094847E+03 0.  0.
          2    1    1    2  501    0  0.44598540757E+02  0.39413230142E+02 -0.38358942516E+03  0.38817944258E+03  0.00000000000E+00 0. -1.
          1    1    1    2  502    0  0.64894985636E+02 -0.59138751423E+01  0.42917935261E+03  0.43409820293E+03  0.00000000000E+00 0. -1.
         22    1    3    3    0    0  0.36607027811E+00 -0.21987990414E+02  0.28116526962E+03  0.28202396099E+03  0.00000000000E+00 0. -1.
         22    1    3    3    0    0 -0.10985959667E+03 -0.11511364586E+02  0.20528732671E+03  0.23311913050E+03  0.00000000000E+00 0. -1.
</event>
<event>
 7    1  0.6294601E-006  0.2882396E+03  0.7818608E-02  0.1196765E+00
          2   -1    0    0  502    0  0.00000000000E+00  0.00000000000E+00  0.76519284841E+03  0.76519284841E+03  0.00000000000E+00 0. -1.
          1   -1    0    0  501    0 -0.00000000000E+00 -0.00000000000E+00 -0.98835328953E+03  0.98835328953E+03  0.00000000000E+00 0. -1.
         25    2    1    2    0    0  0.27458093433E+03 -0.42578480770E+02  0.10785910015E+03  0.32321163039E+03  0.12499822404E+03 0.  0.
          2    1    1    2  501    0 -0.28807810424E+03 -0.37568405539E+02 -0.85349039178E+03  0.90157985120E+03  0.00000000000E+00 0. -1.
          1    1    1    2  502    0  0.13497169907E+02  0.80146886309E+02  0.52247085051E+03  0.52875465635E+03  0.00000000000E+00 0. -1.
         22    1    3    3    0    0  0.11933043881E+03  0.39327942327E+02  0.69323255098E+02  0.14349966680E+03  0.00000000000E+00 0.  1.
         22    1    3    3    0    0  0.15525049552E+03 -0.81906423097E+02  0.38535845054E+02  0.17971196359E+03  0.00000000000E+00 0.  1.
</event>
<event>
 7    1  0.6294601E-006  0.7476623E+02  0.7818608E-02  0.1389694E+00
          2   -1    0    0  502    0  0.00000000000E+00  0.00000000000E+00  0.36833343175E+03  0.36833343175E+03  0.00000000000E+00 0. -1.
          1   -1    0    0  501    0 -0.00000000000E+00 -0.00000000000E+00 -0.18038924455E+04  0.18038924455E+04  0.00000000000E+00 0. -1.
         25    2    1    2    0    0  0.12439968305E+02 -0.38990372439E+02  0.14242986676E+03  0.19387285840E+03  0.12500166529E+03 0.  0.
          2    1    1    2  501    0  0.40324754293E+02 -0.31848697296E+02 -0.17680354775E+04  0.17687820315E+04  0.00000000000E+00 0. -1.
          1    1    1    2  502    0 -0.52764722598E+02  0.70839069735E+02  0.19004659692E+03  0.20957098739E+03  0.00000000000E+00 0. -1.
         22    1    3    3    0    0  0.13049507582E+01  0.36811487623E+02  0.58845719467E+01  0.37301698413E+02  0.00000000000E+00 0.  1.
         22    1    3    3    0    0  0.11135017547E+02 -0.75801860062E+02  0.13654529481E+03  0.15657115999E+03  0.00000000000E+00 0.  1.
</event>
<event>
 7    1  0.6294601E-006  0.1323217E+03  0.7818608E-02  0.1294599E+00
          2   -1    0    0  502    0  0.00000000000E+00  0.00000000000E+00  0.23650361272E+04  0.23650361272E+04  0.00000000000E+00 0. -1.
          1   -1    0    0  501    0 -0.00000000000E+00 -0.00000000000E+00 -0.48852758598E+03  0.48852758598E+03  0.00000000000E+00 0. -1.
         25    2    1    2    0    0 -0.70994578341E+02 -0.98651149061E+02  0.87072726025E+03  0.88801061344E+03  0.12499843392E+03 0.  0.
          2    1    1    2  501    0 -0.55123451574E+02  0.36410719440E+02 -0.47426282760E+03  0.47884189984E+03  0.00000000000E+00 0. -1.
          1    1    1    2  502    0  0.12611802991E+03  0.62240429620E+02  0.14800441086E+04  0.14867111999E+04  0.00000000000E+00 0. -1.
         22    1    3    3    0    0  0.59377198837E+01 -0.26870357687E+02  0.29940916599E+02  0.40666093081E+02  0.00000000000E+00 0.  1.
         22    1    3    3    0    0 -0.76932298224E+02 -0.71780791373E+02  0.84078634365E+03  0.84734452036E+03  0.00000000000E+00 0.  1.
</event>
<event>
 7    1  0.6294601E-006  0.1145567E+03  0.7818608E-02  0.1325830E+00
          2   -1    0    0  502    0  0.00000000000E+00  0.00000000000E+00  0.20140561709E+04  0.20140561709E+04  0.00000000000E+00 0. -1.
          1   -1    0    0  501    0 -0.00000000000E+00 -0.00000000000E+00 -0.24288734733E+03  0.24288734733E+03  0.00000000000E+00 0. -1.
         25    2    1    2    0    0 -0.68941920762E+02 -0.24206221255E+02  0.26503032611E+01  0.14478520089E+03  0.12496719851E+03 0.  0.
          2    1    1    2  501    0  0.11260030437E+03  0.61594391381E+02 -0.14736062239E+03  0.19541711958E+03  0.00000000000E+00 0. -1.
          1    1    1    2  502    0 -0.43658383613E+02 -0.37388170127E+02  0.19158791427E+04  0.19167411977E+04  0.00000000000E+00 0. -1.
         22    1    3    3    0    0 -0.64802899896E+02 -0.32885303592E+02 -0.51960042667E+02  0.89334791998E+02  0.00000000000E+00 0. -1.
         22    1    3    3    0    0 -0.41390208657E+01  0.86790823371E+01  0.54610345928E+02  0.55450408892E+02  0.00000000000E+00 0. -1.
</event>
<event>
 7    1  0.6294601E-006  0.4289137E+02  0.7818608E-02  0.1560754E+00
          2   -1    0    0  502    0  0.00000000000E+00  0.00000000000E+00  0.14295941034E+03  0.14295941034E+03  0.00000000000E+00 0. -1.
          1   -1    0    0  501    0 -0.00000000000E+00 -0.00000000000E+00 -0.86384799918E+03  0.86384799918E+03  0.00000000000E+00 0. -1.
         25    2    1    2    0    0 -0.25892543517E+02 -0.15922783710E+02  0.20316559044E+02  0.13023507273E+03  0.12499781097E+03 0.  0.
          2    1    1    2  501    0  0.73347046386E+01 -0.25390407399E+02 -0.80107001816E+03  0.80150586066E+03  0.00000000000E+00 0. -1.
          1    1    1    2  502    0  0.18557838878E+02  0.41313191109E+02  0.59864870280E+02  0.75066476120E+02  0.00000000000E+00 0. -1.
         22    1    3    3    0    0 -0.66976059352E+02 -0.20962289577E+02  0.43721327571E+02  0.82684730121E+02  0.00000000000E+00 0. -1.
         22    1    3    3    0    0  0.41083515835E+02  0.50395058670E+01 -0.23404768527E+02  0.47550342612E+02  0.00000000000E+00 0. -1.
</event>
<event>
 7    1  0.6294601E-006  0.1224063E+03  0.7818608E-02  0.1340832E+00
          2   -1    0    0  502    0  0.00000000000E+00  0.00000000000E+00  0.20574479779E+03  0.20574479779E+03  0.00000000000E+00 0. -1.
          1   -1    0    0  501    0 -0.00000000000E+00 -0.00000000000E+00 -0.61044624444E+03  0.61044624444E+03  0.00000000000E+00 0. -1.
         25    2    1    2    0    0  0.45337269604E+02 -0.73824851822E+02 -0.32400764248E+03  0.35792621598E+03  0.12499858774E+03 0.  0.
          2    1    1    2  501    0  0.45768234357E+02 -0.11433675994E+02 -0.24637650144E+03  0.25085222878E+03  0.00000000000E+00 0. -1.
          1    1    1    2  502    0 -0.91105503961E+02  0.85258527816E+02  0.16568269727E+03  0.20741259748E+03  0.00000000000E+00 0. -1.
         22    1    3    3    0    0 -0.36279522932E+02 -0.49197121671E+02 -0.89319451245E+02  0.10823365898E+03  0.00000000000E+00 0.  1.
         22    1    3    3    0    0  0.81616792536E+02 -0.24627730151E+02 -0.23468819124E+03  0.24969255700E+03  0.00000000000E+00 0.  1.
</event>
<event>
 7    1  0.6294601E-006  0.2307910E+03  0.7818608E-02  0.1361100E+00
          2   -1    0    0  502    0  0.00000000000E+00  0.00000000000E+00  0.10538030100E+04  0.10538030100E+04  0.00000000000E+00 0. -1.
          1   -1    0    0  501    0 -0.00000000000E+00 -0.00000000000E+00 -0.44374476314E+03  0.44374476314E+03  0.00000000000E+00 0. -1.
         25    2    1    2    0    0  0.15904232959E+03 -0.18093498611E+03 -0.37499096515E+02  0.27397603787E+03  0.12499902113E+03 0.  0.
          2    1    1    2  501    0  0.54946591818E+01  0.20322819363E+02 -0.27346902723E+03  0.27427817470E+03  0.00000000000E+00 0. -1.
          1    1    1    2  502    0 -0.16453698878E+03  0.16061216675E+03  0.92102637060E+03  0.94929356056E+03  0.00000000000E+00 0. -1.
         22    1    3    3    0    0  0.66807722341E+02 -0.11629321598E+03  0.36765342432E+02  0.13906500009E+03  0.00000000000E+00 0.  1.
         22    1    3    3    0    0  0.92234607252E+02 -0.64641770134E+02 -0.74264438947E+02  0.13491103777E+03  0.00000000000E+00 0.  1.
</event>
<event>
 7    1  0.6294601E-006  0.1633349E+03  0.7818608E-02  0.1212860E+00
          2   -1    0    0  502    0  0.00000000000E+00  0.00000000000E+00  0.12352389117E+04  0.12352389117E+04  0.00000000000E+00 0. -1.
          1   -1    0    0  501    0 -0.00000000000E+00 -0.00000000000E+00 -0.73836526669E+03  0.73836526669E+03  0.00000000000E+00 0. -1.
         25    2    1    2    0    0 -0.44404360638E+02  0.96899420514E+02 -0.12458303131E+03  0.20617399007E+03  0.12500215018E+03 0.  0.
          2    1    1    2  501    0 -0.11289749293E+03 -0.42402254511E+02 -0.56074402745E+03  0.57356574115E+03  0.00000000000E+00 0. -1.
          1    1    1    2  502    0  0.15730185356E+03 -0.54497166003E+02  0.11822007038E+04  0.11938644472E+04  0.00000000000E+00 0. -1.
         22    1    3    3    0    0 -0.42633585941E+02  0.55057689091E+02  0.51735743243E+01  0.69826482437E+02  0.00000000000E+00 0. -1.
         22    1    3    3    0    0 -0.17707746963E+01  0.41841731423E+02 -0.12975660563E+03  0.13634750763E+03  0.00000000000E+00 0. -1.
</event>
<event>
 7    1  0.6294601E-006  0.7612521E+02  0.7818608E-02  0.1422547E+00
          2   -1    0    0  502    0  0.00000000000E+00  0.00000000000E+00  0.15154351757E+04  0.15154351757E+04  0.00000000000E+00 0. -1.
          1   -1    0    0  501    0 -0.00000000000E+00 -0.00000000000E+00 -0.77161923932E+03  0.77161923932E+03  0.00000000000E+00 0. -1.
         25    2    1    2    0    0 -0.91252061478E+02 -0.36529069470E+02 -0.13876722817E+03  0.21105659709E+03  0.12500892737E+03 0.  0.
          2    1    1    2  501    0  0.55053572971E+02  0.51036963665E+02 -0.59408772751E+03  0.59881207030E+03  0.00000000000E+00 0. -1.
          1    1    1    2  502    0  0.36198488506E+02 -0.14507894195E+02  0.14766708920E+04  0.14771857476E+04  0.00000000000E+00 0. -1.
         22    1    3    3    0    0 -0.35000146788E+02  0.28823408785E+02 -0.11190499471E+03  0.12074157117E+03  0.00000000000E+00 0.  1.
         22    1    3    3    0    0 -0.56251914690E+02 -0.65352478255E+02 -0.26862233460E+02  0.90315025919E+02  0.00000000000E+00 0.  1.
</event>
<event>
 7    1  0.6294601E-006  0.1430459E+03  0.7818608E-02  0.1276631E+00
          2   -1    0    0  502    0  0.00000000000E+00  0.00000000000E+00  0.29851459980E+04  0.29851459980E+04  0.00000000000E+00 0. -1.
          1   -1    0    0  501    0 -0.00000000000E+00 -0.00000000000E+00 -0.24339889598E+04  0.24339889598E+04  0.00000000000E+00 0. -1.
         25    2    1    2    0    0  0.11542451906E+03 -0.57628653942E+02 -0.28106091987E+03  0.33356401537E+03  0.12500332122E+03 0.  0.
          2    1    1    2  501    0  0.27494307119E+02  0.66970975351E+02 -0.21243263503E+04  0.21255595713E+04  0.00000000000E+00 0. -1.
          1    1    1    2  502    0 -0.14291882618E+03 -0.93423214088E+01  0.29565443084E+04  0.29600113712E+04  0.00000000000E+00 0. -1.
         22    1    3    3    0    0  0.33577351392E+02  0.33946371206E+02 -0.13230235175E+03  0.14065456596E+03  0.00000000000E+00 0.  1.
         22    1    3    3    0    0  0.81847167664E+02 -0.91575025148E+02 -0.14875856812E+03  0.19290944942E+03  0.00000000000E+00 0.  1.
</event>
<event>
 7    1  0.6294601E-006  0.1679748E+03  0.7818608E-02  0.1334007E+00
          2   -1    0    0  502    0  0.00000000000E+00  0.00000000000E+00  0.84618029987E+03  0.84618029987E+03  0.00000000000E+00 0. -1.
          1   -1    0    0  501    0 -0.00000000000E+00 -0.00000000000E+00 -0.74678718485E+03  0.74678718485E+03  0.00000000000E+00 0. -1.
         25    2    1    2    0    0 -0.17416379797E+03 -0.16500479216E+02  0.71402116309E+02  0.22655738083E+03  0.12499876103E+03 0.  0.
          2    1    1    2  501    0  0.16663196156E+03 -0.19193115453E+02 -0.65820706878E+03  0.67924305789E+03  0.00000000000E+00 0. -1.
          1    1    1    2  502    0  0.75318364133E+01  0.35693594669E+02  0.68619806750E+03  0.68716704599E+03  0.00000000000E+00 0. -1.
         22    1    3    3    0    0 -0.12211122303E+03 -0.90846957584E+01  0.10736835258E+03  0.16285467639E+03  0.00000000000E+00 0.  1.
         22    1    3    3    0    0 -0.52052574938E+02 -0.74157834578E+01 -0.35966236267E+02  0.63702704442E+02  0.00000000000E+00 0.  1.
</event>
<event>
 7    1  0.6294601E-006  0.4824153E+02  0.7818608E-02  0.1499907E+00
          2   -1    0    0  502    0  0.00000000000E+00  0.00000000000E+00  0.30613678995E+03  0.30613678995E+03  0.00000000000E+00 0. -1.
          1   -1    0    0  501    0 -0.00000000000E+00 -0.00000000000E+00 -0.62955991963E+03  0.62955991963E+03  0.00000000000E+00 0. -1.
         25    2    1    2    0    0 -0.66604969049E+01  0.11780392626E+02 -0.22648143868E+03  0.25903280316E+03  0.12498404370E+03 0.  0.
          2    1    1    2  501    0 -0.21505438663E+02  0.27743941617E+02 -0.38396497751E+03  0.38556622536E+03  0.00000000000E+00 0. -1.
          1    1    1    2  502    0  0.28165935568E+02 -0.39524334243E+02  0.28702328650E+03  0.29109768106E+03  0.00000000000E+00 0. -1.
         22    1    3    3    0    0  0.39519081356E+02  0.89716037397E+01 -0.16069285407E+02  0.43594373471E+02  0.00000000000E+00 0.  1.
         22    1    3    3    0    0 -0.46179578261E+02  0.28087888862E+01 -0.21041215327E+03  0.21543842969E+03  0.00000000000E+00 0.  1.
</event>
<event>
 7    1  0.6294601E-006  0.2539667E+03  0.7818608E-02  0.1146379E+00
          2   -1    0    0  502    0  0.00000000000E+00  0.00000000000E+00  0.67311302616E+03  0.67311302616E+03  0.00000000000E+00 0. -1.
          1   -1    0    0  501    0 -0.00000000000E+00 -0.00000000000E+00 -0.20670633281E+04  0.20670633281E+04  0.00000000000E+00 0. -1.
         25    2    1    2    0    0 -0.33121015175E+03 -0.18000251264E+03 -0.80756198678E+03  0.89993489794E+03  0.12500155540E+03 0.  0.
          2    1    1    2  501    0  0.83292258889E+02  0.14118117337E+03 -0.11823210734E+04  0.11936301122E+04  0.00000000000E+00 0. -1.
          1    1    1    2  502    0  0.24791789287E+03  0.38821339262E+02  0.59593275825E+03  0.64661134412E+03  0.00000000000E+00 0. -1.
         22    1    3    3    0    0 -0.19588890384E+03 -0.54923178408E+02 -0.52017499438E+03  0.55854368043E+03  0.00000000000E+00 0.  1.
         22    1    3    3    0    0 -0.13532124792E+03 -0.12507933423E+03 -0.28738699240E+03  0.34139121751E+03  0.00000000000E+00 0.  1.
</event>
<event>
 7    1  0.6294601E-006  0.1108374E+03  0.7818608E-02  0.1315824E+00
          2   -1    0    0  502    0  0.00000000000E+00  0.00000000000E+00  0.12362766300E+04  0.12362766300E+04  0.00000000000E+00 0. -1.
          1   -1    0    0  501    0 -0.00000000000E+00 -0.00000000000E+00 -0.37885818053E+03  0.37885818053E+03  0.00000000000E+00 0. -1.
         25    2    1    2    0    0 -0.86686434301E+02 -0.12896544647E+03  0.25152025779E+03  0.32098736875E+03  0.12499530610E+03 0.  0.
          2    1    1    2  501    0  0.89127060592E+02  0.64054834011E+02 -0.33422368072E+03  0.35178420011E+03  0.00000000000E+00 0. -1.
          1    1    1    2  502    0 -0.24406262912E+01  0.64910612455E+02  0.94012187237E+03  0.94236324163E+03  0.00000000000E+00 0. -1.
         22    1    3    3    0    0 -0.26548616769E+02 -0.12322428217E+03  0.11071701283E+03  0.16777159980E+03  0.00000000000E+00 0.  1.
         22    1    3    3    0    0 -0.60137817532E+02 -0.57411642952E+01  0.14080324496E+03  0.15321576896E+03  0.00000000000E+00 0.  1.
</event>
<event>
 7    1  0.6294601E-006  0.6553039E+02  0.7818608E-02  0.1483546E+00
          2   -1    0    0  502    0  0.00000000000E+00  0.00000000000E+00  0.95802504949E+02  0.95802504949E+02  0.00000000000E+00 0. -1.
          1   -1    0    0  501    0 -0.00000000000E+00 -0.00000000000E+00 -0.53751092207E+03  0.53751092207E+03  0.00000000000E+00 0. -1.
         25    2    1    2    0    0  0.57120149159E+02 -0.29991153065E+02 -0.38907044377E+03  0.41371793552E+03  0.12499815701E+03 0.  0.
          2    1    1    2  501    0  0.86051637127E+01  0.27645491036E+02 -0.12118785137E+03  0.12459862494E+03  0.00000000000E+00 0. -1.
          1    1    1    2  502    0 -0.65725312872E+02  0.23456620293E+01  0.68549878009E+02  0.94996866567E+02  0.00000000000E+00 0. -1.
         22    1    3    3    0    0  0.61230564916E+02 -0.53165811190E+02 -0.37989985339E+03  0.38845808546E+03  0.00000000000E+00 0.  1.
         22    1    3    3    0    0 -0.41104157567E+01  0.23174658124E+02 -0.91705903799E+01  0.25259850055E+02  0.00000000000E+00 0.  1.
</event>
<event>
 7    1  0.6294601E-006  0.4229099E+02  0.7818608E-02  0.1553998E+00
          2   -1    0    0  502    0  0.00000000000E+00  0.00000000000E+00  0.11170419064E+04  0.11170419064E+04  0.00000000000E+00 0. -1.
          1   -1    0    0  501    0 -0.00000000000E+00 -0.00000000000E+00 -0.10077296751E+03  0.10077296751E+03  0.00000000000E+00 0. -1.
         25    2    1    2    0    0 -0.54551140781E+02  0.32514535984E+02  0.14409700121E+03  0.20105173541E+03  0.12499933018E+03 0.  0.
          2    1    1    2  501    0  0.40877246884E+02 -0.81025009918E+01 -0.66064450572E+02  0.78109611857E+02  0.00000000000E+00 0. -1.
          1    1    1    2  502    0  0.13673893897E+02 -0.24412034992E+02  0.93823638823E+03  0.93865352662E+03  0.00000000000E+00 0. -1.
         22    1    3    3    0    0  0.29574974450E+02 -0.65589897413E+00  0.92110186042E+02  0.96743969786E+02  0.00000000000E+00 0.  1.
         22    1    3    3    0    0 -0.84126115231E+02  0.33170434958E+02  0.51986815165E+02  0.10430776563E+03  0.00000000000E+00 0.  1.
</event>
<event>
 7    1  0.6294601E-006  0.8536762E+02  0.7818608E-02  0.1452772E+00
          2   -1    0    0  502    0  0.00000000000E+00  0.00000000000E+00  0.31703541760E+03  0.31703541760E+03  0.00000000000E+00 0. -1.
          1   -1    0    0  501    0 -0.00000000000E+00 -0.00000000000E+00 -0.21025515840E+04  0.21025515840E+04  0.00000000000E+00 0. -1.
         25    2    1    2    0    0 -0.29140107324E+02  0.10152051403E+03  0.18488014571E+02  0.16468399499E+03  0.12499380344E+03 0.  0.
          2    1    1    2  501    0  0.69472490403E+01 -0.84905988405E+02 -0.20277035673E+04  0.20294923129E+04  0.00000000000E+00 0. -1.
          1    1    1    2  502    0  0.22192858284E+02 -0.16614525630E+02  0.22369938632E+03  0.22541069376E+03  0.00000000000E+00 0. -1.
         22    1    3    3    0    0 -0.70209153163E+02  0.22812476757E+02  0.17643718074E+02  0.75901482667E+02  0.00000000000E+00 0.  1.
         22    1    3    3    0    0  0.41069045838E+02  0.78708037278E+02  0.84429649688E+00  0.88782512325E+02  0.00000000000E+00 0.  1.
</event>
<event>
 7    1  0.6294601E-006  0.1656663E+03  0.7818608E-02  0.1277252E+00
          2   -1    0    0  502    0  0.00000000000E+00  0.00000000000E+00  0.11306686458E+04  0.11306686458E+04  0.00000000000E+00 0. -1.
          1   -1    0    0  501    0 -0.00000000000E+00 -0.00000000000E+00 -0.14242278407E+03  0.14242278407E+03  0.00000000000E+00 0. -1.
         25    2    1    2    0    0 -0.64501357134E+02  0.87883363423E+02  0.73023564462E+03  0.74883460669E+03  0.12500104347E+03 0.  0.
          2    1    1    2  501    0  0.11241297986E+03 -0.12745347215E+03 -0.74812842719E+02  0.18568259757E+03  0.00000000000E+00 0. -1.
          1    1    1    2  502    0 -0.47911622723E+02  0.39570108729E+02  0.33282305984E+03  0.33857422563E+03  0.00000000000E+00 0. -1.
         22    1    3    3    0    0  0.14984688864E+02  0.88067843822E+00  0.35964509489E+03  0.35995820698E+03  0.00000000000E+00 0. -1.
         22    1    3    3    0    0 -0.79486045997E+02  0.87002684985E+02  0.37059054972E+03  0.38887639971E+03  0.00000000000E+00 0. -1.
</event>
<event>
 7    1  0.6294601E-006  0.7662933E+02  0.7818608E-02  0.1373275E+00
          2   -1    0    0  502    0  0.00000000000E+00  0.00000000000E+00  0.24076420989E+04  0.24076420989E+04  0.00000000000E+00 0. -1.
          1   -1    0    0  501    0 -0.00000000000E+00 -0.00000000000E+00 -0.41805362803E+03  0.41805362803E+03  0.00000000000E+00 0. -1.
         25    2    1    2    0    0  0.10180475105E+03  0.24804641981E+02  0.76235733806E+03  0.77961111522E+03  0.12500120988E+03 0.  0.
          2    1    1    2  501    0 -0.49352467821E+02  0.29119415633E+02 -0.40655200612E+03  0.41057050568E+03  0.00000000000E+00 0. -1.
          1    1    1    2  502    0 -0.52452283227E+02 -0.53924057614E+02  0.16337831389E+04  0.16355141061E+04  0.00000000000E+00 0. -1.
         22    1    3    3    0    0  0.19912897146E+01  0.40470839309E+02  0.78603766566E+02  0.88433060489E+02  0.00000000000E+00 0. -1.
         22    1    3    3    0    0  0.99813461333E+02 -0.15666197328E+02  0.68375357150E+03  0.69117805473E+03  0.00000000000E+00 0. -1.
</event>
<event>
 7    1  0.6294601E-006  0.4178480E+02  0.7818608E-02  0.1565716E+00
          2   -1    0    0  502    0  0.00000000000E+00  0.00000000000E+00  0.24235254716E+03  0.24235254716E+03  0.00000000000E+00 0. -1.
          1   -1    0    0  501    0 -0.00000000000E+00 -0.00000000000E+00 -0.93851487344E+03  0.93851487344E+03  0.00000000000E+00 0. -1.
         25    2    1    2    0    0 -0.31656867870E+02 -0.40809397141E+02  0.71884209950E+02  0.15316339490E+03  0.12499648683E+03 0.  0.
          2    1    1    2  501    0 -0.68751711974E+01  0.25377271166E+02 -0.89435956798E+03  0.89474594758E+03  0.00000000000E+00 0. -1.
          1    1    1    2  502    0  0.38532039068E+02  0.15432125976E+02  0.12631303175E+03  0.13295807811E+03  0.00000000000E+00 0. -1.
         22    1    3    3    0    0  0.56172027204E+01 -0.69830186879E+02  0.36216479859E+01  0.70149300069E+02  0.00000000000E+00 0. -1.
         22    1    3    3    0    0 -0.37274070591E+02  0.29020789738E+02  0.68262561964E+02  0.83014094835E+02  0.00000000000E+00 0. -1.
</event>
<event>
 7    1  0.6294601E-006  0.5827746E+02  0.7818608E-02  0.1478580E+00
          2   -1    0    0  502    0  0.00000000000E+00  0.00000000000E+00  0.13059211980E+03  0.13059211980E+03  0.00000000000E+00 0. -1.
          1   -1    0    0  501    0 -0.00000000000E+00 -0.00000000000E+00 -0.47527573672E+03  0.47527573672E+03  0.00000000000E+00 0. -1.
         25    2    1    2    0    0  0.31935306498E+02 -0.45588000953E+02 -0.11203773137E+03  0.17684698454E+03  0.12499709220E+03 0.  0.
          2    1    1    2  501    0 -0.30939096420E+02 -0.13403685910E+02 -0.32100679834E+03  0.32277275453E+03  0.00000000000E+00 0. -1.
          1    1    1    2  502    0 -0.99621007800E+00  0.58991686863E+02  0.88360912787E+02  0.10624811745E+03  0.00000000000E+00 0. -1.
         22    1    3    3    0    0 -0.17573147955E+02 -0.12208018620E+02 -0.11508671266E+03  0.11705897095E+03  0.00000000000E+00 0. -1.
         22    1    3    3    0    0  0.49508454454E+02 -0.33379982333E+02  0.30489812896E+01  0.59788013597E+02  0.00000000000E+00 0. -1.
</event>
<event>
 7    1  0.6294601E-006  0.2539024E+02  0.7818608E-02  0.1682110E+00
          2   -1    0    0  502    0  0.00000000000E+00  0.00000000000E+00  0.17280820916E+03  0.17280820916E+03  0.00000000000E+00 0. -1.
          1   -1    0    0  501    0 -0.00000000000E+00 -0.00000000000E+00 -0.42535341883E+03  0.42535341883E+03  0.00000000000E+00 0. -1.
         25    2    1    2    0    0  0.20512973548E+02  0.32668024196E+02 -0.31470352131E+03  0.34080885155E+03  0.12499754032E+03 0.  0.
          2    1    1    2  501    0 -0.20917549997E+00 -0.24410615886E+02 -0.95299654002E+02  0.98376551959E+02  0.00000000000E+00 0. -1.
          1    1    1    2  502    0 -0.20303798048E+02 -0.82574083102E+01  0.15745796563E+03  0.15897622448E+03  0.00000000000E+00 0. -1.
         22    1    3    3    0    0  0.35543174138E+02 -0.26715375481E+02 -0.24055775705E+03  0.24463250600E+03  0.00000000000E+00 0. -1.
         22    1    3    3    0    0 -0.15030200591E+02  0.59383399677E+02 -0.74145764258E+02  0.96176345555E+02  0.00000000000E+00 0. -1.
</event>
<event>
 7    1  0.6294601E-006  0.1272436E+03  0.7818608E-02  0.1379936E+00
          2   -1    0    0  502    0  0.00000000000E+00  0.00000000000E+00  0.38914363295E+03  0.38914363295E+03  0.00000000000E+00 0. -1.
          1   -1    0    0  501    0 -0.00000000000E+00 -0.00000000000E+00 -0.96393072916E+03  0.96393072916E+03  0.00000000000E+00 0. -1.
         25    2    1    2    0    0 -0.90868002168E+02  0.65737051138E+02  0.28639267581E+03  0.33200079616E+03  0.12500164071E+03 0.  0.
          2    1    1    2  501    0  0.82400029678E+02 -0.97296336850E+02 -0.93326192819E+03  0.94193108488E+03  0.00000000000E+00 0. -1.
          1    1    1    2  502    0  0.84679724897E+01  0.31559285712E+02  0.72082156168E+02  0.79142481074E+02  0.00000000000E+00 0. -1.
         22    1    3    3    0    0 -0.87346082790E+02  0.27858432090E+02  0.27842787616E+03  0.29313395000E+03  0.00000000000E+00 0.  1.
         22    1    3    3    0    0 -0.35219193775E+01  0.37878619048E+02  0.79647996504E+01  0.38866846162E+02  0.00000000000E+00 0.  1.
</event>
<event>
 7    1  0.6294601E-006  0.6379466E+02  0.7818608E-02  0.1393413E+00
          2   -1    0    0  502    0  0.00000000000E+00  0.00000000000E+00  0.65545269131E+02  0.65545269131E+02  0.00000000000E+00 0. -1.
          1   -1    0    0  501    0 -0.00000000000E+00 -0.00000000000E+00 -0.34792227993E+03  0.34792227993E+03  0.00000000000E+00 0. -1.
         25    2    1    2    0    0  0.79543745342E+02  0.57760335053E+02 -0.18862335166E+03  0.24671132031E+03  0.12499697215E+03 0.  0.
          2    1    1    2  501    0 -0.19014517604E+02 -0.55274686191E+02 -0.88348462523E+02  0.10593532765E+03  0.00000000000E+00 0. -1.
          1    1    1    2  502    0 -0.60529227738E+02 -0.24856488621E+01 -0.54051966097E+01  0.60820901105E+02  0.00000000000E+00 0. -1.
         22    1    3    3    0    0 -0.29246072228E+02  0.38546446926E+02 -0.52401086288E+02  0.71323454456E+02  0.00000000000E+00 0.  1.
         22    1    3    3    0    0  0.10878981757E+03  0.19213888127E+02 -0.13622226537E+03  0.17538786585E+03  0.00000000000E+00 0.  1.
</event>
<event>
 7    1  0.6294601E-006  0.8685748E+02  0.7818608E-02  0.1408430E+00
          2   -1    0    0  502    0  0.00000000000E+00  0.00000000000E+00  0.20061758628E+04  0.20061758628E+04  0.00000000000E+00 0. -1.
          1   -1    0    0  501    0 -0.00000000000E+00 -0.00000000000E+00 -0.34606973447E+02  0.34606973447E+02  0.00000000000E+00 0. -1.
         25    2    1    2    0    0 -0.87074675134E+02 -0.63881142985E+02  0.28343683557E+03  0.32806107427E+03  0.12499931686E+03 0.  0.
          2    1    1    2  501    0  0.50540750833E+01  0.37789246184E+02  0.21306339572E+02  0.43675289445E+02  0.00000000000E+00 0. -1.
          1    1    1    2  502    0  0.82020600051E+02  0.26091896801E+02  0.16668257142E+04  0.16690464725E+04  0.00000000000E+00 0. -1.
         22    1    3    3    0    0 -0.78514526095E+02 -0.14831318386E+02  0.26188931756E+03  0.27380743866E+03  0.00000000000E+00 0. -1.
         22    1    3    3    0    0 -0.85601490388E+01 -0.49049824600E+02  0.21547518011E+02  0.54253635613E+02  0.00000000000E+00 0. -1.
</event>
<event>
 7    1  0.6294601E-006  0.8059013E+02  0.7818608E-02  0.1440941E+00
          2   -1    0    0  502    0  0.00000000000E+00  0.00000000000E+00  0.75843226630E+03  0.75843226630E+03  0.00000000000E+00 0. -1.
          1   -1    0    0  501    0 -0.00000000000E+00 -0.00000000000E+00 -0.55863327723E+03  0.55863327723E+03  0.00000000000E+00 0. -1.
         25    2    1    2    0    0 -0.60056591068E+02 -0.40638629585E+02 -0.38108429383E+03  0.40756458346E+03  0.12500143338E+03 0.  0.
          2    1    1    2  501    0  0.87171849184E+02  0.23545255959E+02 -0.15152632030E+03  0.17639029483E+03  0.00000000000E+00 0. -1.
          1    1    1    2  502    0 -0.27115258116E+02  0.17093373626E+02  0.73240960319E+03  0.73311066524E+03  0.00000000000E+00 0. -1.
         22    1    3    3    0    0  0.32298242534E+02 -0.33689877294E+02 -0.80669733196E+02  0.93197586646E+02  0.00000000000E+00 0. -1.
         22    1    3    3    0    0 -0.92354833602E+02 -0.69487522906E+01 -0.30041456063E+03  0.31436699681E+03  0.00000000000E+00 0. -1.
</event>
<event>
 7    1  0.6294601E-006  0.2133217E+03  0.7818608E-02  0.1354655E+00
          2   -1    0    0  502    0  0.00000000000E+00  0.00000000000E+00  0.91204212710E+03  0.91204212710E+03  0.00000000000E+00 0. -1.
          1   -1    0    0  501    0 -0.00000000000E+00 -0.00000000000E+00 -0.28614841110E+03  0.28614841110E+03  0.00000000000E+00 0. -1.
         25    2    1    2    0    0 -0.86494582640E+02  0.18629317760E+03  0.23429014185E+03  0.33571435569E+03  0.12500318876E+03 0.  0.
          2    1    1    2  501    0  0.11045913628E+03 -0.18428633302E+03 -0.18611579237E+03  0.28425650651E+03  0.00000000000E+00 0. -1.
          1    1    1    2  502    0 -0.23964553637E+02 -0.20068445787E+01  0.57771936652E+03  0.57821967600E+03  0.00000000000E+00 0. -1.
         22    1    3    3    0    0 -0.54595867651E+02  0.19871263366E+03  0.19689743007E+03  0.28501932831E+03  0.00000000000E+00 0. -1.
         22    1    3    3    0    0 -0.31898714989E+02 -0.12419456062E+02  0.37392711777E+02  0.50695027378E+02  0.00000000000E+00 0. -1.
</event>
<event>
 7    1  0.6294601E-006  0.7625970E+02  0.7818608E-02  0.1347366E+00
          2   -1    0    0  502    0  0.00000000000E+00  0.00000000000E+00  0.32520317440E+02  0.32520317440E+02  0.00000000000E+00 0. -1.
          1   -1    0    0  501    0 -0.00000000000E+00 -0.00000000000E+00 -0.15268973022E+04  0.15268973022E+04  0.00000000000E+00 0. -1.
         25    2    1    2    0    0 -0.42168708174E+02 -0.14170732244E+02 -0.22123122602E+03  0.25797635948E+03  0.12501814701E+03 0.  0.
          2    1    1    2  501    0 -0.38900329939E+02 -0.60087025775E+02 -0.10524255230E+04  0.10548569419E+04  0.00000000000E+00 0. -1.
          1    1    1    2  502    0  0.81069038114E+02  0.74257758019E+02 -0.22072023578E+03  0.24658431834E+03  0.00000000000E+00 0. -1.
         22    1    3    3    0    0  0.21441137387E+02  0.52442517023E+01 -0.17638790820E+03  0.17776365970E+03  0.00000000000E+00 0. -1.
         22    1    3    3    0    0 -0.63609845561E+02 -0.19414983946E+02 -0.44843317821E+02  0.80212699787E+02  0.00000000000E+00 0. -1.
</event>
<event>
 7    1  0.6294601E-006  0.1365875E+03  0.7818608E-02  0.1322315E+00
          2   -1    0    0  502    0  0.00000000000E+00  0.00000000000E+00  0.40664257591E+02  0.40664257591E+02  0.00000000000E+00 0. -1.
          1   -1    0    0  501    0 -0.00000000000E+00 -0.00000000000E+00 -0.25382631965E+04  0.25382631965E+04  0.00000000000E+00 0. -1.
         25    2    1    2    0    0  0.23239295566E+02  0.16505833480E+03 -0.15757946528E+04  0.15895085905E+04  0.12499781197E+03 0.  0.
          2    1    1    2  501    0 -0.31142849913E+02 -0.11595379196E+03 -0.93111028784E+03  0.93881921960E+03  0.00000000000E+00 0. -1.
          1    1    1    2  502    0  0.79035543470E+01 -0.49104542843E+02  0.93060016989E+01  0.50599643939E+02  0.00000000000E+00 0. -1.
         22    1    3    3    0    0  0.70958963799E+02  0.12041300380E+03 -0.11952332714E+04  0.12033773469E+04  0.00000000000E+00 0.  1.
         22    1    3    3    0    0 -0.47719668233E+02  0.44645330996E+02 -0.38056138137E+03  0.38613124363E+03  0.00000000000E+00 0.  1.
</event>
<event>
 7    1  0.6294601E-006  0.1324833E+03  0.7818608E-02  0.1296015E+00
          2   -1    0    0  502    0  0.00000000000E+00  0.00000000000E+00  0.18192604896E+04  0.18192604896E+04  0.00000000000E+00 0. -1.
          1   -1    0    0  501    0 -0.00000000000E+00 -0.00000000000E+00 -0.54422938296E+02  0.54422938296E+02  0.00000000000E+00 0. -1.
         25    2    1    2    0    0 -0.37299533057E+02 -0.10338854773E+03  0.20297437792E+03  0.26249263307E+03  0.12499334925E+03 0.  0.
          2    1    1    2  501    0  0.90330888138E+01  0.16205418993E+03  0.25222331380E+03  0.29993292115E+03  0.00000000000E+00 0. -1.
          1    1    1    2  502    0  0.28266444243E+02 -0.58665642205E+02  0.13096398596E+04  0.13112578737E+04  0.00000000000E+00 0. -1.
         22    1    3    3    0    0 -0.26084970292E+02  0.22361126743E+02  0.76152122349E+02  0.83543948929E+02  0.00000000000E+00 0.  1.
         22    1    3    3    0    0 -0.11214562765E+02 -0.12574967447E+03  0.12682225557E+03  0.17894868414E+03  0.00000000000E+00 0.  1.
</event>
<event>
 7    1  0.6294601E-006  0.2116033E+02  0.7818608E-02  0.1726175E+00
          2   -1    0    0  502    0  0.00000000000E+00  0.00000000000E+00  0.87279453451E+03  0.87279453451E+03  0.00000000000E+00 0. -1.
          1   -1    0    0  501    0 -0.00000000000E+00 -0.00000000000E+00 -0.13012248222E+04  0.13012248222E+04  0.00000000000E+00 0. -1.
         25    2    1    2    0    0  0.20191616608E+02 -0.20022105061E+02 -0.23529876148E+03  0.26795728786E+03  0.12500805931E+03 0.  0.
          2    1    1    2  501    0 -0.20806761696E+02 -0.11301823894E+01 -0.10493626376E+04  0.10495695040E+04  0.00000000000E+00 0. -1.
          1    1    1    2  502    0  0.61514508745E+00  0.21152287451E+02  0.85623111132E+03  0.85649256486E+03  0.00000000000E+00 0. -1.
         22    1    3    3    0    0  0.36475068582E+02 -0.68057810245E+02 -0.13349119770E+03  0.15421477240E+03  0.00000000000E+00 0.  1.
         22    1    3    3    0    0 -0.16283451974E+02  0.48035705184E+02 -0.10180756377E+03  0.11374251546E+03  0.00000000000E+00 0.  1.
</event>
<event>
 7    1  0.6294601E-006  0.8173205E+02  0.7818608E-02  0.1433824E+00
          2   -1    0    0  502    0  0.00000000000E+00  0.00000000000E+00  0.16167575410E+04  0.16167575410E+04  0.00000000000E+00 0. -1.
          1   -1    0    0  501    0 -0.00000000000E+00 -0.00000000000E+00 -0.19655089524E+03  0.19655089524E+03  0.00000000000E+00 0. -1.
         25    2    1    2    0    0  0.24489500015E+02  0.11056714383E+03  0.71318387050E+02  0.18312829956E+03  0.12499933144E+03 0.  0.
          2    1    1    2  501    0  0.32334953644E+00 -0.33337231329E+02 -0.13754874577E+03  0.14153138524E+03  0.00000000000E+00 0. -1.
          1    1    1    2  502    0 -0.24812849552E+02 -0.77229912500E+02  0.14864370045E+04  0.14886487515E+04  0.00000000000E+00 0. -1.
         22    1    3    3    0    0  0.74561358439E+02  0.71005172578E+02  0.30534307268E+02  0.10739401578E+03  0.00000000000E+00 0.  1.
         22    1    3    3    0    0 -0.50071858423E+02  0.39561971251E+02  0.40784079783E+02  0.75734283775E+02  0.00000000000E+00 0.  1.
</event>
<event>
 7    1  0.6294601E-006  0.2383543E+03  0.7818608E-02  0.1333618E+00
          2   -1    0    0  502    0  0.00000000000E+00  0.00000000000E+00  0.14427389955E+04  0.14427389955E+04  0.00000000000E+00 0. -1.
          1   -1    0    0  501    0 -0.00000000000E+00 -0.00000000000E+00 -0.43024209748E+03  0.43024209748E+03  0.00000000000E+00 0. -1.
         25    2    1    2    0    0  0.25356377102E+03 -0.43104007066E+02  0.16028838738E+03  0.32782405398E+03  0.12499480725E+03 0.  0.
          2    1    1    2  501    0 -0.23808004103E+02 -0.99295462778E+01 -0.33437657025E+03  0.33537010553E+03  0.00000000000E+00 0. -1.
          1    1    1    2  502    0 -0.22975576692E+03  0.53033553344E+02  0.11865850809E+04  0.12097869335E+04  0.00000000000E+00 0. -1.
         22    1    3    3    0    0  0.17814334592E+03  0.91017115223E+01  0.15438517657E+03  0.23590819314E+03  0.00000000000E+00 0.  1.
         22    1    3    3    0    0  0.75420425100E+02 -0.52205718588E+02  0.59032108104E+01  0.91915860838E+02  0.00000000000E+00 0.  1.
</event>
<event>
 7    1  0.6294601E-006  0.4879797E+02  0.7818608E-02  0.1528479E+00
          2   -1    0    0  502    0  0.00000000000E+00  0.00000000000E+00  0.41102768122E+03  0.41102768122E+03  0.00000000000E+00 0. -1.
          1   -1    0    0  501    0 -0.00000000000E+00 -0.00000000000E+00 -0.23336247578E+03  0.23336247578E+03  0.00000000000E+00 0. -1.
         25    2    1    2    0    0 -0.33332506175E+02 -0.18731467703E+01  0.29850070961E+03  0.32533287508E+03  0.12499696526E+03 0.  0.
          2    1    1    2  501    0 -0.23655269508E+02 -0.16116880083E+02 -0.20987755056E+03  0.21182047075E+03  0.00000000000E+00 0. -1.
          1    1    1    2  502    0  0.56987775683E+02  0.17990026853E+02  0.89042046397E+02  0.10723681117E+03  0.00000000000E+00 0. -1.
         22    1    3    3    0    0  0.13522796720E+02 -0.33455659282E+02  0.24458224343E+03  0.24722989498E+03  0.00000000000E+00 0. -1.
         22    1    3    3    0    0 -0.46855302895E+02  0.31582512512E+02  0.53918466183E+02  0.78102980106E+02  0.00000000000E+00 0. -1.
</event>
<event>
 7    1  0.6294601E-006  0.3025238E+02  0.7818608E-02  0.1612100E+00
          2   -1    0    0  502    0  0.00000000000E+00  0.00000000000E+00  0.20528758927E+04  0.20528758927E+04  0.00000000000E+00 0. -1.
          1   -1    0    0  501    0 -0.00000000000E+00 -0.00000000000E+00 -0.13885464812E+02  0.13885464812E+02  0.00000000000E+00 0. -1.
         25    2    1    2    0    0 -0.20107436015E+01  0.46971685629E+01  0.16629403039E+04  0.16676396330E+04  0.12500153827E+03 0.  0.
          2    1    1    2  501    0 -0.12322037932E+02 -0.28002237839E+02  0.10198541780E+02  0.32248537908E+02  0.00000000000E+00 0. -1.
          1    1    1    2  502    0  0.14332781533E+02  0.23305069276E+02  0.36585158219E+03  0.36687318664E+03  0.00000000000E+00 0. -1.
         22    1    3    3    0    0  0.64341126069E+01 -0.54166472411E+02  0.45868948091E+03  0.46192146998E+03  0.00000000000E+00 0.  1.
         22    1    3    3    0    0 -0.84448562083E+01  0.58863640974E+02  0.12042508230E+04  0.12057181630E+04  0.00000000000E+00 0.  1.
</event>
<event>
 7    1  0.6294601E-006  0.6897559E+02  0.7818608E-02  0.1493149E+00
          2   -1    0    0  502    0  0.00000000000E+00  0.00000000000E+00  0.59441745129E+03  0.59441745129E+03  0.00000000000E+00 0. -1.
          1   -1    0    0  501    0 -0.00000000000E+00 -0.00000000000E+00 -0.34251384416E+04  0.34251384416E+04  0.00000000000E+00 0. -1.
         25    2    1    2    0    0 -0.67012086139E+01  0.73262916726E+02 -0.15784042930E+04  0.15850542887E+04  0.12499849972E+03 0.  0.
          2    1    1    2  501    0 -0.18094001964E+02 -0.66414379141E+02 -0.18424862881E+04  0.18437716736E+04  0.00000000000E+00 0. -1.
          1    1    1    2  502    0  0.24795210578E+02 -0.68485375850E+01  0.59016959078E+03  0.59072993052E+03  0.00000000000E+00 0. -1.
         22    1    3    3    0    0  0.30990906240E+02  0.28887887725E+01 -0.10569066586E+03  0.11017848347E+03  0.00000000000E+00 0. -1.
         22    1    3    3    0    0 -0.37692114854E+02  0.70374127953E+02 -0.14727136271E+04  0.14748758052E+04  0.00000000000E+00 0. -1.
</event>
<event>
 7    1  0.6294601E-006  0.2999283E+03  0.7818608E-02  0.1193415E+00
          2   -1    0    0  502    0  0.00000000000E+00  0.00000000000E+00  0.31977245936E+04  0.31977245936E+04  0.00000000000E+00 0. -1.
          1   -1    0    0  501    0 -0.00000000000E+00 -0.00000000000E+00 -0.79425591887E+03  0.79425591887E+03  0.00000000000E+00 0. -1.
         25    2    1    2    0    0 -0.24991403320E+02 -0.25675473498E+02 -0.34850819618E+03  0.37197703985E+03  0.12500062078E+03 0.  0.
          2    1    1    2  501    0  0.21228682583E+03  0.25993475255E+03 -0.36083149626E+03  0.49277899782E+03  0.00000000000E+00 0. -1.
          1    1    1    2  502    0 -0.18729542251E+03 -0.23425927905E+03  0.31128083671E+04  0.31272244748E+04  0.00000000000E+00 0. -1.
         22    1    3    3    0    0 -0.18343170927E+02  0.43944787512E+02 -0.68896765643E+02  0.83751898995E+02  0.00000000000E+00 0. -1.
         22    1    3    3    0    0 -0.66482323929E+01 -0.69620261010E+02 -0.27961143054E+03  0.28822514086E+03  0.00000000000E+00 0. -1.
</event>
<event>
 7    1  0.6294601E-006  0.1316102E+03  0.7818608E-02  0.1332573E+00
          2   -1    0    0  502    0  0.00000000000E+00  0.00000000000E+00  0.11315322912E+03  0.11315322912E+03  0.00000000000E+00 0. -1.
          1   -1    0    0  501    0 -0.00000000000E+00 -0.00000000000E+00 -0.83717857367E+03  0.83717857367E+03  0.00000000000E+00 0. -1.
         25    2    1    2    0    0 -0.49632935804E+02  0.98207631272E+02 -0.32090387493E+03  0.36154280343E+03  0.12500293841E+03 0.  0.
          2    1    1    2  501    0  0.30066746031E+02 -0.14110264345E+03 -0.47855773168E+03  0.49983143934E+03  0.00000000000E+00 0. -1.
          1    1    1    2  502    0  0.19566189774E+02  0.42895012178E+02  0.75436262053E+02  0.88957560019E+02  0.00000000000E+00 0. -1.
         22    1    3    3    0    0 -0.77270402565E+02  0.20740060037E+02 -0.11763061315E+03  0.14225971444E+03  0.00000000000E+00 0. -1.
         22    1    3    3    0    0  0.27637466760E+02  0.77467571235E+02 -0.20327326177E+03  0.21928308898E+03  0.00000000000E+00 0. -1.
</event>
<event>
 7    1  0.6294601E-006  0.7781140E+02  0.7818608E-02  0.1402869E+00
          2   -1    0    0  502    0  0.00000000000E+00  0.00000000000E+00  0.19213779791E+03  0.19213779791E+03  0.00000000000E+00 0. -1.
          1   -1    0    0  501    0 -0.00000000000E+00 -0.00000000000E+00 -0.11433924961E+04  0.11433924961E+04  0.00000000000E+00 0. -1.
         25    2    1    2    0    0  0.12390769458E+02  0.65756405656E+02 -0.70484309069E+02  0.15833348053E+03  0.12499606866E+03 0.  0.
          2    1    1    2  501    0 -0.55644146957E+02 -0.55478454218E+02 -0.10241105555E+04  0.10271205186E+04  0.00000000000E+00 0. -1.
          1    1    1    2  502    0  0.43253377499E+02 -0.10277951438E+02  0.14334016641E+03  0.15007629479E+03  0.00000000000E+00 0. -1.
         22    1    3    3    0    0  0.21673102969E+02  0.22927809420E+02  0.33180778379E+02  0.45786153922E+02  0.00000000000E+00 0. -1.
         22    1    3    3    0    0 -0.92823335109E+01  0.42828596236E+02 -0.10366508745E+03  0.11254732661E+03  0.00000000000E+00 0. -1.
</event>
<event>
 7    1  0.6294601E-006  0.5485300E+02  0.7818608E-02  0.1502991E+00
          2   -1    0    0  502    0  0.00000000000E+00  0.00000000000E+00  0.10359499546E+04  0.10359499546E+04  0.00000000000E+00 0. -1.
          1   -1    0    0  501    0 -0.00000000000E+00 -0.00000000000E+00 -0.39640288118E+03  0.39640288118E+03  0.00000000000E+00 0. -1.
         25    2    1    2    0    0 -0.13640412044E+02  0.26481163844E+02  0.13848903314E+03  0.18892063043E+03  0.12499791767E+03 0.  0.
          2    1    1    2  501    0  0.82642653752E+01  0.29074141036E+02 -0.36967674475E+03  0.37091036568E+03  0.00000000000E+00 0. -1.
          1    1    1    2  502    0  0.53761466684E+01 -0.55555304880E+02  0.87073478500E+03  0.87252183965E+03  0.00000000000E+00 0. -1.
         22    1    3    3    0    0 -0.48325521621E+02 -0.26352063409E+02  0.10209969812E+03  0.11599196369E+03  0.00000000000E+00 0. -1.
         22    1    3    3    0    0  0.34685109577E+02  0.52833227253E+02  0.36389335024E+02  0.72928666735E+02  0.00000000000E+00 0. -1.
</event>
<event>
 7    1  0.1293390E-005  0.7616330E+02  0.7818608E-02  0.1354580E+00
          2   -1    0    0  502    0  0.00000000000E+00  0.00000000000E+00  0.12198041931E+04  0.12198041931E+04  0.00000000000E+00 0. -1.
          1   -1    0    0  501    0 -0.00000000000E+00 -0.00000000000E+00 -0.12586695298E+04  0.12586695298E+04  0.00000000000E+00 0. -1.
         25    2    1    2    0    0  0.66045642460E+02 -0.17100407594E+01 -0.19741436408E+03  0.24281796365E+03  0.12499272458E+03 0.  0.
          2    1    1    2  501    0 -0.24891064132E+02 -0.62633803495E+02 -0.10362391601E+04  0.10384286953E+04  0.00000000000E+00 0. -1.
          1    1    1    2  502    0 -0.41154578328E+02  0.64343844255E+02  0.11947881875E+04  0.11972270639E+04  0.00000000000E+00 0. -1.
         22    1    3    3    0    0  0.22366677330E+01  0.48360301716E+02 -0.30440623548E+02  0.57187000503E+02  0.00000000000E+00 0. -1.
         22    1    3    3    0    0  0.63808974727E+02 -0.50070342475E+02 -0.16697374053E+03  0.18563096314E+03  0.00000000000E+00 0. -1.
</event>
<event>
 7    1  0.6294601E-006  0.5694689E+02  0.7818608E-02  0.1487521E+00
          2   -1    0    0  502    0  0.00000000000E+00  0.00000000000E+00  0.48426966047E+03  0.48426966047E+03  0.00000000000E+00 0. -1.
          1   -1    0    0  501    0 -0.00000000000E+00 -0.00000000000E+00 -0.46106059356E+03  0.46106059356E+03  0.00000000000E+00 0. -1.
         25    2    1    2    0    0  0.13673632451E+02  0.31064604352E+02  0.86690179590E+02  0.15586198195E+03  0.12500316921E+03 0.  0.
          2    1    1    2  501    0 -0.16940123750E+02  0.27621502483E+02 -0.42347237598E+03  0.42471021698E+03  0.00000000000E+00 0. -1.
          1    1    1    2  502    0  0.32664912990E+01 -0.58686106835E+02  0.35999126331E+03  0.36475805510E+03  0.00000000000E+00 0. -1.
         22    1    3    3    0    0 -0.29068426653E+02  0.87236523225E+00 -0.21174500258E+02  0.35973516792E+02  0.00000000000E+00 0.  1.
         22    1    3    3    0    0  0.42742059103E+02  0.30192239120E+02  0.10786467985E+03  0.11988846516E+03  0.00000000000E+00 0.  1.
</event>
<event>
 7    1  0.6294601E-006  0.6650112E+02  0.7818608E-02  0.1405937E+00
          2   -1    0    0  502    0  0.00000000000E+00  0.00000000000E+00  0.45801790175E+03  0.45801790175E+03  0.00000000000E+00 0. -1.
          1   -1    0    0  501    0 -0.00000000000E+00 -0.00000000000E+00 -0.75867638366E+02  0.75867638366E+02  0.00000000000E+00 0. -1.
         25    2    1    2    0    0 -0.53941302387E+02  0.86661739252E+02  0.14348740820E+03  0.21595480992E+03  0.12501168930E+03 0.  0.
          2    1    1    2  501    0  0.98435777274E+01 -0.61485763111E+02 -0.10933668845E+02  0.63221358750E+02  0.00000000000E+00 0. -1.
          1    1    1    2  502    0  0.44097724660E+02 -0.25175976142E+02  0.24959652403E+03  0.25470937145E+03  0.00000000000E+00 0. -1.
         22    1    3    3    0    0  0.11730634827E+02  0.60567330235E+02  0.67814546317E+01  0.62064461749E+02  0.00000000000E+00 0. -1.
         22    1    3    3    0    0 -0.65671937214E+02  0.26094409017E+02  0.13670595357E+03  0.15389034818E+03  0.00000000000E+00 0. -1.
</event>
<event>
 7    1  0.6294601E-006  0.1289243E+03  0.7818608E-02  0.1282904E+00
          2   -1    0    0  502    0  0.00000000000E+00  0.00000000000E+00  0.65278169839E+03  0.65278169839E+03  0.00000000000E+00 0. -1.
          1   -1    0    0  501    0 -0.00000000000E+00 -0.00000000000E+00 -0.20004562439E+04  0.20004562439E+04  0.00000000000E+00 0. -1.
         25    2    1    2    0    0 -0.11234250254E+03  0.20286433531E+02 -0.21404435187E+03  0.27289653848E+03  0.12500063555E+03 0.  0.
          2    1    1    2  501    0 -0.52562972065E+01 -0.75485792570E+02 -0.17493906556E+04  0.17510263846E+04  0.00000000000E+00 0. -1.
          1    1    1    2  502    0  0.11759879974E+03  0.55199359038E+02  0.61576046196E+03  0.62931501925E+03  0.00000000000E+00 0. -1.
         22    1    3    3    0    0  0.93620713714E+01 -0.27648671667E+02 -0.10651358770E+02  0.31073282236E+02  0.00000000000E+00 0.  1.
         22    1    3    3    0    0 -0.12170457391E+03  0.47935105198E+02 -0.20339299310E+03  0.24182325625E+03  0.00000000000E+00 0.  1.
</event>
<event>
 7    1  0.6294601E-006  0.1326706E+03  0.7818608E-02  0.1411590E+00
          2   -1    0    0  502    0  0.00000000000E+00  0.00000000000E+00  0.13965934614E+04  0.13965934614E+04  0.00000000000E+00 0. -1.
          1   -1    0    0  501    0 -0.00000000000E+00 -0.00000000000E+00 -0.27801123117E+03  0.27801123117E+03  0.00000000000E+00 0. -1.
         25    2    1    2    0    0  0.12003331990E+03 -0.61713442182E+02  0.75679421349E+03  0.77882891813E+03  0.12498181997E+03 0.  0.
          2    1    1    2  501    0 -0.10510556626E+03  0.80954124319E+02 -0.25025629544E+03  0.28324717776E+03  0.00000000000E+00 0. -1.
          1    1    1    2  502    0 -0.14927753640E+02 -0.19240682136E+02  0.61204431216E+03  0.61252859666E+03  0.00000000000E+00 0. -1.
         22    1    3    3    0    0  0.52465504030E+02  0.24822046193E+02  0.12830626486E+03  0.14082350902E+03  0.00000000000E+00 0.  1.
         22    1    3    3    0    0  0.67567815870E+02 -0.86535488375E+02  0.62848794862E+03  0.63800540911E+03  0.00000000000E+00 0.  1.
</event>
<event>
 7    1  0.6294601E-006  0.4889168E+02  0.7818608E-02  0.1579454E+00
          2   -1    0    0  502    0  0.00000000000E+00  0.00000000000E+00  0.15497943808E+03  0.15497943808E+03  0.00000000000E+00 0. -1.
          1   -1    0    0  501    0 -0.00000000000E+00 -0.00000000000E+00 -0.14360703843E+03  0.14360703843E+03  0.00000000000E+00 0. -1.
         25    2    1    2    0    0  0.51703816355E+02 -0.11121170810E+02 -0.86778849896E+02  0.16110361305E+03  0.12500736091E+03 0.  0.
          2    1    1    2  501    0 -0.38822724108E+02  0.27230142887E+02  0.12024896582E+02  0.48921188933E+02  0.00000000000E+00 0. -1.
          1    1    1    2  502    0 -0.12881092246E+02 -0.16108972077E+02  0.86126352968E+02  0.88561674524E+02  0.00000000000E+00 0. -1.
         22    1    3    3    0    0 -0.81474291867E+01  0.19003685581E+01 -0.98403831348E+02  0.98758827590E+02  0.00000000000E+00 0.  1.
         22    1    3    3    0    0  0.59851245541E+02 -0.13021539368E+02  0.11624981452E+02  0.62344785460E+02  0.00000000000E+00 0.  1.
</event>
<event>
 7    1  0.6294601E-006  0.1072597E+03  0.7818608E-02  0.1302721E+00
          2   -1    0    0  502    0  0.00000000000E+00  0.00000000000E+00  0.94019472666E+03  0.94019472666E+03  0.00000000000E+00 0. -1.
          1   -1    0    0  501    0 -0.00000000000E+00 -0.00000000000E+00 -0.58812805103E+03  0.58812805103E+03  0.00000000000E+00 0. -1.
         25    2    1    2    0    0  0.68948828555E+02 -0.66657000078E+02  0.14378776375E+03  0.21328967645E+03  0.12498187251E+03 0.  0.
          2    1    1    2  501    0 -0.61255633783E+02 -0.44321473598E+02 -0.54669938375E+03  0.55190294607E+03  0.00000000000E+00 0. -1.
          1    1    1    2  502    0 -0.76931947714E+01  0.11097847368E+03  0.75497829562E+03  0.76313015517E+03  0.00000000000E+00 0. -1.
         22    1    3    3    0    0  0.22670786392E+02 -0.83041308367E+02  0.13961636474E+03  0.16401997669E+03  0.00000000000E+00 0.  1.
         22    1    3    3    0    0  0.46278042163E+02  0.16384308289E+02  0.41713990143E+01  0.49269699759E+02  0.00000000000E+00 0.  1.
</event>
<event>
 7    1  0.6294601E-006  0.1057007E+03  0.7818608E-02  0.1391388E+00
          2   -1    0    0  502    0  0.00000000000E+00  0.00000000000E+00  0.56616474883E+03  0.56616474883E+03  0.00000000000E+00 0. -1.
          1   -1    0    0  501    0 -0.00000000000E+00 -0.00000000000E+00 -0.46335241432E+03  0.46335241432E+03  0.00000000000E+00 0. -1.
         25    2    1    2    0    0  0.48905383520E+02 -0.52985517401E+02 -0.19156607037E+03  0.23983734135E+03  0.12500075758E+03 0.  0.
          2    1    1    2  501    0  0.13928881818E+02 -0.33039645414E+02 -0.24107769762E+03  0.24372953905E+03  0.00000000000E+00 0. -1.
          1    1    1    2  502    0 -0.62834265338E+02  0.86025162815E+02  0.53545610250E+03  0.54595028276E+03  0.00000000000E+00 0. -1.
         22    1    3    3    0    0 -0.85835706628E+00  0.47854466061E+01 -0.15534736986E+03  0.15542343002E+03  0.00000000000E+00 0.  1.
         22    1    3    3    0    0  0.49763740586E+02 -0.57770964007E+02 -0.36218700509E+02  0.84413911330E+02  0.00000000000E+00 0.  1.
</event>
<event>
 7    1  0.6294601E-006  0.1067516E+03  0.7818608E-02  0.1324877E+00
          2   -1    0    0  502    0  0.00000000000E+00  0.00000000000E+00  0.18491785985E+03  0.18491785985E+03  0.00000000000E+00 0. -1.
          1   -1    0    0  501    0 -0.00000000000E+00 -0.00000000000E+00 -0.68331467771E+03  0.68331467771E+03  0.00000000000E+00 0. -1.
         25    2    1    2    0    0 -0.27002502852E+02  0.12227504688E+03 -0.21274644058E+03  0.27669539396E+03  0.12497588091E+03 0.  0.
          2    1    1    2  501    0  0.58696207350E+02 -0.20597944774E+02 -0.41746484006E+03  0.42207394230E+03  0.00000000000E+00 0. -1.
          1    1    1    2  502    0 -0.31693704499E+02 -0.10167710210E+03  0.13181446277E+03  0.16946320130E+03  0.00000000000E+00 0. -1.
         22    1    3    3    0    0 -0.34222502343E+02  0.13437803987E+03 -0.22059929904E+03  0.26056225360E+03  0.00000000000E+00 0.  1.
         22    1    3    3    0    0  0.72199994913E+01 -0.12102992987E+02  0.78528584588E+01  0.16133140360E+02  0.00000000000E+00 0.  1.
</event>
<event>
 7    1  0.6294601E-006  0.2464345E+03  0.7818608E-02  0.1324706E+00
          2   -1    0    0  502    0  0.00000000000E+00  0.00000000000E+00  0.55275573071E+03  0.55275573071E+03  0.00000000000E+00 0. -1.
          1   -1    0    0  501    0 -0.00000000000E+00 -0.00000000000E+00 -0.63252366582E+03  0.63252366582E+03  0.00000000000E+00 0. -1.
         25    2    1    2    0    0 -0.14443461481E+03  0.20449764365E+03  0.17561395287E+03  0.33037611853E+03  0.12500989977E+03 0.  0.
          2    1    1    2  501    0 -0.17016791397E+02 -0.20946340050E+02 -0.50488442857E+03  0.50560518842E+03  0.00000000000E+00 0. -1.
          1    1    1    2  502    0  0.16145140621E+03 -0.18355130360E+03  0.24950254058E+03  0.34929808957E+03  0.00000000000E+00 0. -1.
         22    1    3    3    0    0 -0.10495664508E+03  0.73349893013E+02  0.13818936571E+03  0.18839428056E+03  0.00000000000E+00 0. -1.
         22    1    3    3    0    0 -0.39477969733E+02  0.13114775063E+03  0.37424587164E+02  0.14198183798E+03  0.00000000000E+00 0. -1.
</event>
<event>
 7    1  0.6294601E-006  0.8186214E+02  0.7818608E-02  0.1419350E+00
          2   -1    0    0  502    0  0.00000000000E+00  0.00000000000E+00  0.26281754679E+03  0.26281754679E+03  0.00000000000E+00 0. -1.
          1   -1    0    0  501    0 -0.00000000000E+00 -0.00000000000E+00 -0.12048261735E+04  0.12048261735E+04  0.00000000000E+00 0. -1.
         25    2    1    2    0    0 -0.43635121402E+02 -0.56061302327E+02  0.11118940397E+03  0.18175492378E+03  0.12499950129E+03 0.  0.
          2    1    1    2  501    0  0.21464578302E+02 -0.30341042914E+02 -0.11521020246E+04  0.11527013412E+04  0.00000000000E+00 0. -1.
          1    1    1    2  502    0  0.22170543100E+02  0.86402345240E+02  0.98903993893E+02  0.13318745531E+03  0.00000000000E+00 0. -1.
         22    1    3    3    0    0 -0.26255288030E+02  0.37535850611E+02  0.53545653177E+02  0.70465716521E+02  0.00000000000E+00 0. -1.
         22    1    3    3    0    0 -0.17379833372E+02 -0.93597152938E+02  0.57643750791E+02  0.11128920725E+03  0.00000000000E+00 0. -1.
</event>
<event>
 7    1  0.6294601E-006  0.6957849E+02  0.7818608E-02  0.1414432E+00
          2   -1    0    0  502    0  0.00000000000E+00  0.00000000000E+00  0.15208981366E+04  0.15208981366E+04  0.00000000000E+00 0. -1.
          1   -1    0    0  501    0 -0.00000000000E+00 -0.00000000000E+00 -0.79054616845E+03  0.79054616845E+03  0.00000000000E+00 0. -1.
         25    2    1    2    0    0 -0.47135620823E+00  0.88063252095E+02  0.25162224479E+03  0.29443857095E+03  0.12499983777E+03 0.  0.
          2    1    1    2  501    0 -0.35214311934E+02 -0.28687611928E+02 -0.76750465678E+03  0.76884746538E+03  0.00000000000E+00 0. -1.
          1    1    1    2  502    0  0.35685668143E+02 -0.59375640168E+02  0.12462343801E+04  0.12481582687E+04  0.00000000000E+00 0. -1.
         22    1    3    3    0    0 -0.41073833446E+02  0.88691155154E+02  0.22649853366E+03  0.24668758896E+03  0.00000000000E+00 0.  1.
         22    1    3    3    0    0  0.40602477238E+02 -0.62790305896E+00  0.25123711133E+02  0.47750981992E+02  0.00000000000E+00 0.  1.
</event>
<event>
 7    1  0.6294601E-006  0.8016002E+02  0.7818608E-02  0.1363724E+00
          2   -1    0    0  502    0  0.00000000000E+00  0.00000000000E+00  0.16197201697E+04  0.16197201697E+04  0.00000000000E+00 0. -1.
          1   -1    0    0  501    0 -0.00000000000E+00 -0.00000000000E+00 -0.46998212826E+02  0.46998212826E+02  0.00000000000E+00 0. -1.
         25    2    1    2    0    0  0.17512185473E+01  0.63008889185E+02  0.12111869816E+04  0.12192501020E+04  0.12499487977E+03 0.  0.
          2    1    1    2  501    0  0.73148998882E+01  0.58843241691E+02 -0.65269056728E+01  0.59654298677E+02  0.00000000000E+00 0. -1.
          1    1    1    2  502    0 -0.90661184355E+01 -0.12185213088E+03  0.36806188091E+03  0.38781398180E+03  0.00000000000E+00 0. -1.
         22    1    3    3    0    0  0.47829557390E+02  0.75061785062E+02  0.90703897708E+03  0.91139543782E+03  0.00000000000E+00 0.  1.
         22    1    3    3    0    0 -0.46078338843E+02 -0.12052895877E+02  0.30414800452E+03  0.30785466419E+03  0.00000000000E+00 0.  1.
</event>
<event>
 7    1  0.6294601E-006  0.9080451E+02  0.7818608E-02  0.1341492E+00
          2   -1    0    0  502    0  0.00000000000E+00  0.00000000000E+00  0.21758753588E+04  0.21758753588E+04  0.00000000000E+00 0. -1.
          1   -1    0    0  501    0 -0.00000000000E+00 -0.00000000000E+00 -0.13328444004E+03  0.13328444004E+03  0.00000000000E+00 0. -1.
         25    2    1    2    0    0  0.38949429318E+02 -0.13601624143E+03  0.33188811767E+03  0.38182385702E+03  0.12498903617E+03 0.  0.
          2    1    1    2  501    0  0.27648780074E+01  0.88497145130E+02 -0.89574636495E+02  0.12594842099E+03  0.00000000000E+00 0. -1.
          1    1    1    2  502    0 -0.41714307326E+02  0.47519096300E+02  0.18002774376E+04  0.18013875208E+04  0.00000000000E+00 0. -1.
         22    1    3    3    0    0  0.17618482985E+00  0.23032319304E+02  0.24939169653E+02  0.33948209917E+02  0.00000000000E+00 0. -1.
         22    1    3    3    0    0  0.38773244489E+02 -0.15904856073E+03  0.30694894802E+03  0.34787564711E+03  0.00000000000E+00 0. -1.
</event>
<event>
 7    1  0.6294601E-006  0.6605409E+02  0.7818608E-02  0.1410096E+00
          2   -1    0    0  502    0  0.00000000000E+00  0.00000000000E+00  0.78279084585E+02  0.78279084585E+02  0.00000000000E+00 0. -1.
          1   -1    0    0  501    0 -0.00000000000E+00 -0.00000000000E+00 -0.10584123224E+04  0.10584123224E+04  0.00000000000E+00 0. -1.
         25    2    1    2    0    0  0.26868920052E+02 -0.54840093460E+02 -0.26836562840E+03  0.30228057267E+03  0.12499623753E+03 0.  0.
          2    1    1    2  501    0 -0.48650351602E+02 -0.90511938899E+01 -0.75345205145E+03  0.75507534369E+03  0.00000000000E+00 0. -1.
          1    1    1    2  502    0  0.21781431550E+02  0.63891287350E+02  0.41684442049E+02  0.79335490599E+02  0.00000000000E+00 0. -1.
         22    1    3    3    0    0 -0.38896928911E+02  0.15353052673E+02 -0.64613157221E+02  0.76964585305E+02  0.00000000000E+00 0. -1.
         22    1    3    3    0    0  0.65765848963E+02 -0.70193146133E+02 -0.20375247118E+03  0.22531598737E+03  0.00000000000E+00 0. -1.
</event>
<event>
 7    1  0.6294601E-006  0.4750821E+02  0.7818608E-02  0.1485840E+00
          2   -1    0    0  502    0  0.00000000000E+00  0.00000000000E+00  0.29168314953E+04  0.29168314953E+04  0.00000000000E+00 0. -1.
          1   -1    0    0  501    0 -0.00000000000E+00 -0.00000000000E+00 -0.24856887300E+03  0.24856887300E+03  0.00000000000E+00 0. -1.
         25    2    1    2    0    0 -0.68100180438E+01 -0.77973995918E+02  0.20644526665E+03  0.25371445869E+03  0.12500023217E+03 0.  0.
          2    1    1    2  501    0  0.22081766671E+02  0.41763233283E+02 -0.22230837617E+03  0.22727249325E+03  0.00000000000E+00 0. -1.
          1    1    1    2  502    0 -0.15271748627E+02  0.36210762635E+02  0.26841257319E+04  0.26844134164E+04  0.00000000000E+00 0. -1.
         22    1    3    3    0    0 -0.50090285109E+02 -0.13439126291E+02  0.27668303578E+02  0.58780794488E+02  0.00000000000E+00 0.  1.
         22    1    3    3    0    0  0.43280267065E+02 -0.64534869627E+02  0.17877696307E+03  0.19493366420E+03  0.00000000000E+00 0.  1.
</event>
<event>
 7    1  0.6294601E-006  0.5775221E+02  0.7818608E-02  0.1507375E+00
          2   -1    0    0  502    0  0.00000000000E+00  0.00000000000E+00  0.89763145100E+03  0.89763145100E+03  0.00000000000E+00 0. -1.
          1   -1    0    0  501    0 -0.00000000000E+00 -0.00000000000E+00 -0.60211499791E+03  0.60211499791E+03  0.00000000000E+00 0. -1.
         25    2    1    2    0    0 -0.58439191790E+02 -0.20970979199E+02 -0.63186101090E+02  0.15320875557E+03  0.12500207320E+03 0.  0.
          2    1    1    2  501    0  0.18534118179E+02 -0.20804169454E+02 -0.49254476943E+03  0.49333221757E+03  0.00000000000E+00 0. -1.
          1    1    1    2  502    0  0.39905073612E+02  0.41775148654E+02  0.85124732361E+03  0.85320547578E+03  0.00000000000E+00 0. -1.
         22    1    3    3    0    0 -0.85417382974E+02 -0.50488128821E+02 -0.49951363231E+02  0.11108698913E+03  0.00000000000E+00 0. -1.
         22    1    3    3    0    0  0.26978191183E+02  0.29517149621E+02 -0.13234737860E+02  0.42121766434E+02  0.00000000000E+00 0. -1.
</event>
<event>
 7    1  0.6294601E-006  0.1092950E+03  0.7818608E-02  0.1343924E+00
          2   -1    0    0  502    0  0.00000000000E+00  0.00000000000E+00  0.24895603862E+02  0.24895603862E+02  0.00000000000E+00 0. -1.
          1   -1    0    0  501    0 -0.00000000000E+00 -0.00000000000E+00 -0.16441376399E+04  0.16441376399E+04  0.00000000000E+00 0. -1.
         25    2    1    2    0    0 -0.23310887495E+02  0.77253054367E+02 -0.89039456531E+03  0.90273769522E+03  0.12498572940E+03 0.  0.
          2    1    1    2  501    0 -0.49576510241E+02  0.13730382054E+02 -0.55255028880E+03  0.55493979441E+03  0.00000000000E+00 0. -1.
          1    1    1    2  502    0  0.72887397736E+02 -0.90983436422E+02 -0.17629718193E+03  0.21135575414E+03  0.00000000000E+00 0. -1.
         22    1    3    3    0    0 -0.47940924470E+01 -0.93423503745E+01 -0.29792373141E+01  0.10915067012E+02  0.00000000000E+00 0. -1.
         22    1    3    3    0    0 -0.18516795048E+02  0.86595404742E+02 -0.88741532799E+03  0.89182262821E+03  0.00000000000E+00 0. -1.
</event>
<event>
 7    1  0.7170355E-006  0.6957415E+02  0.7818608E-02  0.1366978E+00
          2   -1    0    0  502    0  0.00000000000E+00  0.00000000000E+00  0.19141128907E+04  0.19141128907E+04  0.00000000000E+00 0. -1.
          1   -1    0    0  501    0 -0.00000000000E+00 -0.00000000000E+00 -0.27639280084E+04  0.27639280084E+04  0.00000000000E+00 0. -1.
         25    2    1    2    0    0  0.49075040249E+01  0.85427834819E+02 -0.21268863383E+03  0.26111861798E+03  0.12499791652E+03 0.  0.
          2    1    1    2  501    0  0.50330373376E+02 -0.48418497310E+02 -0.25259567791E+04  0.25269220699E+04  0.00000000000E+00 0. -1.
          1    1    1    2  502    0 -0.55237877401E+02 -0.37009337509E+02  0.18888302953E+04  0.18900002112E+04  0.00000000000E+00 0. -1.
         22    1    3    3    0    0  0.54309094455E+02  0.66303312864E+02 -0.76096044976E+02  0.11461332862E+03  0.00000000000E+00 0.  1.
         22    1    3    3    0    0 -0.49401590430E+02  0.19124521955E+02 -0.13659258886E+03  0.14650528935E+03  0.00000000000E+00 0.  1.
</event>
<event>
 7    1  0.6294601E-006  0.3677556E+02  0.7818608E-02  0.1535531E+00
          2   -1    0    0  502    0  0.00000000000E+00  0.00000000000E+00  0.37068535661E+03  0.37068535661E+03  0.00000000000E+00 0. -1.
          1   -1    0    0  501    0 -0.00000000000E+00 -0.00000000000E+00 -0.15680330460E+04  0.15680330460E+04  0.00000000000E+00 0. -1.
         25    2    1    2    0    0  0.20516709763E+00  0.54765114246E+02 -0.18209122104E+03  0.22755573548E+03  0.12500056056E+03 0.  0.
          2    1    1    2  501    0 -0.24224103253E+02 -0.27601901811E+02 -0.13620167586E+04  0.13625117698E+04  0.00000000000E+00 0. -1.
          1    1    1    2  502    0  0.24018936155E+02 -0.27163212434E+02  0.34676029018E+03  0.34865089738E+03  0.00000000000E+00 0. -1.
         22    1    3    3    0    0 -0.49199026958E+01  0.84577022493E+02 -0.17786688116E+03  0.19701295792E+03  0.00000000000E+00 0. -1.
         22    1    3    3    0    0  0.51250697934E+01 -0.29811908248E+02 -0.42243398796E+01  0.30542777561E+02  0.00000000000E+00 0. -1.
</event>
<event>
 7    1  0.6294601E-006  0.4415806E+02  0.7818608E-02  0.1547646E+00
          2   -1    0    0  502    0  0.00000000000E+00  0.00000000000E+00  0.47591478887E+03  0.47591478887E+03  0.00000000000E+00 0. -1.
          1   -1    0    0  501    0 -0.00000000000E+00 -0.00000000000E+00 -0.41977776157E+02  0.41977776157E+02  0.00000000000E+00 0. -1.
         25    2    1    2    0    0 -0.49038788481E+02 -0.32335756618E+02  0.35825832433E+03  0.38395716588E+03  0.12499469726E+03 0.  0.
          2    1    1    2  501    0  0.88761103825E+01  0.26463321028E+02 -0.17053114737E+02  0.32709347556E+02  0.00000000000E+00 0. -1.
          1    1    1    2  502    0  0.40162678099E+02  0.58724355909E+01  0.92731803111E+02  0.10122605159E+03  0.00000000000E+00 0. -1.
         22    1    3    3    0    0  0.11020294248E+02  0.27357657233E+02  0.20936788677E+02  0.36169564757E+02  0.00000000000E+00 0.  1.
         22    1    3    3    0    0 -0.60059082729E+02 -0.59693413851E+02  0.33732153566E+03  0.34778760112E+03  0.00000000000E+00 0.  1.
</event>
<event>
 7    1  0.6294601E-006  0.5364906E+02  0.7818608E-02  0.1476360E+00
          2   -1    0    0  502    0  0.00000000000E+00  0.00000000000E+00  0.79390912794E+03  0.79390912794E+03  0.00000000000E+00 0. -1.
          1   -1    0    0  501    0 -0.00000000000E+00 -0.00000000000E+00 -0.12126424754E+03  0.12126424754E+03  0.00000000000E+00 0. -1.
         25    2    1    2    0    0 -0.34163276258E+02 -0.60855082196E+02  0.24901145934E+03  0.28723071909E+03  0.12499723450E+03 0.  0.
          2    1    1    2  501    0  0.46821154721E+02  0.25866765381E+02 -0.94438986286E+02  0.10853585680E+03  0.00000000000E+00 0. -1.
          1    1    1    2  502    0 -0.12657878464E+02  0.34988316815E+02  0.51807240736E+03  0.51940679960E+03  0.00000000000E+00 0. -1.
         22    1    3    3    0    0 -0.75513701432E+02 -0.16889692914E+02  0.17763236631E+03  0.19375458290E+03  0.00000000000E+00 0. -1.
         22    1    3    3    0    0  0.41350425174E+02 -0.43965389282E+02  0.71379093021E+02  0.93476136192E+02  0.00000000000E+00 0. -1.
</event>
<event>
 7    1  0.6294601E-006  0.1128524E+03  0.7818608E-02  0.1310337E+00
          2   -1    0    0  502    0  0.00000000000E+00  0.00000000000E+00  0.41082475413E+02  0.41082475413E+02  0.00000000000E+00 0. -1.
          1   -1    0    0  501    0 -0.00000000000E+00 -0.00000000000E+00 -0.29519681706E+04  0.29519681706E+04  0.00000000000E+00 0. -1.
         25    2    1    2    0    0  0.13300679319E+03 -0.97852256953E+02 -0.45186378036E+03  0.49706268152E+03  0.12499824852E+03 0.  0.
          2    1    1    2  501    0 -0.52911166113E+02  0.41163408593E+02 -0.23433176595E+04  0.23442763641E+04  0.00000000000E+00 0. -1.
          1    1    1    2  502    0 -0.80095627074E+02  0.56688848360E+02 -0.11570425526E+03  0.15171160038E+03  0.00000000000E+00 0. -1.
         22    1    3    3    0    0  0.91418298154E+02  0.62037928674E+01 -0.15930018638E+03  0.18377252696E+03  0.00000000000E+00 0.  1.
         22    1    3    3    0    0  0.41588495033E+02 -0.10405604982E+03 -0.29256359398E+03  0.31329015456E+03  0.00000000000E+00 0.  1.
</event>
<event>
 7    1  0.6294601E-006  0.5951810E+02  0.7818608E-02  0.1449086E+00
          2   -1    0    0  502    0  0.00000000000E+00  0.00000000000E+00  0.68330066623E+03  0.68330066623E+03  0.00000000000E+00 0. -1.
          1   -1    0    0  501    0 -0.00000000000E+00 -0.00000000000E+00 -0.47257333761E+03  0.47257333761E+03  0.00000000000E+00 0. -1.
         25    2    1    2    0    0 -0.39487591657E+02  0.21595957051E+02  0.16156764870E+03  0.20917532507E+03  0.12499822502E+03 0.  0.
          2    1    1    2  501    0  0.18739358748E+02 -0.56792226213E+02 -0.44593187473E+03  0.44992416852E+03  0.00000000000E+00 0. -1.
          1    1    1    2  502    0  0.20748232909E+02  0.35196269162E+02  0.49509155466E+03  0.49677451024E+03  0.00000000000E+00 0. -1.
         22    1    3    3    0    0  0.60574011978E+00 -0.48991921020E+02  0.41334064099E+02  0.64102106839E+02  0.00000000000E+00 0. -1.
         22    1    3    3    0    0 -0.40093331777E+02  0.70587878070E+02  0.12023358460E+03  0.14507321823E+03  0.00000000000E+00 0. -1.
</event>
<event>
 7    1  0.6294601E-006  0.1519487E+03  0.7818608E-02  0.1347342E+00
          2   -1    0    0  502    0  0.00000000000E+00  0.00000000000E+00  0.29768945378E+04  0.29768945378E+04  0.00000000000E+00 0. -1.
          1   -1    0    0  501    0 -0.00000000000E+00 -0.00000000000E+00 -0.62920459746E+02  0.62920459746E+02  0.00000000000E+00 0. -1.
         25    2    1    2    0    0 -0.17996969523E+03 -0.41914424343E+02  0.11787597400E+04  0.11996846398E+04  0.12499120038E+03 0.  0.
          2    1    1    2  501    0  0.14580357693E+03  0.30789042915E+02  0.53953232540E+02  0.15848532900E+03  0.00000000000E+00 0. -1.
          1    1    1    2  502    0  0.34166118307E+02  0.11125381429E+02  0.16812611055E+04  0.16816450287E+04  0.00000000000E+00 0. -1.
         22    1    3    3    0    0 -0.45402133304E+02 -0.42449458286E+02  0.68824196486E+03  0.69104291648E+03  0.00000000000E+00 0.  1.
         22    1    3    3    0    0 -0.13456756193E+03  0.53503394251E+00  0.49051777517E+03  0.50864172336E+03  0.00000000000E+00 0.  1.
</event>
<event>
 7    1  0.6294601E-006  0.2426943E+03  0.7818608E-02  0.1296172E+00
          2   -1    0    0  502    0  0.00000000000E+00  0.00000000000E+00  0.42511907958E+03  0.42511907958E+03  0.00000000000E+00 0. -1.
          1   -1    0    0  501    0 -0.00000000000E+00 -0.00000000000E+00 -0.16039136891E+04  0.16039136891E+04  0.00000000000E+00 0. -1.
         25    2    1    2    0    0 -0.93594727579E+02  0.22420218612E+03  0.14201146813E+03  0.30792797273E+03  0.12500314404E+03 0.  0.
          2    1    1    2  501    0  0.12519086902E+03 -0.20802498987E+03 -0.15096017201E+04  0.15290011457E+04  0.00000000000E+00 0. -1.
          1    1    1    2  502    0 -0.31596141444E+02 -0.16177196252E+02  0.18879564246E+03  0.19210365027E+03  0.00000000000E+00 0. -1.
         22    1    3    3    0    0  0.27121466972E+01 -0.83931926035E+01  0.32003039322E+02  0.33196324309E+02  0.00000000000E+00 0. -1.
         22    1    3    3    0    0 -0.96306874276E+02  0.23259537872E+03  0.11000842881E+03  0.27473164842E+03  0.00000000000E+00 0. -1.
</event>
<event>
 7    1  0.6294601E-006  0.1292981E+03  0.7818608E-02  0.1231074E+00
          2   -1    0    0  502    0  0.00000000000E+00  0.00000000000E+00  0.25708592296E+03  0.25708592296E+03  0.00000000000E+00 0. -1.
          1   -1    0    0  501    0 -0.00000000000E+00 -0.00000000000E+00 -0.35162296434E+03  0.35162296434E+03  0.00000000000E+00 0. -1.
         25    2    1    2    0    0 -0.30420799242E+02  0.76101408064E+02 -0.12475765699E+03  0.19469779202E+03  0.12500363156E+03 0.  0.
          2    1    1    2  501    0  0.92042485206E+02 -0.18977100482E+03 -0.97418107706E+02  0.23232550670E+03  0.00000000000E+00 0. -1.
          1    1    1    2  502    0 -0.61621685964E+02  0.11366959676E+03  0.12763872332E+03  0.18168558858E+03  0.00000000000E+00 0. -1.
         22    1    3    3    0    0 -0.18290303166E+02  0.98414909124E+02 -0.42748732107E+02  0.10884614658E+03  0.00000000000E+00 0.  1.
         22    1    3    3    0    0 -0.12130496076E+02 -0.22313501060E+02 -0.82008924887E+02  0.85851645446E+02  0.00000000000E+00 0.  1.
</event>
<event>
 7    1  0.6294601E-006  0.9557396E+02  0.7818608E-02  0.1419712E+00
          2   -1    0    0  502    0  0.00000000000E+00  0.00000000000E+00  0.96051749876E+03  0.96051749876E+03  0.00000000000E+00 0. -1.
          1   -1    0    0  501    0 -0.00000000000E+00 -0.00000000000E+00 -0.27479752696E+03  0.27479752696E+03  0.00000000000E+00 0. -1.
         25    2    1    2    0    0 -0.69797885673E+02 -0.75809944278E+02 -0.42346115005E+01  0.16203951585E+03  0.12497991945E+03 0.  0.
          2    1    1    2  501    0 -0.13327296101E+02  0.28812204373E+02 -0.18773827135E+03  0.19040330478E+03  0.00000000000E+00 0. -1.
          1    1    1    2  502    0  0.83125181774E+02  0.46997739905E+02  0.87769285466E+03  0.88287220509E+03  0.00000000000E+00 0. -1.
         22    1    3    3    0    0 -0.77723543896E+01 -0.83375128597E+02 -0.36928516134E+02  0.91517959250E+02  0.00000000000E+00 0.  1.
         22    1    3    3    0    0 -0.62025531284E+02  0.75651843198E+01  0.32693904633E+02  0.70521556598E+02  0.00000000000E+00 0.  1.
</event>
<event>
 7    1  0.6294601E-006  0.1213885E+03  0.7818608E-02  0.1340092E+00
          2   -1    0    0  502    0  0.00000000000E+00  0.00000000000E+00  0.59644115820E+03  0.59644115820E+03  0.00000000000E+00 0. -1.
          1   -1    0    0  501    0 -0.00000000000E+00 -0.00000000000E+00 -0.67610293366E+03  0.67610293366E+03  0.00000000000E+00 0. -1.
         25    2    1    2    0    0  0.20092514916E+02  0.81373414006E+02 -0.12839720107E+03  0.19782701515E+03  0.12499738004E+03 0.  0.
          2    1    1    2  501    0  0.40289877341E+02  0.25862392862E+02 -0.50510463677E+03  0.50736853634E+03  0.00000000000E+00 0. -1.
          1    1    1    2  502    0 -0.60382392257E+02 -0.10723580687E+03  0.55384006238E+03  0.56734854037E+03  0.00000000000E+00 0. -1.
         22    1    3    3    0    0 -0.45123095612E+02  0.70608195048E+02 -0.80515511332E+02  0.11620825500E+03  0.00000000000E+00 0. -1.
         22    1    3    3    0    0  0.65215610528E+02  0.10765218958E+02 -0.47881689734E+02  0.81618760145E+02  0.00000000000E+00 0. -1.
</event>
<event>
 7    1  0.6294601E-006  0.3417069E+03  0.7818608E-02  0.1319300E+00
          2   -1    0    0  502    0  0.00000000000E+00  0.00000000000E+00  0.17961824559E+04  0.17961824559E+04  0.00000000000E+00 0. -1.
          1   -1    0    0  501    0 -0.00000000000E+00 -0.00000000000E+00 -0.11541171846E+04  0.11541171846E+04  0.00000000000E+00 0. -1.
         25    2    1    2    0    0  0.35322373169E+03  0.28298302266E+02 -0.42416593834E+03  0.56666662101E+03  0.12500607018E+03 0.  0.
          2    1    1    2  501    0 -0.14602176073E+02  0.14278384929E+02 -0.64165541101E+03  0.64198034417E+03  0.00000000000E+00 0. -1.
          1    1    1    2  502    0 -0.33862155562E+03 -0.42576687195E+02  0.17078866207E+04  0.17416526753E+04  0.00000000000E+00 0. -1.
         22    1    3    3    0    0  0.34401525897E+03  0.89183642545E+00 -0.40750011759E+03  0.53329507744E+03  0.00000000000E+00 0.  1.
         22    1    3    3    0    0  0.92084727198E+01  0.27406465840E+02 -0.16665820747E+02  0.33371543579E+02  0.00000000000E+00 0.  1.
</event>
<event>
 7    1  0.6294601E-006  0.9083858E+02  0.7818608E-02  0.1456392E+00
          2   -1    0    0  502    0  0.00000000000E+00  0.00000000000E+00  0.33741161731E+03  0.33741161731E+03  0.00000000000E+00 0. -1.
          1   -1    0    0  501    0 -0.00000000000E+00 -0.00000000000E+00 -0.97528762184E+03  0.97528762184E+03  0.00000000000E+00 0. -1.
         25    2    1    2    0    0 -0.48530372584E+02  0.76604397032E+02 -0.22790423072E+02  0.15612988905E+03  0.12503482780E+03 0.  0.
          2    1    1    2  501    0 -0.19613405126E+02 -0.16095295507E+02 -0.87797033016E+03  0.87833686296E+03  0.00000000000E+00 0. -1.
          1    1    1    2  502    0  0.68143777709E+02 -0.60509101525E+02  0.26288474870E+03  0.27823248715E+03  0.00000000000E+00 0. -1.
         22    1    3    3    0    0 -0.51548582503E+02  0.10934032088E+03 -0.11756224363E+02  0.12145275188E+03  0.00000000000E+00 0.  1.
         22    1    3    3    0    0  0.30182099194E+01 -0.32735923845E+02 -0.11034198709E+02  0.34677137169E+02  0.00000000000E+00 0.  1.
</event>
<event>
 7    1  0.1068843E-005  0.7636316E+02  0.7818608E-02  0.1345256E+00
          2   -1    0    0  502    0  0.00000000000E+00  0.00000000000E+00  0.15428424906E+04  0.15428424906E+04  0.00000000000E+00 0. -1.
          1   -1    0    0  501    0 -0.00000000000E+00 -0.00000000000E+00 -0.59614477790E+03  0.59614477790E+03  0.00000000000E+00 0. -1.
         25    2    1    2    0    0 -0.99520316331E+02  0.83129259006E+02 -0.98782693881E+02  0.20541992716E+03  0.12499823517E+03 0.  0.
          2    1    1    2  501    0  0.72400143840E+02 -0.15581322018E+02 -0.44005830879E+03  0.44624642694E+03  0.00000000000E+00 0. -1.
          1    1    1    2  502    0  0.27120172492E+02 -0.67547936989E+02  0.14855387154E+04  0.14873209144E+04  0.00000000000E+00 0. -1.
         22    1    3    3    0    0 -0.12463965531E+03  0.50047162741E+02 -0.55199467115E+02  0.14521275201E+03  0.00000000000E+00 0. -1.
         22    1    3    3    0    0  0.25119338983E+02  0.33082096266E+02 -0.43583226765E+02  0.60207175150E+02  0.00000000000E+00 0. -1.
</event>
<event>
 7    1  0.6294601E-006  0.6255387E+02  0.7818608E-02  0.1406020E+00
          2   -1    0    0  502    0  0.00000000000E+00  0.00000000000E+00  0.49669913778E+02  0.49669913778E+02  0.00000000000E+00 0. -1.
          1   -1    0    0  501    0 -0.00000000000E+00 -0.00000000000E+00 -0.16607270099E+04  0.16607270099E+04  0.00000000000E+00 0. -1.
         25    2    1    2    0    0 -0.34651773001E+02  0.16398633965E+02 -0.17763003369E+03  0.22056035013E+03  0.12499911446E+03 0.  0.
          2    1    1    2  501    0  0.81845342170E+01 -0.63407303120E+02 -0.14344552639E+04  0.14358793044E+04  0.00000000000E+00 0. -1.
          1    1    1    2  502    0  0.26467238784E+02  0.47008669155E+02  0.10282013756E+01  0.53957269229E+02  0.00000000000E+00 0. -1.
         22    1    3    3    0    0  0.25579563375E+02  0.50678761395E+02 -0.10969321234E+03  0.12351215225E+03  0.00000000000E+00 0. -1.
         22    1    3    3    0    0 -0.60231336376E+02 -0.34280127430E+02 -0.67936821341E+02  0.97048197882E+02  0.00000000000E+00 0. -1.
</event>
<event>
 7    1  0.6294601E-006  0.2698114E+02  0.7818608E-02  0.1651069E+00
          2   -1    0    0  502    0  0.00000000000E+00  0.00000000000E+00  0.84282628904E+03  0.84282628904E+03  0.00000000000E+00 0. -1.
          1   -1    0    0  501    0 -0.00000000000E+00 -0.00000000000E+00 -0.18422903055E+03  0.18422903055E+03  0.00000000000E+00 0. -1.
         25    2    1    2    0    0  0.33326983692E+02 -0.24186768650E+02 -0.13313811685E+03  0.18720480442E+03  0.12499677204E+03 0.  0.
          2    1    1    2  501    0 -0.63607717474E+01  0.23649870125E+02 -0.17541438231E+02  0.30124372680E+02  0.00000000000E+00 0. -1.
          1    1    1    2  502    0 -0.26966211945E+02  0.53689852530E+00  0.80927681357E+03  0.80972614249E+03  0.00000000000E+00 0. -1.
         22    1    3    3    0    0 -0.31977467007E+02 -0.32011087360E+02 -0.81601677847E+01  0.45976694623E+02  0.00000000000E+00 0.  1.
         22    1    3    3    0    0  0.65304450700E+02  0.78243187092E+01 -0.12497794907E+03  0.14122810980E+03  0.00000000000E+00 0.  1.
</event>
<event>
 7    1  0.6294601E-006  0.1620045E+03  0.7818608E-02  0.1286357E+00
          2   -1    0    0  502    0  0.00000000000E+00  0.00000000000E+00  0.14770010392E+04  0.14770010392E+04  0.00000000000E+00 0. -1.
          1   -1    0    0  501    0 -0.00000000000E+00 -0.00000000000E+00 -0.31114978596E+03  0.31114978596E+03  0.00000000000E+00 0. -1.
         25    2    1    2    0    0  0.47706847030E+02 -0.10429968216E+03  0.25656489346E+03  0.30757730596E+03  0.12499555045E+03 0.  0.
          2    1    1    2  501    0 -0.38200634443E+02  0.16180459868E+03 -0.26066550823E+03  0.30917070335E+03  0.00000000000E+00 0. -1.
          1    1    1    2  502    0 -0.95062125876E+01 -0.57504916518E+02  0.11699518680E+04  0.11714028159E+04  0.00000000000E+00 0. -1.
         22    1    3    3    0    0  0.51400554981E+02 -0.39320911991E+02  0.29051003255E+02  0.70937380571E+02  0.00000000000E+00 0.  1.
         22    1    3    3    0    0 -0.36937079510E+01 -0.64978770170E+02  0.22751389021E+03  0.23663992539E+03  0.00000000000E+00 0.  1.
</event>
<event>
 7    1  0.6294601E-006  0.3017499E+02  0.7818608E-02  0.1645422E+00
          2   -1    0    0  502    0  0.00000000000E+00  0.00000000000E+00  0.41574439814E+03  0.41574439814E+03  0.00000000000E+00 0. -1.
          1   -1    0    0  501    0 -0.00000000000E+00 -0.00000000000E+00 -0.17341049918E+03  0.17341049918E+03  0.00000000000E+00 0. -1.
         25    2    1    2    0    0 -0.76548283426E+01 -0.44611849686E+02  0.49832565862E+02  0.14197351211E+03  0.12499751994E+03 0.  0.
          2    1    1    2  501    0 -0.99484005004E+01  0.20302926567E+02 -0.12562453085E+03  0.12764286996E+03  0.00000000000E+00 0. -1.
          1    1    1    2  502    0  0.17603228843E+02  0.24308923119E+02  0.31812586396E+03  0.31953851525E+03  0.00000000000E+00 0. -1.
         22    1    3    3    0    0 -0.39117595274E+02  0.23886888571E+02  0.48290458494E+02  0.66578811098E+02  0.00000000000E+00 0. -1.
         22    1    3    3    0    0  0.31462766931E+02 -0.68498738257E+02  0.15421073681E+01  0.75394701013E+02  0.00000000000E+00 0. -1.
</event>
<event>
 7    1  0.6294601E-006  0.6339552E+02  0.7818608E-02  0.1430212E+00
          2   -1    0    0  502    0  0.00000000000E+00  0.00000000000E+00  0.80978778434E+03  0.80978778434E+03  0.00000000000E+00 0. -1.
          1   -1    0    0  501    0 -0.00000000000E+00 -0.00000000000E+00 -0.14285280584E+03  0.14285280584E+03  0.00000000000E+00 0. -1.
         25    2    1    2    0    0  0.10353846766E+03 -0.22412004081E+02  0.24099014830E+02  0.16562130798E+03  0.12500857143E+03 0.  0.
          2    1    1    2  501    0 -0.44074241853E+02  0.29275957341E+01 -0.63810706009E+02  0.77607446892E+02  0.00000000000E+00 0. -1.
          1    1    1    2  502    0 -0.59464225802E+02  0.19484408347E+02  0.70664666968E+03  0.70941183532E+03  0.00000000000E+00 0. -1.
         22    1    3    3    0    0  0.75890453658E+02  0.43070093000E+02 -0.80068089742E+01  0.87627066922E+02  0.00000000000E+00 0. -1.
         22    1    3    3    0    0  0.27648013997E+02 -0.65482097081E+02  0.32105823804E+02  0.77994241058E+02  0.00000000000E+00 0. -1.
</event>
<event>
 7    1  0.6294601E-006  0.5391231E+02  0.7818608E-02  0.1459612E+00
          2   -1    0    0  502    0  0.00000000000E+00  0.00000000000E+00  0.12965638594E+04  0.12965638594E+04  0.00000000000E+00 0. -1.
          1   -1    0    0  501    0 -0.00000000000E+00 -0.00000000000E+00 -0.12876672370E+03  0.12876672370E+03  0.00000000000E+00 0. -1.
         25    2    1    2    0    0  0.77133347190E+02  0.50844628750E+02  0.39278351566E+03  0.42242005708E+03  0.12500033970E+03 0.  0.
          2    1    1    2  501    0 -0.49721764143E+02 -0.19341814216E+02 -0.10718253308E+03  0.11972658437E+03  0.00000000000E+00 0. -1.
          1    1    1    2  502    0 -0.27411583047E+02 -0.31502814534E+02  0.88219615312E+03  0.88318394165E+03  0.00000000000E+00 0. -1.
         22    1    3    3    0    0  0.80297821227E+02 -0.27116370863E+01  0.33092023024E+03  0.34053383364E+03  0.00000000000E+00 0.  1.
         22    1    3    3    0    0 -0.31644740365E+01  0.53556265837E+02  0.61863285415E+02  0.81886223436E+02  0.00000000000E+00 0.  1.
</event>
<event>
 7    1  0.6294601E-006  0.6473531E+02  0.7818608E-02  0.1517734E+00
          2   -1    0    0  502    0  0.00000000000E+00  0.00000000000E+00  0.45044668340E+03  0.45044668340E+03  0.00000000000E+00 0. -1.
          1   -1    0    0  501    0 -0.00000000000E+00 -0.00000000000E+00 -0.41011560084E+03  0.41011560084E+03  0.00000000000E+00 0. -1.
         25    2    1    2    0    0  0.33239418628E+02 -0.76255948939E+02 -0.45780591120E+02  0.15697784370E+03  0.12500540864E+03 0.  0.
          2    1    1    2  501    0 -0.18756817569E+02  0.13614807346E+02 -0.30567751912E+03  0.30655493289E+03  0.00000000000E+00 0. -1.
          1    1    1    2  502    0 -0.14482601059E+02  0.62641141593E+02  0.39178919280E+03  0.39702950765E+03  0.00000000000E+00 0. -1.
         22    1    3    3    0    0  0.57475581037E+02 -0.13808496326E+02 -0.64436887406E+02  0.87442720937E+02  0.00000000000E+00 0.  1.
         22    1    3    3    0    0 -0.24236162408E+02 -0.62447452613E+02  0.18656296285E+02  0.69535122760E+02  0.00000000000E+00 0.  1.
</event>
<event>
 7    1  0.6294601E-006  0.8450813E+02  0.7818608E-02  0.1354782E+00
          2   -1    0    0  502    0  0.00000000000E+00  0.00000000000E+00  0.97918709134E+03  0.97918709134E+03  0.00000000000E+00 0. -1.
          1   -1    0    0  501    0 -0.00000000000E+00 -0.00000000000E+00 -0.33098980222E+03  0.33098980222E+03  0.00000000000E+00 0. -1.
         25    2    1    2    0    0  0.18775235186E+02  0.29654571673E+02  0.10893089585E+03  0.16947766167E+03  0.12499933863E+03 0.  0.
          2    1    1    2  501    0  0.59391268990E+02  0.12239205380E+02 -0.29528591366E+03  0.30144799184E+03  0.00000000000E+00 0. -1.
          1    1    1    2  502    0 -0.78166504176E+02 -0.41893777054E+02  0.83455230692E+03  0.83925124005E+03  0.00000000000E+00 0. -1.
         22    1    3    3    0    0 -0.30685887764E+02 -0.33105432822E+02  0.18454397684E+02  0.48766363244E+02  0.00000000000E+00 0. -1.
         22    1    3    3    0    0  0.49461122951E+02  0.62760004495E+02  0.90476498163E+02  0.12071129843E+03  0.00000000000E+00 0. -1.
</event>
<event>
 7    1  0.6294601E-006  0.5539029E+02  0.7818608E-02  0.1433987E+00
          2   -1    0    0  502    0  0.00000000000E+00  0.00000000000E+00  0.66524292620E+03  0.66524292620E+03  0.00000000000E+00 0. -1.
          1   -1    0    0  501    0 -0.00000000000E+00 -0.00000000000E+00 -0.26969308784E+02  0.26969308784E+02  0.00000000000E+00 0. -1.
         25    2    1    2    0    0  0.63597567141E+01 -0.77833184794E+02  0.26088156385E+03  0.29963712444E+03  0.12499905929E+03 0.  0.
          2    1    1    2  501    0 -0.33738199217E+02  0.37034978117E+02  0.11229767231E+03  0.12296594202E+03  0.00000000000E+00 0. -1.
          1    1    1    2  502    0  0.27378442502E+02  0.40798206676E+02  0.26509438125E+03  0.26960916853E+03  0.00000000000E+00 0. -1.
         22    1    3    3    0    0 -0.57355756361E+02 -0.29750931610E+02  0.14693117173E+03  0.16051034217E+03  0.00000000000E+00 0. -1.
         22    1    3    3    0    0  0.63715513075E+02 -0.48082253184E+02  0.11395039212E+03  0.13912678226E+03  0.00000000000E+00 0. -1.
</event>
<event>
 7    1  0.6294601E-006  0.8858373E+02  0.7818608E-02  0.1451866E+00
          2   -1    0    0  502    0  0.00000000000E+00  0.00000000000E+00  0.19668355608E+04  0.19668355608E+04  0.00000000000E+00 0. -1.
          1   -1    0    0  501    0 -0.00000000000E+00 -0.00000000000E+00 -0.25768887515E+02  0.25768887515E+02  0.00000000000E+00 0. -1.
         25    2    1    2    0    0 -0.91676794833E+02 -0.40381026634E+02  0.85963790654E+03  0.87443567003E+03  0.12500059454E+03 0.  0.
          2    1    1    2  501    0  0.68652667395E+02  0.54281682152E+02  0.87095757924E+02  0.12347210538E+03  0.00000000000E+00 0. -1.
          1    1    1    2  502    0  0.23024127438E+02 -0.13900655518E+02  0.99433300878E+03  0.99469667287E+03  0.00000000000E+00 0. -1.
         22    1    3    3    0    0 -0.81185611010E+02 -0.32649423902E+02  0.85659484695E+03  0.86105273947E+03  0.00000000000E+00 0. -1.
         22    1    3    3    0    0 -0.10491183823E+02 -0.77316027318E+01  0.30430595889E+01  0.13382930564E+02  0.00000000000E+00 0. -1.
</event>
<event>
 7    1  0.7595285E-006  0.1180167E+03  0.7818608E-02  0.1318341E+00
          2   -1    0    0  502    0  0.00000000000E+00  0.00000000000E+00  0.15689027425E+04  0.15689027425E+04  0.00000000000E+00 0. -1.
          1   -1    0    0  501    0 -0.00000000000E+00 -0.00000000000E+00 -0.12873361578E+04  0.12873361578E+04  0.00000000000E+00 0. -1.
         25    2    1    2    0    0 -0.14244746996E+03 -0.49269257052E+02 -0.85493549315E+03  0.87707397890E+03  0.12500130246E+03 0.  0.
          2    1    1    2  501    0  0.24596895881E+02  0.54334259592E+02 -0.41697343862E+03  0.42121736380E+03  0.00000000000E+00 0. -1.
          1    1    1    2  502    0  0.11785057408E+03 -0.50650025392E+01  0.15534755165E+04  0.15579475577E+04  0.00000000000E+00 0. -1.
         22    1    3    3    0    0 -0.11754295873E+03 -0.58999912989E+02 -0.83050934021E+03  0.84085854997E+03  0.00000000000E+00 0.  1.
         22    1    3    3    0    0 -0.24904511236E+02  0.97306559364E+01 -0.24426152941E+02  0.36215428927E+02  0.00000000000E+00 0.  1.
</event>
<event>
 7    1  0.6294601E-006  0.2548932E+03  0.7818608E-02  0.1289060E+00
          2   -1    0    0  502    0  0.00000000000E+00  0.00000000000E+00  0.13231941710E+04  0.13231941710E+04  0.00000000000E+00 0. -1.
          1   -1    0    0  501    0 -0.00000000000E+00 -0.00000000000E+00 -0.85830964874E+03  0.85830964874E+03  0.00000000000E+00 0. -1.
         25    2    1    2    0    0  0.22015662345E+03 -0.69448555838E+02  0.32494849805E+02  0.26453850717E+03  0.12503065927E+03 0.  0.
          2    1    1    2  501    0  0.17084407276E+02 -0.31819068869E+02 -0.72767357690E+03  0.72856925864E+03  0.00000000000E+00 0. -1.
          1    1    1    2  502    0 -0.23724103072E+03  0.10126762471E+03  0.11600632494E+04  0.11883960539E+04  0.00000000000E+00 0. -1.
         22    1    3    3    0    0  0.14640560355E+03 -0.15464761658E+02 -0.34510328914E+02  0.15121085413E+03  0.00000000000E+00 0. -1.
         22    1    3    3    0    0  0.73751019897E+02 -0.53983794180E+02  0.67005178719E+02  0.11332765305E+03  0.00000000000E+00 0. -1.
</event>
<event>
 7    1  0.6294601E-006  0.8414301E+02  0.7818608E-02  0.1325440E+00
          2   -1    0    0  502    0  0.00000000000E+00  0.00000000000E+00  0.20666012841E+04  0.20666012841E+04  0.00000000000E+00 0. -1.
          1   -1    0    0  501    0 -0.00000000000E+00 -0.00000000000E+00 -0.79742428725E+03  0.79742428725E+03  0.00000000000E+00 0. -1.
         25    2    1    2    0    0 -0.43277634571E+02  0.14749210948E+03  0.30819670152E+03  0.36638422286E+03  0.12500126368E+03 0.  0.
          2    1    1    2  501    0 -0.10930776685E+01 -0.78519118549E+02 -0.76534804932E+03  0.76936602693E+03  0.00000000000E+00 0. -1.
          1    1    1    2  502    0  0.44370712240E+02 -0.68972990929E+02  0.17263283446E+04  0.17282753216E+04  0.00000000000E+00 0. -1.
         22    1    3    3    0    0  0.21655254341E+02  0.99240669116E+02  0.97944538817E+02  0.14110560985E+03  0.00000000000E+00 0.  1.
         22    1    3    3    0    0 -0.64932888913E+02  0.48251440362E+02  0.21025216270E+03  0.22527861301E+03  0.00000000000E+00 0.  1.
</event>
<event>
 7    1  0.6294601E-006  0.9228226E+02  0.7818608E-02  0.1310355E+00
          2   -1    0    0  502    0  0.00000000000E+00  0.00000000000E+00  0.70110381398E+03  0.70110381398E+03  0.00000000000E+00 0. -1.
          1   -1    0    0  501    0 -0.00000000000E+00 -0.00000000000E+00 -0.19459541194E+03  0.19459541194E+03  0.00000000000E+00 0. -1.
         25    2    1    2    0    0  0.23681861249E+01  0.14796706603E+03 -0.18719434295E+00  0.19371352549E+03  0.12500013592E+03 0.  0.
          2    1    1    2  501    0  0.43499387977E+02 -0.69472429280E+02 -0.76276386691E+02  0.11196741647E+03  0.00000000000E+00 0. -1.
          1    1    1    2  502    0 -0.45867574102E+02 -0.78494636751E+02  0.58297198308E+03  0.59001828396E+03  0.00000000000E+00 0. -1.
         22    1    3    3    0    0  0.23083622971E+02  0.16517664034E+03 -0.55346178759E-01  0.16678183123E+03  0.00000000000E+00 0. -1.
         22    1    3    3    0    0 -0.20715436846E+02 -0.17209574312E+02 -0.13184816419E+00  0.26931694259E+02  0.00000000000E+00 0. -1.
</event>
<event>
 7    1  0.6294601E-006  0.1023837E+03  0.7818608E-02  0.1275951E+00
          2   -1    0    0  502    0  0.00000000000E+00  0.00000000000E+00  0.38627208540E+03  0.38627208540E+03  0.00000000000E+00 0. -1.
          1   -1    0    0  501    0 -0.00000000000E+00 -0.00000000000E+00 -0.26602513550E+03  0.26602513550E+03  0.00000000000E+00 0. -1.
         25    2    1    2    0    0  0.27282033689E+02  0.61992789423E+02  0.15286367830E+02  0.14298555559E+03  0.12499512296E+03 0.  0.
          2    1    1    2  501    0 -0.99012104598E+02  0.26058083757E+02 -0.17747930773E+03  0.20489344855E+03  0.00000000000E+00 0. -1.
          1    1    1    2  502    0  0.71730070909E+02 -0.88050873180E+02  0.28243988980E+03  0.30441821675E+03  0.00000000000E+00 0. -1.
         22    1    3    3    0    0  0.44961327788E+02  0.84018331387E+02 -0.20423955358E+02  0.97456343857E+02  0.00000000000E+00 0.  1.
         22    1    3    3    0    0 -0.17679294099E+02 -0.22025541964E+02  0.35710323188E+02  0.45529211731E+02  0.00000000000E+00 0.  1.
</event>
<event>
 7    1  0.6294601E-006  0.1023981E+03  0.7818608E-02  0.1363481E+00
          2   -1    0    0  502    0  0.00000000000E+00  0.00000000000E+00  0.90222998925E+03  0.90222998925E+03  0.00000000000E+00 0. -1.
          1   -1    0    0  501    0 -0.00000000000E+00 -0.00000000000E+00 -0.20818891844E+04  0.20818891844E+04  0.00000000000E+00 0. -1.
         25    2    1    2    0    0 -0.67197917722E+02 -0.56984623242E+02  0.42558504594E+03  0.45222918270E+03  0.12500317966E+03 0.  0.
          2    1    1    2  501    0  0.39669653714E+02  0.94476438734E+02 -0.20661269075E+04  0.20686662072E+04  0.00000000000E+00 0. -1.
          1    1    1    2  502    0  0.27528264008E+02 -0.37491815492E+02  0.46088266646E+03  0.46322378370E+03  0.00000000000E+00 0. -1.
         22    1    3    3    0    0  0.20602583950E+02  0.22116183340E+02  0.49350494840E+02  0.57871092714E+02  0.00000000000E+00 0. -1.
         22    1    3    3    0    0 -0.87800501673E+02 -0.79100806582E+02  0.37623455110E+03  0.39435808999E+03  0.00000000000E+00 0. -1.
</event>
<event>
 7    1  0.6294601E-006  0.9236695E+02  0.7818608E-02  0.1452761E+00
          2   -1    0    0  502    0  0.00000000000E+00  0.00000000000E+00  0.47581318205E+02  0.47581318205E+02  0.00000000000E+00 0. -1.
          1   -1    0    0  501    0 -0.00000000000E+00 -0.00000000000E+00 -0.85768520196E+03  0.85768520196E+03  0.00000000000E+00 0. -1.
         25    2    1    2    0    0 -0.11260956002E+02  0.69586899306E+02 -0.39148093795E+03  0.41695497868E+03  0.12499993515E+03 0.  0.
          2    1    1    2  501    0 -0.11818995776E+01  0.25597022411E+02 -0.38611271064E+03  0.38696205210E+03  0.00000000000E+00 0. -1.
          1    1    1    2  502    0  0.12442855580E+02 -0.95183921717E+02 -0.32510235168E+02  0.10134948939E+03  0.00000000000E+00 0. -1.
         22    1    3    3    0    0 -0.30424059038E+02 -0.19522244031E+02 -0.21810450641E+03  0.22107988850E+03  0.00000000000E+00 0.  1.
         22    1    3    3    0    0  0.19163103035E+02  0.89109143337E+02 -0.17337643153E+03  0.19587509019E+03  0.00000000000E+00 0.  1.
</event>
<event>
 7    1  0.6294601E-006  0.7642941E+02  0.7818608E-02  0.1356148E+00
          2   -1    0    0  502    0  0.00000000000E+00  0.00000000000E+00  0.79021869480E+02  0.79021869480E+02  0.00000000000E+00 0. -1.
          1   -1    0    0  501    0 -0.00000000000E+00 -0.00000000000E+00 -0.15182751593E+04  0.15182751593E+04  0.00000000000E+00 0. -1.
         25    2    1    2    0    0 -0.18147715034E+02  0.88398509541E+02 -0.36947971118E+03  0.40035454827E+03  0.12499948519E+03 0.  0.
          2    1    1    2  501    0  0.61547701667E+02 -0.24591918823E+02 -0.11085849334E+04  0.11105644676E+04  0.00000000000E+00 0. -1.
          1    1    1    2  502    0 -0.43399986632E+02 -0.63806590718E+02  0.38811354774E+02  0.86378012933E+02  0.00000000000E+00 0. -1.
         22    1    3    3    0    0  0.18576255087E+01  0.11355806516E+03 -0.22145353943E+03  0.24887859503E+03  0.00000000000E+00 0.  1.
         22    1    3    3    0    0 -0.20005340543E+02 -0.25159555618E+02 -0.14802617175E+03  0.15147595324E+03  0.00000000000E+00 0.  1.
</event>
<event>
 7    1  0.6294601E-006  0.2581817E+03  0.7818608E-02  0.1193422E+00
          2   -1    0    0  502    0  0.00000000000E+00  0.00000000000E+00  0.58674356445E+03  0.58674356445E+03  0.00000000000E+00 0. -1.
          1   -1    0    0  501    0 -0.00000000000E+00 -0.00000000000E+00 -0.44549125932E+03  0.44549125932E+03  0.00000000000E+00 0. -1.
         25    2    1    2    0    0  0.17194563515E+03 -0.10611759372E+03 -0.20222201866E+02  0.23845374824E+03  0.12500002983E+03 0.  0.
          2    1    1    2  501    0 -0.23781972046E+03  0.17334330473E+03 -0.24104365505E+03  0.38040526334E+03  0.00000000000E+00 0. -1.
          1    1    1    2  502    0  0.65874085313E+02 -0.67225711001E+02  0.40251816204E+03  0.41337581220E+03  0.00000000000E+00 0. -1.
         22    1    3    3    0    0  0.75291968216E+02 -0.60019092453E+02 -0.71299887815E+02  0.11981171036E+03  0.00000000000E+00 0.  1.
         22    1    3    3    0    0  0.96653666934E+02 -0.46098501272E+02  0.51077685949E+02  0.11864203788E+03  0.00000000000E+00 0.  1.
</event>
<event>
 7    1  0.6294601E-006  0.7897136E+02  0.7818608E-02  0.1337072E+00
          2   -1    0    0  502    0  0.00000000000E+00  0.00000000000E+00  0.21007219753E+04  0.21007219753E+04  0.00000000000E+00 0. -1.
          1   -1    0    0  501    0 -0.00000000000E+00 -0.00000000000E+00 -0.26389028177E+04  0.26389028177E+04  0.00000000000E+00 0. -1.
         25    2    1    2    0    0 -0.10977829702E+02 -0.22495644108E+02  0.37951782689E+03  0.40035648460E+03  0.12499986836E+03 0.  0.
          2    1    1    2  501    0 -0.74292061494E+02  0.13707442247E+02 -0.26268662995E+04  0.26279523892E+04  0.00000000000E+00 0. -1.
          1    1    1    2  502    0  0.85269891196E+02  0.87882018606E+01  0.17091676302E+04  0.17113159191E+04  0.00000000000E+00 0. -1.
         22    1    3    3    0    0 -0.37579578668E+01  0.38886048769E+02  0.42537940671E+02  0.57755722078E+02  0.00000000000E+00 0.  1.
         22    1    3    3    0    0 -0.72198718352E+01 -0.61381692877E+02  0.33697988621E+03  0.34260076253E+03  0.00000000000E+00 0.  1.
</event>
<event>
 7    1  0.6294601E-006  0.7879764E+02  0.7818608E-02  0.1388475E+00
          2   -1    0    0  502    0  0.00000000000E+00  0.00000000000E+00  0.81267655728E+03  0.81267655728E+03  0.00000000000E+00 0. -1.
          1   -1    0    0  501    0 -0.00000000000E+00 -0.00000000000E+00 -0.12095245621E+03  0.12095245621E+03  0.00000000000E+00 0. -1.
         25    2    1    2    0    0  0.49554454689E+02  0.95569737205E+02  0.26128581397E+03  0.30900499649E+03  0.12499837050E+03 0.  0.
          2    1    1    2  501    0 -0.61304871563E+02 -0.47755637890E+02 -0.80167409249E+02  0.11164990700E+03  0.00000000000E+00 0. -1.
          1    1    1    2  502    0  0.11750416874E+02 -0.47814099315E+02  0.51060569634E+03  0.51297411000E+03  0.00000000000E+00 0. -1.
         22    1    3    3    0    0  0.21272166051E+01  0.28074266034E+02 -0.64201062201E+01  0.28877451891E+02  0.00000000000E+00 0. -1.
         22    1    3    3    0    0  0.47427238084E+02  0.67495471171E+02  0.26770592019E+03  0.28012754460E+03  0.00000000000E+00 0. -1.
</event>
<event>
 7    1  0.6294601E-006  0.4875939E+02  0.7818608E-02  0.1503752E+00
          2   -1    0    0  502    0  0.00000000000E+00  0.00000000000E+00  0.10045864755E+04  0.10045864755E+04  0.00000000000E+00 0. -1.
          1   -1    0    0  501    0 -0.00000000000E+00 -0.00000000000E+00 -0.13136733776E+04  0.13136733776E+04  0.00000000000E+00 0. -1.
         25    2    1    2    0    0  0.78895892132E+01 -0.29002806998E+02  0.26969679044E+03  0.29877087295E+03  0.12499706925E+03 0.  0.
          2    1    1    2  501    0  0.22848960596E+02  0.43123347956E+02 -0.12982805060E+04  0.12991974331E+04  0.00000000000E+00 0. -1.
          1    1    1    2  502    0 -0.30738549810E+02 -0.14120540958E+02  0.71949681342E+03  0.72029154698E+03  0.00000000000E+00 0. -1.
         22    1    3    3    0    0 -0.18735515323E+02 -0.15404873930E+02  0.26771200950E+03  0.26880857447E+03  0.00000000000E+00 0.  1.
         22    1    3    3    0    0  0.26625104536E+02 -0.13597933068E+02  0.19847809368E+01  0.29962298487E+02  0.00000000000E+00 0.  1.
</event>
<event>
 7    1  0.6294601E-006  0.6892571E+02  0.7818608E-02  0.1419829E+00
          2   -1    0    0  502    0  0.00000000000E+00  0.00000000000E+00  0.10782828619E+03  0.10782828619E+03  0.00000000000E+00 0. -1.
          1   -1    0    0  501    0 -0.00000000000E+00 -0.00000000000E+00 -0.84695537782E+03  0.84695537782E+03  0.00000000000E+00 0. -1.
         25    2    1    2    0    0 -0.67609117556E+02 -0.40034755380E+02 -0.44389807262E+03  0.46780780423E+03  0.12499947365E+03 0.  0.
          2    1    1    2  501    0  0.29747931604E+02  0.62411043884E+02 -0.38279376276E+03  0.38898732966E+03  0.00000000000E+00 0. -1.
          1    1    1    2  502    0  0.37861185953E+02 -0.22376288504E+02  0.87564743742E+02  0.97988530122E+02  0.00000000000E+00 0. -1.
         22    1    3    3    0    0 -0.17089494501E+02  0.17913313784E+00 -0.36698894982E+03  0.36738667940E+03  0.00000000000E+00 0. -1.
         22    1    3    3    0    0 -0.50519623056E+02 -0.40213888518E+02 -0.76909122798E+02  0.10042112483E+03  0.00000000000E+00 0. -1.
</event>
<event>
 7    1  0.6294601E-006  0.1237828E+03  0.7818608E-02  0.1375776E+00
          2   -1    0    0  502    0  0.00000000000E+00  0.00000000000E+00  0.10833860175E+04  0.10833860175E+04  0.00000000000E+00 0. -1.
          1   -1    0    0  501    0 -0.00000000000E+00 -0.00000000000E+00 -0.68825066192E+03  0.68825066192E+03  0.00000000000E+00 0. -1.
         25    2    1    2    0    0  0.87575161354E+02 -0.60389322542E+02  0.20255733699E+03  0.26071239804E+03  0.12500080223E+03 0.  0.
          2    1    1    2  501    0 -0.11702403373E+03  0.41938014441E+02 -0.65295211551E+03  0.66468028907E+03  0.00000000000E+00 0. -1.
          1    1    1    2  502    0  0.29448872373E+02  0.18451308101E+02  0.84553013410E+03  0.84624399231E+03  0.00000000000E+00 0. -1.
         22    1    3    3    0    0  0.47112313717E+02 -0.77562699350E+02  0.19636629383E+03  0.21632212967E+03  0.00000000000E+00 0.  1.
         22    1    3    3    0    0  0.40462847637E+02  0.17173376808E+02  0.61910431574E+01  0.44390268362E+02  0.00000000000E+00 0.  1.
</event>
<event>
 7    1  0.6294601E-006  0.1444299E+03  0.7818608E-02  0.1214917E+00
          2   -1    0    0  502    0  0.00000000000E+00  0.00000000000E+00  0.50488578108E+03  0.50488578108E+03  0.00000000000E+00 0. -1.
          1   -1    0    0  501    0 -0.00000000000E+00 -0.00000000000E+00 -0.15365124747E+04  0.15365124747E+04  0.00000000000E+00 0. -1.
         25    2    1    2    0    0 -0.15639145158E+03  0.12763269677E+03 -0.26778582595E+03  0.35788650820E+03  0.12500045102E+03 0.  0.
          2    1    1    2  501    0  0.12397781922E+02 -0.13286332455E+03 -0.12086259360E+04  0.12159699919E+04  0.00000000000E+00 0. -1.
          1    1    1    2  502    0  0.14399366965E+03  0.52306277845E+01  0.44478506830E+03  0.46754175573E+03  0.00000000000E+00 0. -1.
         22    1    3    3    0    0 -0.15675750676E+03  0.95438368114E+02 -0.26902973180E+03  0.32566607841E+03  0.00000000000E+00 0.  1.
         22    1    3    3    0    0  0.36605518167E+00  0.32194328656E+02  0.12439058455E+01  0.32220429789E+02  0.00000000000E+00 0.  1.
</event>
<event>
 7    1  0.6294601E-006  0.9907170E+02  0.7818608E-02  0.1339265E+00
          2   -1    0    0  502    0  0.00000000000E+00  0.00000000000E+00  0.11588490709E+04  0.11588490709E+04  0.00000000000E+00 0. -1.
          1   -1    0    0  501    0 -0.00000000000E+00 -0.00000000000E+00 -0.45664072425E+03  0.45664072425E+03  0.00000000000E+00 0. -1.
         25    2    1    2    0    0  0.40274387446E+02  0.86705552868E+01  0.37626276374E+03  0.39861757138E+03  0.12500038409E+03 0.  0.
          2    1    1    2  501    0 -0.99313616218E+02 -0.10935294423E+02 -0.43870689270E+03  0.44994056578E+03  0.00000000000E+00 0. -1.
          1    1    1    2  502    0  0.59039228772E+02  0.22647391362E+01  0.76465247565E+03  0.76693165804E+03  0.00000000000E+00 0. -1.
         22    1    3    3    0    0  0.18686447397E+02  0.38347782761E+02  0.34426804722E+02  0.54817338885E+02  0.00000000000E+00 0.  1.
         22    1    3    3    0    0  0.21587940049E+02 -0.29677227474E+02  0.34183595901E+03  0.34380023249E+03  0.00000000000E+00 0.  1.
</event>
<event>
 7    1  0.6294601E-006  0.8557231E+02  0.7818608E-02  0.1354260E+00
          2   -1    0    0  502    0  0.00000000000E+00  0.00000000000E+00  0.19072766142E+04  0.19072766142E+04  0.00000000000E+00 0. -1.
          1   -1    0    0  501    0 -0.00000000000E+00 -0.00000000000E+00 -0.34983177274E+04  0.34983177274E+04  0.00000000000E+00 0. -1.
         25    2    1    2    0    0 -0.33495157243E+02 -0.52932289954E+02  0.63767678788E+02  0.15367361477E+03  0.12500204055E+03 0.  0.
          2    1    1    2  501    0 -0.18107621976E+02  0.83839286962E+02 -0.34523290268E+04  0.34533943623E+04  0.00000000000E+00 0. -1.
          1    1    1    2  502    0  0.51602779219E+02 -0.30906997008E+02  0.17975202348E+04  0.17985263645E+04  0.00000000000E+00 0. -1.
         22    1    3    3    0    0  0.42564028169E+02 -0.44989463382E+02  0.17766780330E+02  0.64431411537E+02  0.00000000000E+00 0.  1.
         22    1    3    3    0    0 -0.76059185412E+02 -0.79428265718E+01  0.46000898457E+02  0.89242203236E+02  0.00000000000E+00 0.  1.
</event>
<event>
 7    1  0.6294601E-006  0.8790936E+02  0.7818608E-02  0.1367296E+00
          2   -1    0    0  502    0  0.00000000000E+00  0.00000000000E+00  0.11473921085E+03  0.11473921085E+03  0.00000000000E+00 0. -1.
          1   -1    0    0  501    0 -0.00000000000E+00 -0.00000000000E+00 -0.12083496050E+04  0.12083496050E+04  0.00000000000E+00 0. -1.
         25    2    1    2    0    0  0.10250766416E+03  0.53088809101E+02 -0.40590328647E+02  0.17492743339E+03  0.12500315719E+03 0.  0.
          2    1    1    2  501    0 -0.87428018753E+02 -0.28188091379E+01 -0.10837960764E+04  0.10873203481E+04  0.00000000000E+00 0. -1.
          1    1    1    2  502    0 -0.15079645410E+02 -0.50269999963E+02  0.30776010977E+02  0.60841034291E+02  0.00000000000E+00 0. -1.
         22    1    3    3    0    0  0.33497122331E+02  0.49449604469E+02 -0.76494834358E+02  0.97050400669E+02  0.00000000000E+00 0. -1.
         22    1    3    3    0    0  0.69010541832E+02  0.36392046316E+01  0.35904505711E+02  0.77877032716E+02  0.00000000000E+00 0. -1.
</event>
<event>
 7    1  0.6294601E-006  0.1189023E+03  0.7818608E-02  0.1296401E+00
          2   -1    0    0  502    0  0.00000000000E+00  0.00000000000E+00  0.49051703534E+03  0.49051703534E+03  0.00000000000E+00 0. -1.
          1   -1    0    0  501    0 -0.00000000000E+00 -0.00000000000E+00 -0.12175032452E+03  0.12175032452E+03  0.00000000000E+00 0. -1.
         25    2    1    2    0    0 -0.32429239245E+02 -0.15043491092E+03  0.11063496090E+03  0.22704154027E+03  0.12500179380E+03 0.  0.
          2    1    1    2  501    0 -0.39131470628E+02  0.60794015125E+02 -0.27555615800E+02  0.77372451368E+02  0.00000000000E+00 0. -1.
          1    1    1    2  502    0  0.71560709873E+02  0.89640895795E+02  0.28568736572E+03  0.30785336823E+03  0.00000000000E+00 0. -1.
         22    1    3    3    0    0  0.42354137770E+02 -0.32038831785E+02  0.54722700325E+02  0.76255712305E+02  0.00000000000E+00 0. -1.
         22    1    3    3    0    0 -0.74783377015E+02 -0.11839607914E+03  0.55912260574E+02  0.15078582796E+03  0.00000000000E+00 0. -1.
</event>
<event>
 7    1  0.6294601E-006  0.2649574E+02  0.7818608E-02  0.1667929E+00
          2   -1    0    0  502    0  0.00000000000E+00  0.00000000000E+00  0.80715361942E+03  0.80715361942E+03  0.00000000000E+00 0. -1.
          1   -1    0    0  501    0 -0.00000000000E+00 -0.00000000000E+00 -0.38572886127E+03  0.38572886127E+03  0.00000000000E+00 0. -1.
         25    2    1    2    0    0 -0.34844863958E+02  0.24535285035E+02 -0.15857077544E+02  0.13301481904E+03  0.12500140168E+03 0.  0.
          2    1    1    2  501    0  0.86222068347E+01 -0.20998439103E+02 -0.31064482898E+03  0.31147309140E+03  0.00000000000E+00 0. -1.
          1    1    1    2  502    0  0.26222657123E+02 -0.35368459316E+01  0.74792666468E+03  0.74839457024E+03  0.00000000000E+00 0. -1.
         22    1    3    3    0    0 -0.61447117342E+02 -0.21718108269E+02 -0.37777613686E+02  0.75329758743E+02  0.00000000000E+00 0. -1.
         22    1    3    3    0    0  0.26602253385E+02  0.46253393304E+02  0.21920536142E+02  0.57685060302E+02  0.00000000000E+00 0. -1.
</event>
<event>
 7    1  0.6294601E-006  0.1237658E+03  0.7818608E-02  0.1346174E+00
          2   -1    0    0  502    0  0.00000000000E+00  0.00000000000E+00  0.41103699031E+03  0.41103699031E+03  0.00000000000E+00 0. -1.
          1   -1    0    0  501    0 -0.00000000000E+00 -0.00000000000E+00 -0.31321013456E+03  0.31321013456E+03  0.00000000000E+00 0. -1.
         25    2    1    2    0    0 -0.19204902108E+01  0.15769161420E+03  0.14940177861E+03  0.25062112670E+03  0.12497889512E+03 0.  0.
          2    1    1    2  501    0  0.50678639208E+01 -0.44268749744E+02 -0.24519357777E+03  0.24920934177E+03  0.00000000000E+00 0. -1.
          1    1    1    2  502    0 -0.31473737099E+01 -0.11342286445E+03  0.19361865491E+03  0.22441665640E+03  0.00000000000E+00 0. -1.
         22    1    3    3    0    0  0.14385748549E+02  0.15702589116E+03  0.75294075682E+02  0.17473774088E+03  0.00000000000E+00 0.  1.
         22    1    3    3    0    0 -0.16306238760E+02  0.66572303674E+00  0.74107702928E+02  0.75883385816E+02  0.00000000000E+00 0.  1.
</event>
<event>
 7    1  0.6294601E-006  0.8133285E+02  0.7818608E-02  0.1335495E+00
          2   -1    0    0  502    0  0.00000000000E+00  0.00000000000E+00  0.48337793275E+03  0.48337793275E+03  0.00000000000E+00 0. -1.
          1   -1    0    0  501    0 -0.00000000000E+00 -0.00000000000E+00 -0.24916018359E+03  0.24916018359E+03  0.00000000000E+00 0. -1.
         25    2    1    2    0    0 -0.40309252600E+02  0.19597718173E+02 -0.65633464803E+00  0.13279416446E+03  0.12499981175E+03 0.  0.
          2    1    1    2  501    0  0.14969156638E+02 -0.89515126082E+02 -0.16752533997E+03  0.19053024164E+03  0.00000000000E+00 0. -1.
          1    1    1    2  502    0  0.25340095962E+02  0.69917407909E+02  0.40239942378E+03  0.40921371024E+03  0.00000000000E+00 0. -1.
         22    1    3    3    0    0 -0.36079027223E+01  0.67341949028E+02 -0.18601348253E+02  0.69956881133E+02  0.00000000000E+00 0.  1.
         22    1    3    3    0    0 -0.36701349878E+02 -0.47744230855E+02  0.17945013605E+02  0.62837283328E+02  0.00000000000E+00 0.  1.
</event>
<event>
 7    1  0.6294601E-006  0.1224625E+03  0.7818608E-02  0.1399070E+00
          2   -1    0    0  502    0  0.00000000000E+00  0.00000000000E+00  0.25846695768E+03  0.25846695768E+03  0.00000000000E+00 0. -1.
          1   -1    0    0  501    0 -0.00000000000E+00 -0.00000000000E+00 -0.49367256689E+03  0.49367256689E+03  0.00000000000E+00 0. -1.
         25    2    1    2    0    0  0.31406662493E+02 -0.90746305451E+02  0.35888263826E+02  0.16166738905E+03  0.12500842691E+03 0.  0.
          2    1    1    2  501    0 -0.36815708271E+02  0.11934864056E+03 -0.42029379452E+03  0.43845908371E+03  0.00000000000E+00 0. -1.
          1    1    1    2  502    0  0.54090457782E+01 -0.28602335108E+02  0.14919992148E+03  0.15201305181E+03  0.00000000000E+00 0. -1.
         22    1    3    3    0    0 -0.12610283442E+02 -0.74719485525E+01  0.62172468307E+02  0.63876952644E+02  0.00000000000E+00 0. -1.
         22    1    3    3    0    0  0.44016945935E+02 -0.83274356899E+02 -0.26284204482E+02  0.97790436402E+02  0.00000000000E+00 0. -1.
</event>
<event>
 7    1  0.6294601E-006  0.4111577E+02  0.7818608E-02  0.1598618E+00
          2   -1    0    0  502    0  0.00000000000E+00  0.00000000000E+00  0.34224303489E+03  0.34224303489E+03  0.00000000000E+00 0. -1.
          1   -1    0    0  501    0 -0.00000000000E+00 -0.00000000000E+00 -0.36841839529E+03  0.36841839529E+03  0.00000000000E+00 0. -1.
         25    2    1    2    0    0 -0.12855439866E+02 -0.61177071182E+02 -0.21751775744E+03  0.25854600097E+03  0.12499665373E+03 0.  0.
          2    1    1    2  501    0  0.73271503840E+01  0.20552603477E+02 -0.12815448792E+03  0.12999872852E+03  0.00000000000E+00 0. -1.
          1    1    1    2  502    0  0.55282894822E+01  0.40624467705E+02  0.31949688497E+03  0.32211670069E+03  0.00000000000E+00 0. -1.
         22    1    3    3    0    0  0.55508788666E+02 -0.36148549643E+02 -0.11671458696E+03  0.13420222826E+03  0.00000000000E+00 0. -1.
         22    1    3    3    0    0 -0.68364228532E+02 -0.25028521539E+02 -0.10080317048E+03  0.12434377271E+03  0.00000000000E+00 0. -1.
</event>
<event>
 7    1  0.6294601E-006  0.1084790E+03  0.7818608E-02  0.1341294E+00
          2   -1    0    0  502    0  0.00000000000E+00  0.00000000000E+00  0.17598969966E+04  0.17598969966E+04  0.00000000000E+00 0. -1.
          1   -1    0    0  501    0 -0.00000000000E+00 -0.00000000000E+00 -0.53301546784E+03  0.53301546784E+03  0.00000000000E+00 0. -1.
         25    2    1    2    0    0  0.13522973583E+01 -0.15545134805E+03  0.99395239072E+02  0.22286978405E+03  0.12499830708E+03 0.  0.
          2    1    1    2  501    0  0.16455026212E+02  0.10551210579E+03 -0.46478201411E+03  0.47689190913E+03  0.00000000000E+00 0. -1.
          1    1    1    2  502    0 -0.17807323570E+02  0.49939242255E+02  0.15922683038E+04  0.15931507713E+04  0.00000000000E+00 0. -1.
         22    1    3    3    0    0 -0.34919781951E+02 -0.49552661598E+02  0.92661016820E+02  0.11072904534E+03  0.00000000000E+00 0.  1.
         22    1    3    3    0    0  0.36272079309E+02 -0.10589868645E+03  0.67342222515E+01  0.11214073871E+03  0.00000000000E+00 0.  1.
</event>
<event>
 7    1  0.6294601E-006  0.2612342E+03  0.7818608E-02  0.1214575E+00
          2   -1    0    0  502    0  0.00000000000E+00  0.00000000000E+00  0.51615940626E+03  0.51615940626E+03  0.00000000000E+00 0. -1.
          1   -1    0    0  501    0 -0.00000000000E+00 -0.00000000000E+00 -0.88249423001E+03  0.88249423001E+03  0.00000000000E+00 0. -1.
         25    2    1    2    0    0  0.10244730159E+03 -0.18168217476E+03 -0.29448807448E+02  0.24493810698E+03  0.12499432692E+03 0.  0.
          2    1    1    2  501    0 -0.98742128806E+02  0.25563301552E+03 -0.71641101622E+03  0.76703519527E+03  0.00000000000E+00 0. -1.
          1    1    1    2  502    0 -0.37051727858E+01 -0.73950840751E+02  0.37952499992E+03  0.38668033402E+03  0.00000000000E+00 0. -1.
         22    1    3    3    0    0  0.12891434409E+03 -0.13457160675E+03 -0.38109112273E+02  0.19021232844E+03  0.00000000000E+00 0. -1.
         22    1    3    3    0    0 -0.26467042495E+02 -0.47110568015E+02  0.86603048255E+01  0.54725778540E+02  0.00000000000E+00 0. -1.
</event>
<event>
 7    1  0.6294601E-006  0.4352625E+02  0.7818608E-02  0.1498127E+00
          2   -1    0    0  502    0  0.00000000000E+00  0.00000000000E+00  0.22034432509E+04  0.22034432509E+04  0.00000000000E+00 0. -1.
          1   -1    0    0  501    0 -0.00000000000E+00 -0.00000000000E+00 -0.30313491574E+02  0.30313491574E+02  0.00000000000E+00 0. -1.
         25    2    1    2    0    0  0.30645754372E+02  0.21950819710E+02  0.31727756378E+03  0.34309084145E+03  0.12500108905E+03 0.  0.
          2    1    1    2  501    0 -0.32674363215E+02  0.21990044427E+02  0.54724040915E+01  0.39763340805E+02  0.00000000000E+00 0. -1.
          1    1    1    2  502    0  0.20286088431E+01 -0.43940864137E+02  0.18503797914E+04  0.18509025602E+04  0.00000000000E+00 0. -1.
         22    1    3    3    0    0  0.73313806766E+02 -0.48521388840E+01  0.13186115905E+03  0.15094973594E+03  0.00000000000E+00 0.  1.
         22    1    3    3    0    0 -0.42668052393E+02  0.26802958594E+02  0.18541640472E+03  0.19214110551E+03  0.00000000000E+00 0.  1.
</event>
<event>
 7    1  0.6294601E-006  0.9612311E+02  0.7818608E-02  0.1325195E+00
          2   -1    0    0  502    0  0.00000000000E+00  0.00000000000E+00  0.27418034920E+04  0.27418034920E+04  0.00000000000E+00 0. -1.
          1   -1    0    0  501    0 -0.00000000000E+00 -0.00000000000E+00 -0.91843676420E+03  0.91843676420E+03  0.00000000000E+00 0. -1.
         25    2    1    2    0    0 -0.16324367091E+02  0.26973039168E+02  0.12148345720E+03  0.17713592044E+03  0.12499949654E+03 0.  0.
          2    1    1    2  501    0  0.16740493961E+02 -0.95861010538E+02 -0.88749288342E+03  0.89281195983E+03  0.00000000000E+00 0. -1.
          1    1    1    2  502    0 -0.41612686916E+00  0.68887971370E+02  0.25893761540E+04  0.25902923759E+04  0.00000000000E+00 0. -1.
         22    1    3    3    0    0 -0.31445112285E+02  0.34528114357E+02 -0.72823564306E+01  0.47265404715E+02  0.00000000000E+00 0. -1.
         22    1    3    3    0    0  0.15120745194E+02 -0.75550751888E+01  0.12876581363E+03  0.12987051573E+03  0.00000000000E+00 0. -1.
</event>
<event>
 7    1  0.6294601E-006  0.1031081E+03  0.7818608E-02  0.1374267E+00
          2   -1    0    0  502    0  0.00000000000E+00  0.00000000000E+00  0.46925045288E+03  0.46925045288E+03  0.00000000000E+00 0. -1.
          1   -1    0    0  501    0 -0.00000000000E+00 -0.00000000000E+00 -0.12180629398E+04  0.12180629398E+04  0.00000000000E+00 0. -1.
         25    2    1    2    0    0 -0.12627440916E+03 -0.60583473299E+02 -0.74923078563E+01  0.18787614172E+03  0.12500290519E+03 0.  0.
          2    1    1    2  501    0  0.30705387665E+02  0.29007769589E+02 -0.11132897849E+04  0.11140908476E+04  0.00000000000E+00 0. -1.
          1    1    1    2  502    0  0.95569021491E+02  0.31575703710E+02  0.37196960582E+03  0.38534640337E+03  0.00000000000E+00 0. -1.
         22    1    3    3    0    0 -0.93159371207E+02 -0.90790519994E+02 -0.35729414590E+02  0.13490062280E+03  0.00000000000E+00 0. -1.
         22    1    3    3    0    0 -0.33115037949E+02  0.30207046695E+02  0.28237106734E+02  0.52975518922E+02  0.00000000000E+00 0. -1.
</event>
<event>
 7    1  0.6294601E-006  0.7636664E+02  0.7818608E-02  0.1495802E+00
          2   -1    0    0  502    0  0.00000000000E+00  0.00000000000E+00  0.14741626267E+04  0.14741626267E+04  0.00000000000E+00 0. -1.
          1   -1    0    0  501    0 -0.00000000000E+00 -0.00000000000E+00 -0.90629921283E+02  0.90629921283E+02  0.00000000000E+00 0. -1.
         25    2    1    2    0    0  0.57361977289E+01 -0.97533734174E+02  0.32473189384E+03  0.36141300463E+03  0.12499129479E+03 0.  0.
          2    1    1    2  501    0 -0.30747775756E+00  0.22809073131E+02 -0.69215673962E+02  0.72877691248E+02  0.00000000000E+00 0. -1.
          1    1    1    2  502    0 -0.54287199713E+01  0.74724661043E+02  0.11280164855E+04  0.11305018521E+04  0.00000000000E+00 0. -1.
         22    1    3    3    0    0  0.45670469799E+02  0.65678322087E+01  0.11442629362E+03  0.12337870522E+03  0.00000000000E+00 0. -1.
         22    1    3    3    0    0 -0.39934272070E+02 -0.10410156638E+03  0.21030560023E+03  0.23803429941E+03  0.00000000000E+00 0. -1.
</event>
<event>
 7    1  0.6294601E-006  0.1000481E+03  0.7818608E-02  0.1359998E+00
          2   -1    0    0  502    0  0.00000000000E+00  0.00000000000E+00  0.20645598539E+03  0.20645598539E+03  0.00000000000E+00 0. -1.
          1   -1    0    0  501    0 -0.00000000000E+00 -0.00000000000E+00 -0.51627087836E+03  0.51627087836E+03  0.00000000000E+00 0. -1.
         25    2    1    2    0    0 -0.38438404827E+01  0.62910739820E+02 -0.85916856263E+02  0.16425586142E+03  0.12500298207E+03 0.  0.
          2    1    1    2  501    0  0.33179568483E+02 -0.10217829186E+03 -0.37997939544E+03  0.39487419269E+03  0.00000000000E+00 0. -1.
          1    1    1    2  502    0 -0.29335728000E+02  0.39267552043E+02  0.15608135873E+03  0.16359680964E+03  0.00000000000E+00 0. -1.
         22    1    3    3    0    0 -0.47384495332E+02 -0.10916243706E+02 -0.54325947555E+02  0.72909281660E+02  0.00000000000E+00 0. -1.
         22    1    3    3    0    0  0.43540654849E+02  0.73826983527E+02 -0.31590908708E+02  0.91346579763E+02  0.00000000000E+00 0. -1.
</event>
<event>
 7    1  0.6294601E-006  0.2392128E+03  0.7818608E-02  0.1356805E+00
          2   -1    0    0  502    0  0.00000000000E+00  0.00000000000E+00  0.29761008187E+04  0.29761008187E+04  0.00000000000E+00 0. -1.
          1   -1    0    0  501    0 -0.00000000000E+00 -0.00000000000E+00 -0.31221162190E+03  0.31221162190E+03  0.00000000000E+00 0. -1.
         25    2    1    2    0    0  0.17615399002E+03  0.15978305940E+03 -0.20034633630E+03  0.33514699725E+03  0.12499600405E+03 0.  0.
          2    1    1    2  501    0 -0.13772930632E+02  0.15930773227E+02 -0.36736231001E+02  0.42344230090E+02  0.00000000000E+00 0. -1.
          1    1    1    2  502    0 -0.16238105939E+03 -0.17571383262E+03  0.29009717641E+04  0.29108212132E+04  0.00000000000E+00 0. -1.
         22    1    3    3    0    0  0.15966822756E+03  0.13024150051E+03 -0.21543087382E+03  0.29810610987E+03  0.00000000000E+00 0. -1.
         22    1    3    3    0    0  0.16485762462E+02  0.29541558891E+02  0.15084537526E+02  0.37040887382E+02  0.00000000000E+00 0. -1.
</event>
<event>
 7    1  0.6294601E-006  0.7624627E+02  0.7818608E-02  0.1426042E+00
          2   -1    0    0  502    0  0.00000000000E+00  0.00000000000E+00  0.45508401128E+03  0.45508401128E+03  0.00000000000E+00 0. -1.
          1   -1    0    0  501    0 -0.00000000000E+00 -0.00000000000E+00 -0.34387397114E+03  0.34387397114E+03  0.00000000000E+00 0. -1.
         25    2    1    2    0    0  0.87124321575E+02 -0.37335402393E+02  0.17810239739E+03  0.23733842229E+03  0.12499793223E+03 0.  0.
          2    1    1    2  501    0 -0.75980654030E+02  0.11009909782E+01 -0.30816057058E+03  0.31739125575E+03  0.00000000000E+00 0. -1.
          1    1    1    2  502    0 -0.11143667545E+02  0.36234411414E+02  0.24126821332E+03  0.24422830437E+03  0.00000000000E+00 0. -1.
         22    1    3    3    0    0  0.39865171925E+02 -0.78832914809E+01 -0.94267853290E+01  0.41716213860E+02  0.00000000000E+00 0.  1.
         22    1    3    3    0    0  0.47259149649E+02 -0.29452110912E+02  0.18752918272E+03  0.19562220843E+03  0.00000000000E+00 0.  1.
</event>
<event>
 7    1  0.6294601E-006  0.4541584E+02  0.7818608E-02  0.1533863E+00
          2   -1    0    0  502    0  0.00000000000E+00  0.00000000000E+00  0.31369846725E+03  0.31369846725E+03  0.00000000000E+00 0. -1.
          1   -1    0    0  501    0 -0.00000000000E+00 -0.00000000000E+00 -0.10186875322E+03  0.10186875322E+03  0.00000000000E+00 0. -1.
         25    2    1    2    0    0 -0.28443207283E+02  0.15401836450E+02  0.81921425105E+02  0.15291065921E+03  0.12499726878E+03 0.  0.
          2    1    1    2  501    0 -0.17828677323E+02 -0.23733317158E+02 -0.60039443142E+02  0.66976613912E+02  0.00000000000E+00 0. -1.
          1    1    1    2  502    0  0.46271884606E+02  0.83314807076E+01  0.18994773207E+03  0.19567994734E+03  0.00000000000E+00 0. -1.
         22    1    3    3    0    0 -0.52119583973E+02 -0.12768408784E+02 -0.93781520561E+01  0.54474150130E+02  0.00000000000E+00 0. -1.
         22    1    3    3    0    0  0.23676376691E+02  0.28170245234E+02  0.91299577161E+02  0.98436509078E+02  0.00000000000E+00 0. -1.
</event>
<event>
 7    1  0.6294601E-006  0.6891867E+02  0.7818608E-02  0.1381870E+00
          2   -1    0    0  502    0  0.00000000000E+00  0.00000000000E+00  0.38294442148E+03  0.38294442148E+03  0.00000000000E+00 0. -1.
          1   -1    0    0  501    0 -0.00000000000E+00 -0.00000000000E+00 -0.88698242509E+03  0.88698242509E+03  0.00000000000E+00 0. -1.
         25    2    1    2    0    0  0.10552469837E+03  0.57184472334E+02  0.12952140440E+03  0.21634484565E+03  0.12499508870E+03 0.  0.
          2    1    1    2  501    0 -0.44661336345E+02 -0.39140868149E+02 -0.83769814470E+03  0.83980046687E+03  0.00000000000E+00 0. -1.
          1    1    1    2  502    0 -0.60863362020E+02 -0.18043604185E+02  0.20413873668E+03  0.21378153405E+03  0.00000000000E+00 0. -1.
         22    1    3    3    0    0  0.69276135031E+02  0.91752976943E+01 -0.38988510584E+01  0.69989785056E+02  0.00000000000E+00 0. -1.
         22    1    3    3    0    0  0.36248563334E+02  0.48009174640E+02  0.13342025546E+03  0.14635506059E+03  0.00000000000E+00 0. -1.
</event>
<event>
 7    1  0.6294601E-006  0.6930032E+02  0.7818608E-02  0.1525417E+00
          2   -1    0    0  502    0  0.00000000000E+00  0.00000000000E+00  0.12034761397E+03  0.12034761397E+03  0.00000000000E+00 0. -1.
          1   -1    0    0  501    0 -0.00000000000E+00 -0.00000000000E+00 -0.10911399738E+04  0.10911399738E+04  0.00000000000E+00 0. -1.
         25    2    1    2    0    0  0.21911973437E+02 -0.79741967792E+02 -0.44054878991E+03  0.46534642595E+03  0.12500057537E+03 0.  0.
          2    1    1    2  501    0  0.94536626518E+01  0.18267296832E+02 -0.62697590841E+03  0.62731320375E+03  0.00000000000E+00 0. -1.
          1    1    1    2  502    0 -0.31365636089E+02  0.61474670960E+02  0.96732338521E+02  0.11882795804E+03  0.00000000000E+00 0. -1.
         22    1    3    3    0    0  0.26256328414E+02 -0.27913160921E+02 -0.39303967255E+03  0.39490343570E+03  0.00000000000E+00 0.  1.
         22    1    3    3    0    0 -0.43443549766E+01 -0.51828806871E+02 -0.47509117361E+02  0.70442990242E+02  0.00000000000E+00 0.  1.
</event>
<event>
 7    1  0.7207603E-006  0.1439946E+03  0.7818608E-02  0.1300885E+00
          2   -1    0    0  502    0  0.00000000000E+00  0.00000000000E+00  0.20853070967E+04  0.20853070967E+04  0.00000000000E+00 0. -1.
          1   -1    0    0  501    0 -0.00000000000E+00 -0.00000000000E+00 -0.13718274159E+04  0.13718274159E+04  0.00000000000E+00 0. -1.
         25    2    1    2    0    0  0.89073082460E+02  0.44991094007E+02 -0.17557657513E+03  0.23750811036E+03  0.12499902476E+03 0.  0.
          2    1    1    2  501    0 -0.14607997187E+03 -0.39423256146E+02 -0.11599716008E+04  0.11697981304E+04  0.00000000000E+00 0. -1.
          1    1    1    2  502    0  0.57006889408E+02 -0.55678378604E+01  0.20490278567E+04  0.20498282718E+04  0.00000000000E+00 0. -1.
         22    1    3    3    0    0 -0.71955620899E+01  0.61363744563E+02 -0.77414292859E+02  0.99046746537E+02  0.00000000000E+00 0.  1.
         22    1    3    3    0    0  0.96268644550E+02 -0.16372650557E+02 -0.98162282273E+02  0.13846136382E+03  0.00000000000E+00 0.  1.
</event>
<event>
 7    1  0.6294601E-006  0.5847260E+02  0.7818608E-02  0.1453820E+00
          2   -1    0    0  502    0  0.00000000000E+00  0.00000000000E+00  0.19239981215E+03  0.19239981215E+03  0.00000000000E+00 0. -1.
          1   -1    0    0  501    0 -0.00000000000E+00 -0.00000000000E+00 -0.12873377214E+04  0.12873377214E+04  0.00000000000E+00 0. -1.
         25    2    1    2    0    0 -0.83653283821E+02  0.19326605403E+02 -0.67309410572E+03  0.68996510873E+03  0.12499914616E+03 0.  0.
          2    1    1    2  501    0  0.54497047578E+02  0.82981233409E+01 -0.60234211501E+03  0.60485933122E+03  0.00000000000E+00 0. -1.
          1    1    1    2  502    0  0.29156236243E+02 -0.27624728744E+02  0.18049831146E+03  0.18491309362E+03  0.00000000000E+00 0. -1.
         22    1    3    3    0    0 -0.32889785598E+02  0.39448761206E+02 -0.57823492925E+03  0.58051147807E+03  0.00000000000E+00 0.  1.
         22    1    3    3    0    0 -0.50763498223E+02 -0.20122155803E+02 -0.94859176467E+02  0.10945363067E+03  0.00000000000E+00 0.  1.
</event>
<event>
 7    1  0.6294601E-006  0.3993018E+02  0.7818608E-02  0.1527568E+00
          2   -1    0    0  502    0  0.00000000000E+00  0.00000000000E+00  0.32041640268E+03  0.32041640268E+03  0.00000000000E+00 0. -1.
          1   -1    0    0  501    0 -0.00000000000E+00 -0.00000000000E+00 -0.17542662335E+04  0.17542662335E+04  0.00000000000E+00 0. -1.
         25    2    1    2    0    0 -0.64477678226E+02 -0.36512527898E+02  0.19157191053E+02  0.14656604996E+03  0.12499629334E+03 0.  0.
          2    1    1    2  501    0  0.31766549563E+02  0.15145319036E+02 -0.16887706896E+04  0.16891373350E+04  0.00000000000E+00 0. -1.
          1    1    1    2  502    0  0.32711128664E+02  0.21367208862E+02  0.23576366767E+03  0.23897925129E+03  0.00000000000E+00 0. -1.
         22    1    3    3    0    0 -0.89120603034E+02  0.98991483733E+00  0.39265701971E+02  0.97392284951E+02  0.00000000000E+00 0.  1.
         22    1    3    3    0    0  0.24642924808E+02 -0.37502442735E+02 -0.20108510918E+02  0.49173765013E+02  0.00000000000E+00 0.  1.
</event>
<event>
 7    1  0.6294601E-006  0.4945058E+02  0.7818608E-02  0.1462869E+00
          2   -1    0    0  502    0  0.00000000000E+00  0.00000000000E+00  0.14589049846E+04  0.14589049846E+04  0.00000000000E+00 0. -1.
          1   -1    0    0  501    0 -0.00000000000E+00 -0.00000000000E+00 -0.14811584665E+03  0.14811584665E+03  0.00000000000E+00 0. -1.
         25    2    1    2    0    0 -0.24501908647E+02 -0.38979281650E+02 -0.30637041347E+02  0.13669671322E+03  0.12501054026E+03 0.  0.
          2    1    1    2  501    0  0.43970155825E+02 -0.66100392542E+01 -0.56287804208E+02  0.71731332936E+02  0.00000000000E+00 0. -1.
          1    1    1    2  502    0 -0.19468247178E+02  0.45589320904E+02  0.13977139835E+04  0.13985927851E+04  0.00000000000E+00 0. -1.
         22    1    3    3    0    0 -0.69682551443E+02  0.51107408179E+01 -0.20021789583E+02  0.72681838896E+02  0.00000000000E+00 0.  1.
         22    1    3    3    0    0  0.45180642795E+02 -0.44090022468E+02 -0.10615251764E+02  0.64014874323E+02  0.00000000000E+00 0.  1.
</event>
<event>
 7    1  0.6294601E-006  0.1128199E+03  0.7818608E-02  0.1361795E+00
          2   -1    0    0  502    0  0.00000000000E+00  0.00000000000E+00  0.47579725079E+03  0.47579725079E+03  0.00000000000E+00 0. -1.
          1   -1    0    0  501    0 -0.00000000000E+00 -0.00000000000E+00 -0.40027232824E+03  0.40027232824E+03  0.00000000000E+00 0. -1.
         25    2    1    2    0    0  0.12165734975E+02  0.85381546595E+02 -0.82525326690E+01  0.15208790700E+03  0.12499845421E+03 0.  0.
          2    1    1    2  501    0  0.38358257981E+02  0.19022621026E+02 -0.31027425928E+03  0.31321451441E+03  0.00000000000E+00 0. -1.
          1    1    1    2  502    0 -0.50523992957E+02 -0.10440416762E+03  0.39405171450E+03  0.41076715762E+03  0.00000000000E+00 0. -1.
         22    1    3    3    0    0  0.19483542807E+02  0.92617672017E+02 -0.51419754781E+02  0.10771087592E+03  0.00000000000E+00 0. -1.
         22    1    3    3    0    0 -0.73178078315E+01 -0.72361254218E+01  0.43167222112E+02  0.44377031080E+02  0.00000000000E+00 0. -1.
</event>
<event>
 7    1  0.6294601E-006  0.6505465E+02  0.7818608E-02  0.1381393E+00
          2   -1    0    0  502    0  0.00000000000E+00  0.00000000000E+00  0.94555123857E+03  0.94555123857E+03  0.00000000000E+00 0. -1.
          1   -1    0    0  501    0 -0.00000000000E+00 -0.00000000000E+00 -0.11903132233E+03  0.11903132233E+03  0.00000000000E+00 0. -1.
         25    2    1    2    0    0  0.18070584333E+02  0.16118584980E+02  0.53040692034E+03  0.54547499134E+03  0.12500044091E+03 0.  0.
          2    1    1    2  501    0 -0.56905260838E+02  0.33688286647E+02 -0.98957998764E+02  0.11902014488E+03  0.00000000000E+00 0. -1.
          1    1    1    2  502    0  0.38834676505E+02 -0.49806871627E+02  0.39507099467E+03  0.40008742468E+03  0.00000000000E+00 0. -1.
         22    1    3    3    0    0  0.67540199151E+02 -0.14552792385E+02  0.29353456928E+03  0.30155597429E+03  0.00000000000E+00 0. -1.
         22    1    3    3    0    0 -0.49469614818E+02  0.30671377365E+02  0.23687235107E+03  0.24391901705E+03  0.00000000000E+00 0. -1.
</event>
<event>
 7    1  0.6294601E-006  0.1454368E+03  0.7818608E-02  0.1317689E+00
          2   -1    0    0  502    0  0.00000000000E+00  0.00000000000E+00  0.21629324214E+04  0.21629324214E+04  0.00000000000E+00 0. -1.
          1   -1    0    0  501    0 -0.00000000000E+00 -0.00000000000E+00 -0.52165736045E+03  0.52165736045E+03  0.00000000000E+00 0. -1.
         25    2    1    2    0    0 -0.16000260560E+03  0.72750443499E+02 -0.76957247295E+02  0.22900059366E+03  0.12500157261E+03 0.  0.
          2    1    1    2  501    0  0.11268592935E+03 -0.84195155834E+02 -0.35496481980E+03  0.38182059430E+03  0.00000000000E+00 0. -1.
          1    1    1    2  502    0  0.47316676252E+02  0.11444712335E+02  0.20731971280E+04  0.20737685939E+04  0.00000000000E+00 0. -1.
         22    1    3    3    0    0 -0.34373300908E+02  0.26058370107E+02 -0.84384036297E+02  0.94769341296E+02  0.00000000000E+00 0.  1.
         22    1    3    3    0    0 -0.12562930469E+03  0.46692073392E+02  0.74267890023E+01  0.13423125236E+03  0.00000000000E+00 0.  1.
</event>
<event>
 7    1  0.6294601E-006  0.1288628E+03  0.7818608E-02  0.1400528E+00
          2   -1    0    0  502    0  0.00000000000E+00  0.00000000000E+00  0.20558086749E+03  0.20558086749E+03  0.00000000000E+00 0. -1.
          1   -1    0    0  501    0 -0.00000000000E+00 -0.00000000000E+00 -0.73680717688E+03  0.73680717688E+03  0.00000000000E+00 0. -1.
         25    2    1    2    0    0 -0.47448107381E+02  0.13347915391E+03 -0.12650362719E+03  0.22736898199E+03  0.12500191541E+03 0.  0.
          2    1    1    2  501    0  0.62692640426E+02 -0.11077656718E+03 -0.55135582074E+03  0.56585780551E+03  0.00000000000E+00 0. -1.
          1    1    1    2  502    0 -0.15244533045E+02 -0.22702586733E+02  0.14663313854E+03  0.14916125686E+03  0.00000000000E+00 0. -1.
         22    1    3    3    0    0  0.71153171144E+01  0.65291908773E+02 -0.12362756417E+03  0.13999084153E+03  0.00000000000E+00 0. -1.
         22    1    3    3    0    0 -0.54563424496E+02  0.68187245135E+02 -0.28760630166E+01  0.87378140460E+02  0.00000000000E+00 0. -1.
</event>
<event>
 7    1  0.1053869E-005  0.9147359E+02  0.7818608E-02  0.1337727E+00
          2   -1    0    0  502    0  0.00000000000E+00  0.00000000000E+00  0.26680846998E+04  0.26680846998E+04  0.00000000000E+00 0. -1.
          1   -1    0    0  501    0 -0.00000000000E+00 -0.00000000000E+00 -0.14111553293E+04  0.14111553293E+04  0.00000000000E+00 0. -1.
         25    2    1    2    0    0 -0.58659407029E+02  0.23176350114E+02 -0.11269032481E+03  0.17972509250E+03  0.12499572124E+03 0.  0.
          2    1    1    2  501    0  0.86986625873E+02  0.35160227777E+02 -0.12628079513E+04  0.12662886071E+04  0.00000000000E+00 0. -1.
          1    1    1    2  502    0 -0.28327218844E+02 -0.58336577891E+02  0.26324276466E+04  0.26332263294E+04  0.00000000000E+00 0. -1.
         22    1    3    3    0    0 -0.75459563086E+02  0.59455384983E+02 -0.97720471010E+02  0.13703422536E+03  0.00000000000E+00 0. -1.
         22    1    3    3    0    0  0.16800156056E+02 -0.36279034869E+02 -0.14969853805E+02  0.42690867143E+02  0.00000000000E+00 0. -1.
</event>
<event>
 7    1  0.6294601E-006  0.8357104E+02  0.7818608E-02  0.1452255E+00
          2   -1    0    0  502    0  0.00000000000E+00  0.00000000000E+00  0.42009958250E+03  0.42009958250E+03  0.00000000000E+00 0. -1.
          1   -1    0    0  501    0 -0.00000000000E+00 -0.00000000000E+00 -0.42846614204E+03  0.42846614204E+03  0.00000000000E+00 0. -1.
         25    2    1    2    0    0  0.10473481907E+03 -0.20859541051E+02 -0.13469846966E+03  0.21253975599E+03  0.12499986948E+03 0.  0.
          2    1    1    2  501    0 -0.76415634982E+02  0.23328952258E+02 -0.24803272801E+03  0.26058362083E+03  0.00000000000E+00 0. -1.
          1    1    1    2  502    0 -0.28319184087E+02 -0.24694112075E+01  0.37436463813E+03  0.37544234772E+03  0.00000000000E+00 0. -1.
         22    1    3    3    0    0  0.77355504295E+02 -0.53380557967E+02 -0.28599662930E+02  0.98241023678E+02  0.00000000000E+00 0. -1.
         22    1    3    3    0    0  0.27379314775E+02  0.32521016916E+02 -0.10609880673E+03  0.11429873231E+03  0.00000000000E+00 0. -1.
</event>
<event>
 7    1  0.6294601E-006  0.3549673E+02  0.7818608E-02  0.1545555E+00
          2   -1    0    0  502    0  0.00000000000E+00  0.00000000000E+00  0.20988091369E+04  0.20988091369E+04  0.00000000000E+00 0. -1.
          1   -1    0    0  501    0 -0.00000000000E+00 -0.00000000000E+00 -0.11237845655E+04  0.11237845655E+04  0.00000000000E+00 0. -1.
         25    2    1    2    0    0  0.62773884522E+02 -0.31886706967E+02  0.19654012993E+03  0.24333092747E+03  0.12499837971E+03 0.  0.
          2    1    1    2  501    0 -0.30189648123E+02  0.18585163452E+02 -0.10999387436E+04  0.11005099104E+04  0.00000000000E+00 0. -1.
          1    1    1    2  502    0 -0.32584236400E+02  0.13301543515E+02  0.18784231851E+04  0.18787528645E+04  0.00000000000E+00 0. -1.
         22    1    3    3    0    0  0.62113689492E+02  0.38384947982E+02  0.10610140772E+03  0.12879838265E+03  0.00000000000E+00 0. -1.
         22    1    3    3    0    0  0.66019503017E+00 -0.70271654949E+02  0.90438722214E+02  0.11453254482E+03  0.00000000000E+00 0. -1.
</event>
<event>
 7    1  0.6294601E-006  0.8057182E+02  0.7818608E-02  0.1435689E+00
          2   -1    0    0  502    0  0.00000000000E+00  0.00000000000E+00  0.75011095419E+02  0.75011095419E+02  0.00000000000E+00 0. -1.
          1   -1    0    0  501    0 -0.00000000000E+00 -0.00000000000E+00 -0.91272383767E+03  0.91272383767E+03  0.00000000000E+00 0. -1.
         25    2    1    2    0    0  0.11154686612E+02  0.11128673432E+03 -0.61542167335E+03  0.63786966833E+03  0.12499885390E+03 0.  0.
          2    1    1    2  501    0 -0.94800916563E+01 -0.31971342225E+02 -0.25992708421E+03  0.26205748982E+03  0.00000000000E+00 0. -1.
          1    1    1    2  502    0 -0.16745949558E+01 -0.79315392093E+02  0.37636015317E+02  0.87807774940E+02  0.00000000000E+00 0. -1.
         22    1    3    3    0    0  0.36932207008E+02  0.13035974723E+03 -0.50870434939E+03  0.52643875874E+03  0.00000000000E+00 0.  1.
         22    1    3    3    0    0 -0.25777520396E+02 -0.19073012910E+02 -0.10671732396E+03  0.11143090959E+03  0.00000000000E+00 0.  1.
</event>
<event>
 7    1  0.6294601E-006  0.9391969E+02  0.7818608E-02  0.1338836E+00
          2   -1    0    0  502    0  0.00000000000E+00  0.00000000000E+00  0.17078139691E+04  0.17078139691E+04  0.00000000000E+00 0. -1.
          1   -1    0    0  501    0 -0.00000000000E+00 -0.00000000000E+00 -0.82110838007E+03  0.82110838007E+03  0.00000000000E+00 0. -1.
         25    2    1    2    0    0 -0.73855948566E+02 -0.17301497132E+02  0.61723914616E+02  0.15870972184E+03  0.12499956492E+03 0.  0.
          2    1    1    2  501    0  0.83825014261E+02 -0.44454958515E+02 -0.76908656150E+03  0.77491742491E+03  0.00000000000E+00 0. -1.
          1    1    1    2  502    0 -0.99690656954E+01  0.61756455647E+02  0.15940682360E+04  0.15952952024E+04  0.00000000000E+00 0. -1.
         22    1    3    3    0    0 -0.59312055773E+02 -0.57993320880E+02 -0.49790933091E+00  0.82954162888E+02  0.00000000000E+00 0. -1.
         22    1    3    3    0    0 -0.14543892792E+02  0.40691823748E+02  0.62221823946E+02  0.75755558956E+02  0.00000000000E+00 0. -1.
</event>
<event>
 7    1  0.6294601E-006  0.9842583E+02  0.7818608E-02  0.1403440E+00
          2   -1    0    0  502    0  0.00000000000E+00  0.00000000000E+00  0.15106851954E+03  0.15106851954E+03  0.00000000000E+00 0. -1.
          1   -1    0    0  501    0 -0.00000000000E+00 -0.00000000000E+00 -0.86104052179E+03  0.86104052179E+03  0.00000000000E+00 0. -1.
         25    2    1    2    0    0  0.63775380278E+02 -0.81469253465E+02  0.26627784729E+02  0.16443443406E+03  0.12500042318E+03 0.  0.
          2    1    1    2  501    0 -0.83320176503E+02  0.52448508216E+02 -0.78322086118E+03  0.78938458005E+03  0.00000000000E+00 0. -1.
          1    1    1    2  502    0  0.19544796224E+02  0.29020745250E+02  0.46621074201E+02  0.58290027225E+02  0.00000000000E+00 0. -1.
         22    1    3    3    0    0  0.88369372096E+02 -0.61793714461E+02 -0.18495651813E+02  0.10940611595E+03  0.00000000000E+00 0. -1.
         22    1    3    3    0    0 -0.24593991818E+02 -0.19675539005E+02  0.45123436542E+02  0.55028318110E+02  0.00000000000E+00 0. -1.
</event>
<event>
 7    1  0.6294601E-006  0.1375082E+03  0.7818608E-02  0.1334896E+00
          2   -1    0    0  502    0  0.00000000000E+00  0.00000000000E+00  0.10896459393E+04  0.10896459393E+04  0.00000000000E+00 0. -1.
          1   -1    0    0  501    0 -0.00000000000E+00 -0.00000000000E+00 -0.14359551412E+03  0.14359551412E+03  0.00000000000E+00 0. -1.
         25    2    1    2    0    0 -0.70734223166E+02  0.65677278723E+02  0.23724351970E+02  0.15970238361E+03  0.12500068475E+03 0.  0.
          2    1    1    2  501    0 -0.35821009904E+02  0.25923165398E+02 -0.63704715182E+02  0.77546411853E+02  0.00000000000E+00 0. -1.
          1    1    1    2  502    0  0.10655523307E+03 -0.91600444121E+02  0.98603078834E+03  0.99599265791E+03  0.00000000000E+00 0. -1.
         22    1    3    3    0    0 -0.78080760085E+02  0.76722083756E+02  0.57332288898E+02  0.12357133398E+03  0.00000000000E+00 0.  1.
         22    1    3    3    0    0  0.73465369189E+01 -0.11044805033E+02 -0.33607936928E+02  0.36131049632E+02  0.00000000000E+00 0.  1.
</event>
<event>
 7    1  0.6294601E-006  0.3154373E+03  0.7818608E-02  0.1116408E+00
          2   -1    0    0  502    0  0.00000000000E+00  0.00000000000E+00  0.84305469590E+03  0.84305469590E+03  0.00000000000E+00 0. -1.
          1   -1    0    0  501    0 -0.00000000000E+00 -0.00000000000E+00 -0.22321883196E+04  0.22321883196E+04  0.00000000000E+00 0. -1.
         25    2    1    2    0    0  0.23879850437E+03  0.17953877411E+03 -0.33591591116E+03  0.46660855270E+03  0.12500057993E+03 0.  0.
          2    1    1    2  501    0  0.82262980591E+02 -0.17185102813E+03 -0.17925059668E+04  0.18026030109E+04  0.00000000000E+00 0. -1.
          1    1    1    2  502    0 -0.32106148496E+03 -0.76877459784E+01  0.73928825427E+03  0.80603145191E+03  0.00000000000E+00 0. -1.
         22    1    3    3    0    0  0.31444310632E+02 -0.17744810987E+02 -0.53311668380E+02  0.64387552940E+02  0.00000000000E+00 0.  1.
         22    1    3    3    0    0  0.20735419373E+03  0.19728358509E+03 -0.28260424278E+03  0.40222099976E+03  0.00000000000E+00 0.  1.
</event>
<event>
 7    1  0.6294601E-006  0.4669641E+02  0.7818608E-02  0.1469968E+00
          2   -1    0    0  502    0  0.00000000000E+00  0.00000000000E+00  0.51566205560E+03  0.51566205560E+03  0.00000000000E+00 0. -1.
          1   -1    0    0  501    0 -0.00000000000E+00 -0.00000000000E+00 -0.31825089656E+04  0.31825089656E+04  0.00000000000E+00 0. -1.
         25    2    1    2    0    0  0.68643597344E+02 -0.59848075376E+02 -0.13684729868E+03  0.20650897781E+03  0.12500015671E+03 0.  0.
          2    1    1    2  501    0 -0.34935281827E+02  0.27951467291E+02 -0.30095444145E+04  0.30098769644E+04  0.00000000000E+00 0. -1.
          1    1    1    2  502    0 -0.33708315518E+02  0.31896608085E+02  0.47954480311E+03  0.48178507898E+03  0.00000000000E+00 0. -1.
         22    1    3    3    0    0  0.51831039972E+02 -0.19865639276E+02  0.72926063315E+01  0.55984662503E+02  0.00000000000E+00 0. -1.
         22    1    3    3    0    0  0.16812557372E+02 -0.39982436099E+02 -0.14413990502E+03  0.15052431531E+03  0.00000000000E+00 0. -1.
</event>
<event>
 7    1  0.6294601E-006  0.2029546E+03  0.7818608E-02  0.1297676E+00
          2   -1    0    0  502    0  0.00000000000E+00  0.00000000000E+00  0.32459541523E+03  0.32459541523E+03  0.00000000000E+00 0. -1.
          1   -1    0    0  501    0 -0.00000000000E+00 -0.00000000000E+00 -0.15150222189E+04  0.15150222189E+04  0.00000000000E+00 0. -1.
         25    2    1    2    0    0 -0.10994779003E+03  0.12227979455E+03 -0.25899987555E+02  0.20817290683E+03  0.12499714034E+03 0.  0.
          2    1    1    2  501    0  0.14054790132E+03 -0.15084352722E+03 -0.13884340035E+04  0.14036582435E+04  0.00000000000E+00 0. -1.
          1    1    1    2  502    0 -0.30600111288E+02  0.28563732669E+02  0.22390718742E+03  0.22778648383E+03  0.00000000000E+00 0. -1.
         22    1    3    3    0    0 -0.13129644707E+01  0.49110459900E+02 -0.55263837095E+02  0.73943578745E+02  0.00000000000E+00 0.  1.
         22    1    3    3    0    0 -0.10863482556E+03  0.73169334651E+02  0.29363849540E+02  0.13422932809E+03  0.00000000000E+00 0.  1.
</event>
<event>
 7    1  0.6294601E-006  0.7519164E+02  0.7818608E-02  0.1350887E+00
          2   -1    0    0  502    0  0.00000000000E+00  0.00000000000E+00  0.30592590227E+04  0.30592590227E+04  0.00000000000E+00 0. -1.
          1   -1    0    0  501    0 -0.00000000000E+00 -0.00000000000E+00 -0.34226341927E+03  0.34226341927E+03  0.00000000000E+00 0. -1.
         25    2    1    2    0    0 -0.41577954232E+02 -0.74191077491E+01  0.15779418327E+04  0.15834507417E+04  0.12502821593E+03 0.  0.
          2    1    1    2  501    0 -0.26064646858E+02 -0.65446012312E+02 -0.33416111033E+03  0.34150577448E+03  0.00000000000E+00 0. -1.
          1    1    1    2  502    0  0.67642601090E+02  0.72865120061E+02  0.14732148811E+04  0.14765659257E+04  0.00000000000E+00 0. -1.
         22    1    3    3    0    0  0.43230331244E+01 -0.60313271578E+02  0.61498703059E+03  0.61795260913E+03  0.00000000000E+00 0. -1.
         22    1    3    3    0    0 -0.45900987357E+02  0.52894163829E+02  0.96295480209E+03  0.96549813261E+03  0.00000000000E+00 0. -1.
</event>
<event>
 7    1  0.6294601E-006  0.1834973E+03  0.7818608E-02  0.1362894E+00
          2   -1    0    0  502    0  0.00000000000E+00  0.00000000000E+00  0.81989267014E+03  0.81989267014E+03  0.00000000000E+00 0. -1.
          1   -1    0    0  501    0 -0.00000000000E+00 -0.00000000000E+00 -0.88838851008E+02  0.88838851008E+02  0.00000000000E+00 0. -1.
         25    2    1    2    0    0 -0.92116062818E+02 -0.16390388761E+03  0.34784332858E+03  0.41469268368E+03  0.12500074904E+03 0.  0.
          2    1    1    2  501    0  0.66656017081E+02  0.16957322502E+03  0.96568375556E+02  0.20621240121E+03  0.00000000000E+00 0. -1.
          1    1    1    2  502    0  0.25460045737E+02 -0.56693374057E+01  0.28664211500E+03  0.28782643625E+03  0.00000000000E+00 0. -1.
         22    1    3    3    0    0  0.24482156193E+02 -0.84324613425E+01  0.77770000434E+02  0.81967404153E+02  0.00000000000E+00 0.  1.
         22    1    3    3    0    0 -0.11659821901E+03 -0.15547142627E+03  0.27007332814E+03  0.33272527953E+03  0.00000000000E+00 0.  1.
</event>
<event>
 7    1  0.6294601E-006  0.1179910E+03  0.7818608E-02  0.1407189E+00
          2   -1    0    0  502    0  0.00000000000E+00  0.00000000000E+00  0.89419631433E+03  0.89419631433E+03  0.00000000000E+00 0. -1.
          1   -1    0    0  501    0 -0.00000000000E+00 -0.00000000000E+00 -0.20177840147E+03  0.20177840147E+03  0.00000000000E+00 0. -1.
         25    2    1    2    0    0 -0.61687210161E+02 -0.10821275909E+03  0.19706975407E+03  0.26453202381E+03  0.12500156209E+03 0.  0.
          2    1    1    2  501    0  0.79831116405E+02  0.86442593931E+02 -0.14709915367E+03  0.18837061927E+03  0.00000000000E+00 0. -1.
          1    1    1    2  502    0 -0.18143906243E+02  0.21770165157E+02  0.64244731247E+03  0.64307207273E+03  0.00000000000E+00 0. -1.
         22    1    3    3    0    0  0.28243228640E+02 -0.72050141972E+02  0.67297905871E+02  0.10255686743E+03  0.00000000000E+00 0. -1.
         22    1    3    3    0    0 -0.89930438801E+02 -0.36162617116E+02  0.12977184820E+03  0.16197515638E+03  0.00000000000E+00 0. -1.
</event>
<event>
 7    1  0.6575416E-006  0.6923471E+02  0.7818608E-02  0.1505493E+00
          2   -1    0    0  502    0  0.00000000000E+00  0.00000000000E+00  0.15208293752E+04  0.15208293752E+04  0.00000000000E+00 0. -1.
          1   -1    0    0  501    0 -0.00000000000E+00 -0.00000000000E+00 -0.86084426865E+03  0.86084426865E+03  0.00000000000E+00 0. -1.
         25    2    1    2    0    0  0.51468243135E+00 -0.77120868697E+02 -0.12351350489E+03  0.19190694714E+03  0.12499918873E+03 0.  0.
          2    1    1    2  501    0 -0.20835279500E+02  0.10958660578E+02 -0.70213108994E+03  0.70252563553E+03  0.00000000000E+00 0. -1.
          1    1    1    2  502    0  0.20320597069E+02  0.66162208119E+02  0.14856297014E+04  0.14872410612E+04  0.00000000000E+00 0. -1.
         22    1    3    3    0    0  0.41799213969E+02 -0.42994941576E+01 -0.94312863065E+02  0.10325006575E+03  0.00000000000E+00 0.  1.
         22    1    3    3    0    0 -0.41284531537E+02 -0.72821374540E+02 -0.29200641824E+02  0.88656881386E+02  0.00000000000E+00 0.  1.
</event>
<event>
 7    1  0.6294601E-006  0.9556289E+02  0.7818608E-02  0.1328034E+00
          2   -1    0    0  502    0  0.00000000000E+00  0.00000000000E+00  0.16178180270E+04  0.16178180270E+04  0.00000000000E+00 0. -1.
          1   -1    0    0  501    0 -0.00000000000E+00 -0.00000000000E+00 -0.34088776134E+03  0.34088776134E+03  0.00000000000E+00 0. -1.
         25    2    1    2    0    0  0.12565263123E+03 -0.17921541323E+02 -0.15696282973E+03  0.23742751221E+03  0.12499891303E+03 0.  0.
          2    1    1    2  501    0 -0.69469761610E+02  0.55470194715E+02 -0.12914251974E+03  0.15678259050E+03  0.00000000000E+00 0. -1.
          1    1    1    2  502    0 -0.56182869617E+02 -0.37548653392E+02  0.15630356151E+04  0.15644956856E+04  0.00000000000E+00 0. -1.
         22    1    3    3    0    0  0.14964131699E+03 -0.56007575092E+01 -0.14300755371E+03  0.20706291955E+03  0.00000000000E+00 0. -1.
         22    1    3    3    0    0 -0.23988685762E+02 -0.12320783814E+02 -0.13955276025E+02  0.30364592658E+02  0.00000000000E+00 0. -1.
</event>
<event>
 7    1  0.6294601E-006  0.1132652E+03  0.7818608E-02  0.1403199E+00
          2   -1    0    0  502    0  0.00000000000E+00  0.00000000000E+00  0.88297854559E+03  0.88297854559E+03  0.00000000000E+00 0. -1.
          1   -1    0    0  501    0 -0.00000000000E+00 -0.00000000000E+00 -0.11424131188E+03  0.11424131188E+03  0.00000000000E+00 0. -1.
         25    2    1    2    0    0 -0.30288294111E+02  0.98316998610E+02  0.11693518618E+03  0.19970003418E+03  0.12499061129E+03 0.  0.
          2    1    1    2  501    0  0.60695910638E+02 -0.10014432273E+03 -0.25241318824E+02  0.11979149852E+03  0.00000000000E+00 0. -1.
          1    1    1    2  502    0 -0.30407616528E+02  0.18273241181E+01  0.67704336635E+03  0.67772832476E+03  0.00000000000E+00 0. -1.
         22    1    3    3    0    0 -0.25541533264E+02 -0.19806771358E+02 -0.15050939774E+01  0.32356505080E+02  0.00000000000E+00 0.  1.
         22    1    3    3    0    0 -0.47467608468E+01  0.11812376997E+03  0.11844028015E+03  0.16734352910E+03  0.00000000000E+00 0.  1.
</event>
<event>
 7    1  0.6294601E-006  0.7973915E+02  0.7818608E-02  0.1408086E+00
          2   -1    0    0  502    0  0.00000000000E+00  0.00000000000E+00  0.27619124228E+04  0.27619124228E+04  0.00000000000E+00 0. -1.
          1   -1    0    0  501    0 -0.00000000000E+00 -0.00000000000E+00 -0.56604586198E+03  0.56604586198E+03  0.00000000000E+00 0. -1.
         25    2    1    2    0    0 -0.33083422037E+02  0.62452800574E+02 -0.30518977312E+03  0.33728366839E+03  0.12499844092E+03 0.  0.
          2    1    1    2  501    0  0.72315009231E+02 -0.48493852074E+02 -0.23690395182E+03  0.25239769539E+03  0.00000000000E+00 0. -1.
          1    1    1    2  502    0 -0.39231587194E+02 -0.13958948501E+02  0.27379602858E+04  0.27382769210E+04  0.00000000000E+00 0. -1.
         22    1    3    3    0    0  0.43380421025E+02  0.28209936940E+02 -0.66138644803E+02  0.83976078777E+02  0.00000000000E+00 0. -1.
         22    1    3    3    0    0 -0.76463843061E+02  0.34242863635E+02 -0.23905112831E+03  0.25330758961E+03  0.00000000000E+00 0. -1.
</event>
<event>
 7    1  0.6294601E-006  0.1015662E+03  0.7818608E-02  0.1336125E+00
          2   -1    0    0  502    0  0.00000000000E+00  0.00000000000E+00  0.26931437570E+03  0.26931437570E+03  0.00000000000E+00 0. -1.
          1   -1    0    0  501    0 -0.00000000000E+00 -0.00000000000E+00 -0.17272718657E+03  0.17272718657E+03  0.00000000000E+00 0. -1.
         25    2    1    2    0    0 -0.80868232204E+02  0.24177868850E+02  0.21469119026E+02  0.15235005669E+03  0.12500150551E+03 0.  0.
          2    1    1    2  501    0  0.10728052912E+03  0.28833049632E+02 -0.71128086709E+02  0.13190777611E+03  0.00000000000E+00 0. -1.
          1    1    1    2  502    0 -0.26412296911E+02 -0.53010918481E+02  0.14624615681E+03  0.15778372948E+03  0.00000000000E+00 0. -1.
         22    1    3    3    0    0 -0.23255669092E+02 -0.51023325231E+02  0.66952289987E+01  0.56471514535E+02  0.00000000000E+00 0. -1.
         22    1    3    3    0    0 -0.57612563112E+02  0.75201194081E+02  0.14773890027E+02  0.95878542156E+02  0.00000000000E+00 0. -1.
</event>
<event>
 7    1  0.6294601E-006  0.4924625E+02  0.7818608E-02  0.1481051E+00
          2   -1    0    0  502    0  0.00000000000E+00  0.00000000000E+00  0.23506170717E+04  0.23506170717E+04  0.00000000000E+00 0. -1.
          1   -1    0    0  501    0 -0.00000000000E+00 -0.00000000000E+00 -0.28478406778E+03  0.28478406778E+03  0.00000000000E+00 0. -1.
         25    2    1    2    0    0 -0.18498813814E+02 -0.79852382328E+02  0.17363673765E+03  0.22911410352E+03  0.12499978679E+03 0.  0.
          2    1    1    2  501    0  0.26087363116E+02  0.41383131812E+02 -0.25453720900E+03  0.25919549548E+03  0.00000000000E+00 0. -1.
          1    1    1    2  502    0 -0.75885493021E+01  0.38469250516E+02  0.21467334752E+04  0.21470915405E+04  0.00000000000E+00 0. -1.
         22    1    3    3    0    0  0.37211531853E+02 -0.12816561784E+02  0.55161827950E+01  0.39741547925E+02  0.00000000000E+00 0.  1.
         22    1    3    3    0    0 -0.55710345667E+02 -0.67035820544E+02  0.16812055485E+03  0.18937255560E+03  0.00000000000E+00 0.  1.
</event>
<event>
 7    1  0.6294601E-006  0.1568791E+03  0.7818608E-02  0.1292982E+00
          2   -1    0    0  502    0  0.00000000000E+00  0.00000000000E+00  0.47578371275E+03  0.47578371275E+03  0.00000000000E+00 0. -1.
          1   -1    0    0  501    0 -0.00000000000E+00 -0.00000000000E+00 -0.90865496223E+03  0.90865496223E+03  0.00000000000E+00 0. -1.
         25    2    1    2    0    0 -0.12285164061E+03  0.60443193866E+02  0.84785067018E+02  0.20386014722E+03  0.12499818698E+03 0.  0.
          2    1    1    2  501    0  0.10862296770E+03 -0.11519123954E+03 -0.83924677197E+03  0.85405100260E+03  0.00000000000E+00 0. -1.
          1    1    1    2  502    0  0.14228672905E+02  0.54748045676E+02  0.32159045548E+03  0.32652752517E+03  0.00000000000E+00 0. -1.
         22    1    3    3    0    0 -0.80490008635E+00  0.54479060086E+02  0.56389758280E+02  0.78411865753E+02  0.00000000000E+00 0. -1.
         22    1    3    3    0    0 -0.12204674052E+03  0.59641337801E+01  0.28395308738E+02  0.12544828146E+03  0.00000000000E+00 0. -1.
</event>
<event>
 7    1  0.6294601E-006  0.7414480E+02  0.7818608E-02  0.1349532E+00
          2   -1    0    0  502    0  0.00000000000E+00  0.00000000000E+00  0.17487946489E+04  0.17487946489E+04  0.00000000000E+00 0. -1.
          1   -1    0    0  501    0 -0.00000000000E+00 -0.00000000000E+00 -0.10588198650E+04  0.10588198650E+04  0.00000000000E+00 0. -1.
         25    2    1    2    0    0 -0.56815493626E+00 -0.98699609966E+01  0.54728921207E+03  0.56147043884E+03  0.12500333242E+03 0.  0.
          2    1    1    2  501    0 -0.70273501616E+02  0.24171018458E+02 -0.10493207107E+04  0.10519489327E+04  0.00000000000E+00 0. -1.
          1    1    1    2  502    0  0.70841656552E+02 -0.14301057461E+02  0.11920062825E+04  0.11941951423E+04  0.00000000000E+00 0. -1.
         22    1    3    3    0    0 -0.24880990077E+02  0.52081383498E+02  0.29193592392E+03  0.29758716009E+03  0.00000000000E+00 0. -1.
         22    1    3    3    0    0  0.24312835140E+02 -0.61951344494E+02  0.25535328815E+03  0.26388327875E+03  0.00000000000E+00 0. -1.
</event>
<event>
 7    1  0.6294601E-006  0.6186137E+02  0.7818608E-02  0.1441656E+00
          2   -1    0    0  502    0  0.00000000000E+00  0.00000000000E+00  0.49604382519E+03  0.49604382519E+03  0.00000000000E+00 0. -1.
          1   -1    0    0  501    0 -0.00000000000E+00 -0.00000000000E+00 -0.52564566055E+03  0.52564566055E+03  0.00000000000E+00 0. -1.
         25    2    1    2    0    0  0.80824120480E+02 -0.29306826962E+02 -0.11479664803E+03  0.19024953003E+03  0.12500073888E+03 0.  0.
          2    1    1    2  501    0 -0.41976755451E+02  0.44007135159E+02 -0.36969189091E+03  0.37466087352E+03  0.00000000000E+00 0. -1.
          1    1    1    2  502    0 -0.38847365029E+02 -0.14700308197E+02  0.45488670358E+03  0.45677908219E+03  0.00000000000E+00 0. -1.
         22    1    3    3    0    0  0.62779692776E+02  0.38318148657E+02 -0.89461640402E+02  0.11581431451E+03  0.00000000000E+00 0.  1.
         22    1    3    3    0    0  0.18044427705E+02 -0.67624975619E+02 -0.25335007633E+02  0.74435215526E+02  0.00000000000E+00 0.  1.
</event>
<event>
 7    1  0.6294601E-006  0.1407614E+03  0.7818608E-02  0.1317713E+00
          2   -1    0    0  502    0  0.00000000000E+00  0.00000000000E+00  0.26207808182E+03  0.26207808182E+03  0.00000000000E+00 0. -1.
          1   -1    0    0  501    0 -0.00000000000E+00 -0.00000000000E+00 -0.10565178573E+04  0.10565178573E+04  0.00000000000E+00 0. -1.
         25    2    1    2    0    0 -0.68797544897E+02 -0.14643686656E+03 -0.26795897978E+03  0.33705168410E+03  0.12499985933E+03 0.  0.
          2    1    1    2  501    0  0.19482138010E+02  0.13659808730E+03 -0.74481796108E+03  0.75749084898E+03  0.00000000000E+00 0. -1.
          1    1    1    2  502    0  0.49315406887E+02  0.98387792686E+01  0.21833716543E+03  0.22405340600E+03  0.00000000000E+00 0. -1.
         22    1    3    3    0    0  0.11166217910E+02 -0.84809706909E+02 -0.19363307820E+03  0.21168641851E+03  0.00000000000E+00 0.  1.
         22    1    3    3    0    0 -0.79963762806E+02 -0.61627159655E+02 -0.74325901580E+02  0.12536526558E+03  0.00000000000E+00 0.  1.
</event>
<event>
 7    1  0.6294601E-006  0.2043890E+03  0.7818608E-02  0.1247841E+00
          2   -1    0    0  502    0  0.00000000000E+00  0.00000000000E+00  0.76139698017E+03  0.76139698017E+03  0.00000000000E+00 0. -1.
          1   -1    0    0  501    0 -0.00000000000E+00 -0.00000000000E+00 -0.25601105121E+03  0.25601105121E+03  0.00000000000E+00 0. -1.
         25    2    1    2    0    0 -0.57778556608E+02  0.18795071066E+03  0.44324850525E+03  0.50075713661E+03  0.12499856486E+03 0.  0.
          2    1    1    2  501    0  0.12145992878E+03 -0.16658751284E+03 -0.17485119501E+03  0.27032730925E+03  0.00000000000E+00 0. -1.
          1    1    1    2  502    0 -0.63681372170E+02 -0.21363197827E+02  0.23698861872E+03  0.24632358553E+03  0.00000000000E+00 0. -1.
         22    1    3    3    0    0 -0.18836898456E+01 -0.18544654920E+02  0.27901211487E+02  0.33554882148E+02  0.00000000000E+00 0. -1.
         22    1    3    3    0    0 -0.55894866763E+02  0.20649536558E+03  0.41534729376E+03  0.46720225446E+03  0.00000000000E+00 0. -1.
</event>
<event>
 7    1  0.6294601E-006  0.6439280E+02  0.7818608E-02  0.1385201E+00
          2   -1    0    0  502    0  0.00000000000E+00  0.00000000000E+00  0.22301298651E+04  0.22301298651E+04  0.00000000000E+00 0. -1.
          1   -1    0    0  501    0 -0.00000000000E+00 -0.00000000000E+00 -0.90610354292E+02  0.90610354292E+02  0.00000000000E+00 0. -1.
         25    2    1    2    0    0 -0.27841295090E+02 -0.57435557936E+02  0.20582130840E+04  0.20629929221E+04  0.12499886563E+03 0.  0.
          2    1    1    2  501    0  0.56259645921E+02 -0.25731353183E+02 -0.63310684378E+02  0.88518320432E+02  0.00000000000E+00 0. -1.
          1    1    1    2  502    0 -0.28418350831E+02  0.83166911119E+02  0.14461711127E+03  0.16922897695E+03  0.00000000000E+00 0. -1.
         22    1    3    3    0    0  0.30800696581E+02  0.24504533414E+02  0.63273651832E+03  0.63395950713E+03  0.00000000000E+00 0. -1.
         22    1    3    3    0    0 -0.58641991671E+02 -0.81940091350E+02  0.14254765656E+04  0.14290334149E+04  0.00000000000E+00 0. -1.
</event>
<event>
 7    1  0.6294601E-006  0.1306471E+03  0.7818608E-02  0.1298219E+00
          2   -1    0    0  502    0  0.00000000000E+00  0.00000000000E+00  0.12162371856E+03  0.12162371856E+03  0.00000000000E+00 0. -1.
          1   -1    0    0  501    0 -0.00000000000E+00 -0.00000000000E+00 -0.15485926074E+04  0.15485926074E+04  0.00000000000E+00 0. -1.
         25    2    1    2    0    0  0.13581244362E+03  0.34910308775E+01 -0.52370342572E+03  0.55529027665E+03  0.12499922440E+03 0.  0.
          2    1    1    2  501    0 -0.18225318801E+02 -0.62081854105E+02 -0.96682167791E+03  0.96898424948E+03  0.00000000000E+00 0. -1.
          1    1    1    2  502    0 -0.11758712482E+03  0.58590823227E+02  0.63556214815E+02  0.14594179981E+03  0.00000000000E+00 0. -1.
         22    1    3    3    0    0  0.90426684822E+02  0.33782564090E+02 -0.46591970348E+03  0.47581447756E+03  0.00000000000E+00 0.  1.
         22    1    3    3    0    0  0.45385758798E+02 -0.30291533212E+02 -0.57783722232E+02  0.79475799090E+02  0.00000000000E+00 0.  1.
</event>
<event>
 7    1  0.6294601E-006  0.3768259E+02  0.7818608E-02  0.1572475E+00
          2   -1    0    0  502    0  0.00000000000E+00  0.00000000000E+00  0.10755284327E+04  0.10755284327E+04  0.00000000000E+00 0. -1.
          1   -1    0    0  501    0 -0.00000000000E+00 -0.00000000000E+00 -0.56449486324E+03  0.56449486324E+03  0.00000000000E+00 0. -1.
         25    2    1    2    0    0 -0.20661906261E+02 -0.39135374979E+01  0.85381661044E+03  0.86317471057E+03  0.12500218624E+03 0.  0.
          2    1    1    2  501    0 -0.21049291843E+02 -0.18381971581E+02 -0.55688456903E+03  0.55758532332E+03  0.00000000000E+00 0. -1.
          1    1    1    2  502    0  0.41711198104E+02  0.22295509078E+02  0.21410152801E+03  0.21926326202E+03  0.00000000000E+00 0. -1.
         22    1    3    3    0    0 -0.25828346025E+02  0.36891480507E+02  0.11945222074E+03  0.12765938208E+03  0.00000000000E+00 0. -1.
         22    1    3    3    0    0  0.51664397641E+01 -0.40805018005E+02  0.73436438970E+03  0.73551532850E+03  0.00000000000E+00 0. -1.
</event>
<event>
 7    1  0.6294601E-006  0.4676962E+02  0.7818608E-02  0.1499915E+00
          2   -1    0    0  502    0  0.00000000000E+00  0.00000000000E+00  0.30866679653E+04  0.30866679653E+04  0.00000000000E+00 0. -1.
          1   -1    0    0  501    0 -0.00000000000E+00 -0.00000000000E+00 -0.39693330144E+02  0.39693330144E+02  0.00000000000E+00 0. -1.
         25    2    1    2    0    0  0.33311431021E+02 -0.63321877394E+02  0.19887794762E+03  0.24555489880E+03  0.12500183472E+03 0.  0.
          2    1    1    2  501    0  0.44239821530E+01  0.35934369734E+02  0.41107719646E+01  0.36438290196E+02  0.00000000000E+00 0. -1.
          1    1    1    2  502    0 -0.37735413174E+02  0.27387507660E+02  0.28439859156E+04  0.28443681065E+04  0.00000000000E+00 0. -1.
         22    1    3    3    0    0  0.56401993579E+02 -0.34906588039E+02  0.19812446521E+03  0.20893290426E+03  0.00000000000E+00 0. -1.
         22    1    3    3    0    0 -0.23090562558E+02 -0.28415289355E+02  0.75348240613E+00  0.36621994540E+02  0.00000000000E+00 0. -1.
</event>
<event>
 7    1  0.6294601E-006  0.1138135E+03  0.7818608E-02  0.1264975E+00
          2   -1    0    0  502    0  0.00000000000E+00  0.00000000000E+00  0.10148740481E+04  0.10148740481E+04  0.00000000000E+00 0. -1.
          1   -1    0    0  501    0 -0.00000000000E+00 -0.00000000000E+00 -0.16072848005E+04  0.16072848005E+04  0.00000000000E+00 0. -1.
         25    2    1    2    0    0  0.32100440643E+02  0.34728559208E+02  0.62822409664E+03  0.64228234051E+03  0.12499831282E+03 0.  0.
          2    1    1    2  501    0 -0.10979003906E+03  0.31102572325E+02 -0.15913469277E+04  0.15954329403E+04  0.00000000000E+00 0. -1.
          1    1    1    2  502    0  0.77689598416E+02 -0.65831131533E+02  0.37071207867E+03  0.38444356784E+03  0.00000000000E+00 0. -1.
         22    1    3    3    0    0  0.62231095479E+02  0.51754483088E+00  0.15740100618E+03  0.16925735980E+03  0.00000000000E+00 0. -1.
         22    1    3    3    0    0 -0.30130654836E+02  0.34211014377E+02  0.47082309046E+03  0.47302498071E+03  0.00000000000E+00 0. -1.
</event>
<event>
 7    1  0.6294601E-006  0.8657282E+02  0.7818608E-02  0.1422543E+00
          2   -1    0    0  502    0  0.00000000000E+00  0.00000000000E+00  0.39464821441E+02  0.39464821441E+02  0.00000000000E+00 0. -1.
          1   -1    0    0  501    0 -0.00000000000E+00 -0.00000000000E+00 -0.18179464052E+04  0.18179464052E+04  0.00000000000E+00 0. -1.
         25    2    1    2    0    0 -0.65544093633E+02  0.89550079691E+02 -0.24273043558E+03  0.29471099500E+03  0.12498504405E+03 0.  0.
          2    1    1    2  501    0  0.65350130727E+02 -0.55258331380E+02 -0.15240730980E+04  0.15264740191E+04  0.00000000000E+00 0. -1.
          1    1    1    2  502    0  0.19396290540E+00 -0.34291748311E+02 -0.11678050200E+02  0.36226212613E+02  0.00000000000E+00 0. -1.
         22    1    3    3    0    0  0.32778507735E+02 -0.40022575537E+00 -0.35394082632E+02  0.48242427752E+02  0.00000000000E+00 0. -1.
         22    1    3    3    0    0 -0.98322601368E+02  0.89950305446E+02 -0.20733635295E+03  0.24646856725E+03  0.00000000000E+00 0. -1.
</event>
<event>
 7    1  0.6294601E-006  0.7599117E+02  0.7818608E-02  0.1385809E+00
          2   -1    0    0  502    0  0.00000000000E+00  0.00000000000E+00  0.12059608727E+04  0.12059608727E+04  0.00000000000E+00 0. -1.
          1   -1    0    0  501    0 -0.00000000000E+00 -0.00000000000E+00 -0.77949483705E+03  0.77949483705E+03  0.00000000000E+00 0. -1.
         25    2    1    2    0    0  0.96787245612E+02 -0.83245644452E+02 -0.24922901581E+03  0.30665683421E+03  0.12500281361E+03 0.  0.
          2    1    1    2  501    0 -0.42083514071E+02  0.30825705579E+02 -0.49897176121E+03  0.50169120459E+03  0.00000000000E+00 0. -1.
          1    1    1    2  502    0 -0.54703731541E+02  0.52419938873E+02  0.11746668127E+04  0.11771076710E+04  0.00000000000E+00 0. -1.
         22    1    3    3    0    0  0.67105435869E+01  0.30937717525E+02 -0.61635901660E+02  0.69290389914E+02  0.00000000000E+00 0. -1.
         22    1    3    3    0    0  0.90076702025E+02 -0.11418336198E+03 -0.18759311415E+03  0.23736644429E+03  0.00000000000E+00 0. -1.
</event>
<event>
 7    1  0.6294601E-006  0.1328145E+03  0.7818608E-02  0.1347994E+00
          2   -1    0    0  502    0  0.00000000000E+00  0.00000000000E+00  0.16570224649E+04  0.16570224649E+04  0.00000000000E+00 0. -1.
          1   -1    0    0  501    0 -0.00000000000E+00 -0.00000000000E+00 -0.33150691009E+03  0.33150691009E+03  0.00000000000E+00 0. -1.
         25    2    1    2    0    0 -0.11280657066E+03  0.66871448689E+02  0.19209576424E+03  0.26406269980E+03  0.12502485253E+03 0.  0.
          2    1    1    2  501    0 -0.17277890685E+02 -0.37048589705E+02 -0.29097536574E+03  0.29383292357E+03  0.00000000000E+00 0. -1.
          1    1    1    2  502    0  0.13008446134E+03 -0.29822858984E+02  0.14243951563E+04  0.14306337516E+04  0.00000000000E+00 0. -1.
         22    1    3    3    0    0 -0.10070579808E+03  0.10161691692E+03  0.13904590562E+03  0.19950293091E+03  0.00000000000E+00 0. -1.
         22    1    3    3    0    0 -0.12100772580E+02 -0.34745468227E+02  0.53049858620E+02  0.64559768888E+02  0.00000000000E+00 0. -1.
</event>
<event>
 7    1  0.6294601E-006  0.7437054E+02  0.7818608E-02  0.1434714E+00
          2   -1    0    0  502    0  0.00000000000E+00  0.00000000000E+00  0.97121047382E+03  0.97121047382E+03  0.00000000000E+00 0. -1.
          1   -1    0    0  501    0 -0.00000000000E+00 -0.00000000000E+00 -0.26385604037E+03  0.26385604037E+03  0.00000000000E+00 0. -1.
         25    2    1    2    0    0 -0.79052357700E+02 -0.37005095832E+01  0.79016209404E+02  0.16773986199E+03  0.12502052200E+03 0.  0.
          2    1    1    2  501    0  0.64652141533E+02  0.37124208698E+02 -0.21275875927E+03  0.22544266659E+03  0.00000000000E+00 0. -1.
          1    1    1    2  502    0  0.14400216167E+02 -0.33423699114E+02  0.84109698331E+03  0.84188398561E+03  0.00000000000E+00 0. -1.
         22    1    3    3    0    0  0.49900344335E+01 -0.31334964974E+02 -0.17969873948E+02  0.36465008477E+02  0.00000000000E+00 0. -1.
         22    1    3    3    0    0 -0.84042392134E+02  0.27634455391E+02  0.96986083351E+02  0.13127485351E+03  0.00000000000E+00 0. -1.
</event>
<event>
 7    1  0.6294601E-006  0.2233025E+03  0.7818608E-02  0.1217483E+00
          2   -1    0    0  502    0  0.00000000000E+00  0.00000000000E+00  0.16930508366E+03  0.16930508366E+03  0.00000000000E+00 0. -1.
          1   -1    0    0  501    0 -0.00000000000E+00 -0.00000000000E+00 -0.10026983760E+04  0.10026983760E+04  0.00000000000E+00 0. -1.
         25    2    1    2    0    0 -0.37730408769E+02 -0.79137069016E+01 -0.43485500147E+03  0.45410306274E+03  0.12499803514E+03 0.  0.
          2    1    1    2  501    0  0.24934037269E+03  0.79224569878E+02 -0.41867031963E+03  0.49369220215E+03  0.00000000000E+00 0. -1.
          1    1    1    2  502    0 -0.21160996392E+03 -0.71310862976E+02  0.20132028780E+02  0.22420819475E+03  0.00000000000E+00 0. -1.
         22    1    3    3    0    0 -0.17521048365E+02 -0.64008927945E+02 -0.28920074899E+03  0.29671737935E+03  0.00000000000E+00 0.  1.
         22    1    3    3    0    0 -0.20209360405E+02  0.56095221044E+02 -0.14565425248E+03  0.15738568340E+03  0.00000000000E+00 0.  1.
</event>
<event>
 7    1  0.6294601E-006  0.1014283E+03  0.7818608E-02  0.1307907E+00
          2   -1    0    0  502    0  0.00000000000E+00  0.00000000000E+00  0.22972742558E+03  0.22972742558E+03  0.00000000000E+00 0. -1.
          1   -1    0    0  501    0 -0.00000000000E+00 -0.00000000000E+00 -0.94982960767E+03  0.94982960767E+03  0.00000000000E+00 0. -1.
         25    2    1    2    0    0 -0.60049532510E+02  0.50389906731E+01 -0.56795664689E+02  0.14993962382E+03  0.12499922192E+03 0.  0.
          2    1    1    2  501    0  0.67877415299E+02 -0.80889139349E+02 -0.83505363811E+03  0.84170361464E+03  0.00000000000E+00 0. -1.
          1    1    1    2  502    0 -0.78278827895E+01  0.75850148676E+02  0.17174712071E+03  0.18791379480E+03  0.00000000000E+00 0. -1.
         22    1    3    3    0    0 -0.75510472462E+02  0.49521033416E+02 -0.47152232589E+02  0.10187000167E+03  0.00000000000E+00 0.  1.
         22    1    3    3    0    0  0.15460939952E+02 -0.44482042742E+02 -0.96434321008E+01  0.48069622148E+02  0.00000000000E+00 0.  1.
</event>
<event>
 7    1  0.6294601E-006  0.1148596E+03  0.7818608E-02  0.1387119E+00
          2   -1    0    0  502    0  0.00000000000E+00  0.00000000000E+00  0.47605656388E+03  0.47605656388E+03  0.00000000000E+00 0. -1.
          1   -1    0    0  501    0 -0.00000000000E+00 -0.00000000000E+00 -0.10798224209E+04  0.10798224209E+04  0.00000000000E+00 0. -1.
         25    2    1    2    0    0  0.12540272987E+03  0.31482056031E+02  0.14998756060E+03  0.23417779173E+03  0.12500402111E+03 0.  0.
          2    1    1    2  501    0 -0.13547098487E+02 -0.31347463656E+02 -0.10264174818E+04  0.10269854109E+04  0.00000000000E+00 0. -1.
          1    1    1    2  502    0 -0.11185563139E+03 -0.13459237490E+00  0.27266406412E+03  0.29471578215E+03  0.00000000000E+00 0. -1.
         22    1    3    3    0    0  0.12134312981E+03 -0.23896800696E+02  0.11244472250E+03  0.16714971688E+03  0.00000000000E+00 0.  1.
         22    1    3    3    0    0  0.40596000581E+01  0.55378856727E+02  0.37542838103E+02  0.67028074848E+02  0.00000000000E+00 0.  1.
</event>
<event>
 7    1  0.6294601E-006  0.2035041E+03  0.7818608E-02  0.1162593E+00
          2   -1    0    0  502    0  0.00000000000E+00  0.00000000000E+00  0.21774749576E+03  0.21774749576E+03  0.00000000000E+00 0. -1.
          1   -1    0    0  501    0 -0.00000000000E+00 -0.00000000000E+00 -0.12826009098E+04  0.12826009098E+04  0.00000000000E+00 0. -1.
         25    2    1    2    0    0  0.70816224838E+02 -0.72971794722E+02 -0.23549073900E+03  0.28534301660E+03  0.12499971377E+03 0.  0.
          2    1    1    2  501    0 -0.40490692640E+02 -0.16415069291E+03 -0.93750539817E+03  0.95262863582E+03  0.00000000000E+00 0. -1.
          1    1    1    2  502    0 -0.30325532198E+02  0.23712248763E+03  0.10814272310E+03  0.26237675317E+03  0.00000000000E+00 0. -1.
         22    1    3    3    0    0  0.39333108054E+02 -0.10724757681E+03 -0.17577820127E+03  0.20963566529E+03  0.00000000000E+00 0.  1.
         22    1    3    3    0    0  0.31483116784E+02  0.34275782087E+02 -0.59712537730E+02  0.75707351309E+02  0.00000000000E+00 0.  1.
</event>
<event>
 7    1  0.6294601E-006  0.1167526E+03  0.7818608E-02  0.1327262E+00
          2   -1    0    0  502    0  0.00000000000E+00  0.00000000000E+00  0.27501824253E+04  0.27501824253E+04  0.00000000000E+00 0. -1.
          1   -1    0    0  501    0 -0.00000000000E+00 -0.00000000000E+00 -0.60208648751E+02  0.60208648751E+02  0.00000000000E+00 0. -1.
         25    2    1    2    0    0 -0.73690931827E+02  0.36094005684E+02  0.45696837954E+03  0.48081046307E+03  0.12500188324E+03 0.  0.
          2    1    1    2  501    0  0.12306240180E+03 -0.10331534035E+02  0.31604240915E+02  0.12747518730E+03  0.00000000000E+00 0. -1.
          1    1    1    2  502    0 -0.49371469973E+02 -0.25762471649E+02  0.22014011560E+04  0.22021054236E+04  0.00000000000E+00 0. -1.
         22    1    3    3    0    0 -0.10192296232E+03  0.25280153404E+02  0.42063143614E+03  0.43354144147E+03  0.00000000000E+00 0. -1.
         22    1    3    3    0    0  0.28232030492E+02  0.10813852281E+02  0.36336943398E+02  0.47269021593E+02  0.00000000000E+00 0. -1.
</event>
<event>
 7    1  0.6294601E-006  0.4799949E+02  0.7818608E-02  0.1494408E+00
          2   -1    0    0  502    0  0.00000000000E+00  0.00000000000E+00  0.20633252071E+03  0.20633252071E+03  0.00000000000E+00 0. -1.
          1   -1    0    0  501    0 -0.00000000000E+00 -0.00000000000E+00 -0.14057673869E+03  0.14057673869E+03  0.00000000000E+00 0. -1.
         25    2    1    2    0    0 -0.46644026783E+02  0.13548535205E+02  0.74561504564E+02  0.15344296629E+03  0.12500439152E+03 0.  0.
          2    1    1    2  501    0  0.22906112855E+01 -0.36572195378E+02 -0.90535027966E+02  0.97669666036E+02  0.00000000000E+00 0. -1.
          1    1    1    2  502    0  0.44353415498E+02  0.23023660174E+02  0.81729305418E+02  0.95796627071E+02  0.00000000000E+00 0. -1.
         22    1    3    3    0    0  0.19382215067E+02  0.38972836996E+02 -0.84831529113E+01  0.44345418791E+02  0.00000000000E+00 0.  1.
         22    1    3    3    0    0 -0.66026241850E+02 -0.25424301791E+02  0.83044657475E+02  0.10909754750E+03  0.00000000000E+00 0.  1.
</event>
<event>
 7    1  0.6294601E-006  0.6961563E+02  0.7818608E-02  0.1411326E+00
          2   -1    0    0  502    0  0.00000000000E+00  0.00000000000E+00  0.49614722111E+02  0.49614722111E+02  0.00000000000E+00 0. -1.
          1   -1    0    0  501    0 -0.00000000000E+00 -0.00000000000E+00 -0.10380447938E+04  0.10380447938E+04  0.00000000000E+00 0. -1.
         25    2    1    2    0    0  0.78691372802E+02 -0.24991751105E+02 -0.12574971666E+03  0.19559056357E+03  0.12500303012E+03 0.  0.
          2    1    1    2  501    0 -0.13898469798E+02  0.44379847153E+02 -0.79510292300E+03  0.79646179849E+03  0.00000000000E+00 0. -1.
          1    1    1    2  502    0 -0.64792903004E+02 -0.19388096048E+02 -0.67577432025E+02  0.95607153849E+02  0.00000000000E+00 0. -1.
         22    1    3    3    0    0  0.87174791831E+02 -0.44817500867E+02 -0.37834201093E+02  0.10506892731E+03  0.00000000000E+00 0. -1.
         22    1    3    3    0    0 -0.84834190286E+01  0.19825749762E+02 -0.87915515570E+02  0.90521636254E+02  0.00000000000E+00 0. -1.
</event>
<event>
 7    1  0.6294601E-006  0.1326887E+03  0.7818608E-02  0.1340437E+00
          2   -1    0    0  502    0  0.00000000000E+00  0.00000000000E+00  0.88301936089E+03  0.88301936089E+03  0.00000000000E+00 0. -1.
          1   -1    0    0  501    0 -0.00000000000E+00 -0.00000000000E+00 -0.35905788923E+03  0.35905788923E+03  0.00000000000E+00 0. -1.
         25    2    1    2    0    0 -0.85643138966E+02 -0.28880332417E+02  0.51674287555E+03  0.53927455955E+03  0.12500012119E+03 0.  0.
          2    1    1    2  501    0  0.12863062545E+03  0.36559833581E+02 -0.33349255562E+03  0.35930452807E+03  0.00000000000E+00 0. -1.
          1    1    1    2  502    0 -0.42987486488E+02 -0.76795011641E+01  0.34071115173E+03  0.34349816251E+03  0.00000000000E+00 0. -1.
         22    1    3    3    0    0 -0.81474837387E+02 -0.73053137172E+02  0.38576225591E+03  0.40098307703E+03  0.00000000000E+00 0. -1.
         22    1    3    3    0    0 -0.41683015787E+01  0.44172804754E+02  0.13098061964E+03  0.13829148252E+03  0.00000000000E+00 0. -1.
</event>
<event>
 7    1  0.6294601E-006  0.1221994E+03  0.7818608E-02  0.1368077E+00
          2   -1    0    0  502    0  0.00000000000E+00  0.00000000000E+00  0.18341887657E+04  0.18341887657E+04  0.00000000000E+00 0. -1.
          1   -1    0    0  501    0 -0.00000000000E+00 -0.00000000000E+00 -0.34246627071E+02  0.34246627071E+02  0.00000000000E+00 0. -1.
         25    2    1    2    0    0 -0.83465493412E+02  0.45406743978E+02  0.81161794091E+03  0.82666739626E+03  0.12500816387E+03 0.  0.
          2    1    1    2  501    0  0.10013949485E+03 -0.79009041359E+02  0.12827121839E+03  0.18089735353E+03  0.00000000000E+00 0. -1.
          1    1    1    2  502    0 -0.16674001439E+02  0.33602297382E+02  0.86005297929E+03  0.86087064296E+03  0.00000000000E+00 0. -1.
         22    1    3    3    0    0 -0.80360196265E+02 -0.18707216343E+02  0.59642492083E+03  0.60210498028E+03  0.00000000000E+00 0. -1.
         22    1    3    3    0    0 -0.31052971470E+01  0.64113960321E+02  0.21519302008E+03  0.22456241598E+03  0.00000000000E+00 0. -1.
</event>
<event>
 7    1  0.6294601E-006  0.1324059E+03  0.7818608E-02  0.1371433E+00
          2   -1    0    0  502    0  0.00000000000E+00  0.00000000000E+00  0.89355655219E+03  0.89355655219E+03  0.00000000000E+00 0. -1.
          1   -1    0    0  501    0 -0.00000000000E+00 -0.00000000000E+00 -0.10110942401E+03  0.10110942401E+03  0.00000000000E+00 0. -1.
         25    2    1    2    0    0  0.11140685126E+03 -0.99864575637E+01  0.25744129873E+03  0.30726765660E+03  0.12500469856E+03 0.  0.
          2    1    1    2  501    0  0.27635160713E+02  0.19236697294E+02 -0.64043188479E+02  0.72355252892E+02  0.00000000000E+00 0. -1.
          1    1    1    2  502    0 -0.13904201197E+03 -0.92502397299E+01  0.59904901792E+03  0.61504306670E+03  0.00000000000E+00 0. -1.
         22    1    3    3    0    0  0.90242512208E+02  0.46639953642E+02  0.19773062487E+03  0.22229798986E+03  0.00000000000E+00 0.  1.
         22    1    3    3    0    0  0.21164339047E+02 -0.56626411206E+02  0.59710673864E+02  0.84969666744E+02  0.00000000000E+00 0.  1.
</event>
<event>
 7    1  0.6294601E-006  0.2631702E+03  0.7818608E-02  0.1204668E+00
          2   -1    0    0  502    0  0.00000000000E+00  0.00000000000E+00  0.68053590698E+03  0.68053590698E+03  0.00000000000E+00 0. -1.
          1   -1    0    0  501    0 -0.00000000000E+00 -0.00000000000E+00 -0.22220411270E+03  0.22220411270E+03  0.00000000000E+00 0. -1.
         25    2    1    2    0    0  0.96673277153E+02  0.20921503748E+03  0.80397070036E+02  0.27422961968E+03  0.12498616331E+03 0.  0.
          2    1    1    2  501    0 -0.48499021773E+02  0.65753915331E+02 -0.65366910262E+02  0.10463539292E+03  0.00000000000E+00 0. -1.
          1    1    1    2  502    0 -0.48174255380E+02 -0.27496895281E+03  0.44330163450E+03  0.52387500708E+03  0.00000000000E+00 0. -1.
         22    1    3    3    0    0  0.37908049310E+02  0.29866445296E+01 -0.13205472371E+02  0.40253257615E+02  0.00000000000E+00 0.  1.
         22    1    3    3    0    0  0.58765227842E+02  0.20622839295E+03  0.93602542407E+02  0.23397636207E+03  0.00000000000E+00 0.  1.
</event>
<event>
 7    1  0.6294601E-006  0.7705348E+02  0.7818608E-02  0.1387857E+00
          2   -1    0    0  502    0  0.00000000000E+00  0.00000000000E+00  0.30419481584E+02  0.30419481584E+02  0.00000000000E+00 0. -1.
          1   -1    0    0  501    0 -0.00000000000E+00 -0.00000000000E+00 -0.69551924433E+03  0.69551924433E+03  0.00000000000E+00 0. -1.
         25    2    1    2    0    0 -0.11003312954E+03 -0.17258675444E+02 -0.38586046981E+03  0.42061804794E+03  0.12500435441E+03 0.  0.
          2    1    1    2  501    0  0.66680573283E+02 -0.88406310862E+01 -0.20267519930E+03  0.21354552682E+03  0.00000000000E+00 0. -1.
          1    1    1    2  502    0  0.43352556254E+02  0.26099306530E+02 -0.76564093634E+02  0.91775151152E+02  0.00000000000E+00 0. -1.
         22    1    3    3    0    0  0.58369255337E+01 -0.38013142087E+01 -0.20677678458E+03  0.20689407514E+03  0.00000000000E+00 0.  1.
         22    1    3    3    0    0 -0.11587005507E+03 -0.13457361235E+02 -0.17908368523E+03  0.21372397280E+03  0.00000000000E+00 0.  1.
</event>
<event>
 7    1  0.6294601E-006  0.4524590E+02  0.7818608E-02  0.1550822E+00
          2   -1    0    0  502    0  0.00000000000E+00  0.00000000000E+00  0.29975904505E+03  0.29975904505E+03  0.00000000000E+00 0. -1.
          1   -1    0    0  501    0 -0.00000000000E+00 -0.00000000000E+00 -0.18428004151E+04  0.18428004151E+04  0.00000000000E+00 0. -1.
         25    2    1    2    0    0 -0.16089872886E+02 -0.12499954595E+02 -0.15938732695E+03  0.20358104705E+03  0.12500315936E+03 0.  0.
          2    1    1    2  501    0  0.26655502930E+02  0.37010284011E+02 -0.16603609194E+04  0.16609872545E+04  0.00000000000E+00 0. -1.
          1    1    1    2  502    0 -0.10565630044E+02 -0.24510329416E+02  0.27670687637E+03  0.27799115852E+03  0.00000000000E+00 0. -1.
         22    1    3    3    0    0 -0.42024964348E+02  0.40586850932E+02 -0.11728596910E+03  0.13103201382E+03  0.00000000000E+00 0. -1.
         22    1    3    3    0    0  0.25935091462E+02 -0.53086805527E+02 -0.42101357850E+02  0.72549033233E+02  0.00000000000E+00 0. -1.
</event>
<event>
 7    1  0.6294601E-006  0.9731784E+02  0.7818608E-02  0.1338530E+00
          2   -1    0    0  502    0  0.00000000000E+00  0.00000000000E+00  0.83827474440E+03  0.83827474440E+03  0.00000000000E+00 0. -1.
          1   -1    0    0  501    0 -0.00000000000E+00 -0.00000000000E+00 -0.45768413585E+03  0.45768413585E+03  0.00000000000E+00 0. -1.
         25    2    1    2    0    0  0.14243801222E+02 -0.12777413388E+03  0.17964928401E+03  0.25382655866E+03  0.12499976591E+03 0.  0.
          2    1    1    2  501    0  0.37427181036E+02  0.47574832261E+02 -0.41472434612E+03  0.41911864884E+03  0.00000000000E+00 0. -1.
          1    1    1    2  502    0 -0.51670982258E+02  0.80199301615E+02  0.61566567067E+03  0.62301367274E+03  0.00000000000E+00 0. -1.
         22    1    3    3    0    0 -0.29273050552E+02  0.13254226968E+01  0.12141170422E+01  0.29328182932E+02  0.00000000000E+00 0. -1.
         22    1    3    3    0    0  0.43516851773E+02 -0.12909955657E+03  0.17843516697E+03  0.22449837573E+03  0.00000000000E+00 0. -1.
</event>
<event>
 7    1  0.1380475E-005  0.4813898E+02  0.7818608E-02  0.1496787E+00
          2   -1    0    0  502    0  0.00000000000E+00  0.00000000000E+00  0.23051535263E+04  0.23051535263E+04  0.00000000000E+00 0. -1.
          1   -1    0    0  501    0 -0.00000000000E+00 -0.00000000000E+00 -0.15057693685E+04  0.15057693685E+04  0.00000000000E+00 0. -1.
         25    2    1    2    0    0  0.16251263611E+02 -0.25641059322E+02 -0.23516677440E+03  0.26804811049E+03  0.12499924105E+03 0.  0.
          2    1    1    2  501    0 -0.48100109332E+02  0.89840537745E+01 -0.12535434592E+04  0.12544981219E+04  0.00000000000E+00 0. -1.
          1    1    1    2  502    0  0.31848845721E+02  0.16657005548E+02  0.22880943914E+04  0.22883766624E+04  0.00000000000E+00 0. -1.
         22    1    3    3    0    0 -0.31434137855E+02 -0.60885162623E+02 -0.11093219937E+03  0.13038811643E+03  0.00000000000E+00 0.  1.
         22    1    3    3    0    0  0.47685401466E+02  0.35244103301E+02 -0.12423457503E+03  0.13765999405E+03  0.00000000000E+00 0.  1.
</event>
<event>
 7    1  0.6294601E-006  0.1002340E+03  0.7818608E-02  0.1425519E+00
          2   -1    0    0  502    0  0.00000000000E+00  0.00000000000E+00  0.30314820749E+04  0.30314820749E+04  0.00000000000E+00 0. -1.
          1   -1    0    0  501    0 -0.00000000000E+00 -0.00000000000E+00 -0.95409497875E+03  0.95409497875E+03  0.00000000000E+00 0. -1.
         25    2    1    2    0    0 -0.11225512624E+03 -0.60400055215E+02  0.15677613334E+04  0.15778949618E+04  0.12501012847E+03 0.  0.
          2    1    1    2  501    0  0.83839453895E+02  0.54852393483E+02 -0.94623959639E+03  0.95152888179E+03  0.00000000000E+00 0. -1.
          1    1    1    2  502    0  0.28415672341E+02  0.55476617320E+01  0.14558653592E+04  0.14561532100E+04  0.00000000000E+00 0. -1.
         22    1    3    3    0    0 -0.13189876159E+03 -0.60669477869E+02  0.15083233466E+04  0.15152944885E+04  0.00000000000E+00 0.  1.
         22    1    3    3    0    0  0.19643635357E+02  0.26942265393E+00  0.59437986723E+02  0.62600473355E+02  0.00000000000E+00 0.  1.
</event>
<event>
 7    1  0.6294601E-006  0.7133208E+02  0.7818608E-02  0.1522254E+00
          2   -1    0    0  502    0  0.00000000000E+00  0.00000000000E+00  0.12032183829E+03  0.12032183829E+03  0.00000000000E+00 0. -1.
          1   -1    0    0  501    0 -0.00000000000E+00 -0.00000000000E+00 -0.66564455746E+03  0.66564455746E+03  0.00000000000E+00 0. -1.
         25    2    1    2    0    0 -0.12393553970E+02  0.67637657560E+02 -0.31897639942E+03  0.34942877404E+03  0.12500428727E+03 0.  0.
          2    1    1    2  501    0  0.20110046202E+02  0.34717069865E+01 -0.31890786962E+03  0.31956016024E+03  0.00000000000E+00 0. -1.
          1    1    1    2  502    0 -0.77164922321E+01 -0.71109364547E+02  0.92561549874E+02  0.11697746148E+03  0.00000000000E+00 0. -1.
         22    1    3    3    0    0 -0.22425369074E+02  0.57672709301E+02 -0.48600028883E+02  0.78682916721E+02  0.00000000000E+00 0.  1.
         22    1    3    3    0    0  0.10031815104E+02  0.99649482591E+01 -0.27037637054E+03  0.27074585732E+03  0.00000000000E+00 0.  1.
</event>
<event>
 7    1  0.6294601E-006  0.6203452E+02  0.7818608E-02  0.1455067E+00
          2   -1    0    0  502    0  0.00000000000E+00  0.00000000000E+00  0.21262835508E+03  0.21262835508E+03  0.00000000000E+00 0. -1.
          1   -1    0    0  501    0 -0.00000000000E+00 -0.00000000000E+00 -0.23555499857E+04  0.23555499857E+04  0.00000000000E+00 0. -1.
         25    2    1    2    0    0  0.23822909917E+02 -0.31013501100E+02 -0.17554037101E+03  0.21901689394E+03  0.12499843874E+03 0.  0.
          2    1    1    2  501    0 -0.35159772901E+01  0.62556600583E+02 -0.21559687057E+04  0.21568789373E+04  0.00000000000E+00 0. -1.
          1    1    1    2  502    0 -0.20306932627E+02 -0.31543099483E+02  0.18858744609E+03  0.19228250950E+03  0.00000000000E+00 0. -1.
         22    1    3    3    0    0  0.30275521117E+02 -0.74056928544E+02 -0.14577758777E+03  0.16628932901E+03  0.00000000000E+00 0.  1.
         22    1    3    3    0    0 -0.64526112008E+01  0.43043427445E+02 -0.29762783235E+02  0.52727564929E+02  0.00000000000E+00 0.  1.
</event>
<event>
 7    1  0.6294601E-006  0.1392503E+03  0.7818608E-02  0.1270394E+00
          2   -1    0    0  502    0  0.00000000000E+00  0.00000000000E+00  0.41137049330E+03  0.41137049330E+03  0.00000000000E+00 0. -1.
          1   -1    0    0  501    0 -0.00000000000E+00 -0.00000000000E+00 -0.47752928976E+03  0.47752928976E+03  0.00000000000E+00 0. -1.
         25    2    1    2    0    0 -0.98394722099E+02 -0.19406890484E+01  0.11271272938E+03  0.19497169779E+03  0.12499806384E+03 0.  0.
          2    1    1    2  501    0  0.12065964993E+03  0.77701127290E+02 -0.41807845871E+03  0.44202467572E+03  0.00000000000E+00 0. -1.
          1    1    1    2  502    0 -0.22264927831E+02 -0.75760438241E+02  0.23920693287E+03  0.25190340956E+03  0.00000000000E+00 0. -1.
         22    1    3    3    0    0  0.25321609386E+02 -0.10099370462E+02 -0.22160552125E+00  0.27262250360E+02  0.00000000000E+00 0. -1.
         22    1    3    3    0    0 -0.12371633149E+03  0.81586814140E+01  0.11293433490E+03  0.16770944743E+03  0.00000000000E+00 0. -1.
</event>
<event>
 7    1  0.6294601E-006  0.3776382E+02  0.7818608E-02  0.1570320E+00
          2   -1    0    0  502    0  0.00000000000E+00  0.00000000000E+00  0.33545588453E+03  0.33545588453E+03  0.00000000000E+00 0. -1.
          1   -1    0    0  501    0 -0.00000000000E+00 -0.00000000000E+00 -0.31934171818E+03  0.31934171818E+03  0.00000000000E+00 0. -1.
         25    2    1    2    0    0 -0.58187789935E+01 -0.40039291667E+01  0.25833196808E+03  0.28707086316E+03  0.12499754039E+03 0.  0.
          2    1    1    2  501    0 -0.26505615231E+02  0.26899036493E+02 -0.29740628243E+03  0.29979426718E+03  0.00000000000E+00 0. -1.
          1    1    1    2  502    0  0.32324394225E+02 -0.22895107326E+02  0.55188480700E+02  0.67932472379E+02  0.00000000000E+00 0. -1.
         22    1    3    3    0    0 -0.44088176466E+02 -0.48370083686E+02  0.15562305474E+03  0.16882525719E+03  0.00000000000E+00 0. -1.
         22    1    3    3    0    0  0.38269397473E+02  0.44366154520E+02  0.10270891334E+03  0.11824560596E+03  0.00000000000E+00 0. -1.
</event>
<event>
 7    1  0.6294601E-006  0.1274642E+03  0.7818608E-02  0.1268254E+00
          2   -1    0    0  502    0  0.00000000000E+00  0.00000000000E+00  0.98467028065E+03  0.98467028065E+03  0.00000000000E+00 0. -1.
          1   -1    0    0  501    0 -0.00000000000E+00 -0.00000000000E+00 -0.13833932794E+04  0.13833932794E+04  0.00000000000E+00 0. -1.
         25    2    1    2    0    0 -0.11911287471E+03 -0.14993997198E+03  0.74264234723E+02  0.24044889915E+03  0.12502249567E+03 0.  0.
          2    1    1    2  501    0  0.35830136270E+02  0.12129465550E+03 -0.12948672302E+04  0.13010293371E+04  0.00000000000E+00 0. -1.
          1    1    1    2  502    0  0.83282738442E+02  0.28645316488E+02  0.82187999668E+03  0.82658532386E+03  0.00000000000E+00 0. -1.
         22    1    3    3    0    0 -0.48996336526E+02 -0.64361872849E+02 -0.32054991623E+02  0.87009276273E+02  0.00000000000E+00 0. -1.
         22    1    3    3    0    0 -0.70116538186E+02 -0.85578099136E+02  0.10631922635E+03  0.15343962288E+03  0.00000000000E+00 0. -1.
</event>
<event>
 7    1  0.6294601E-006  0.1378154E+03  0.7818608E-02  0.1249020E+00
          2   -1    0    0  502    0  0.00000000000E+00  0.00000000000E+00  0.99359725637E+03  0.99359725637E+03  0.00000000000E+00 0. -1.
          1   -1    0    0  501    0 -0.00000000000E+00 -0.00000000000E+00 -0.78300971403E+03  0.78300971403E+03  0.00000000000E+00 0. -1.
         25    2    1    2    0    0  0.21248636453E+03  0.81019680493E+02 -0.39809196013E+02  0.26253457936E+03  0.12499995813E+03 0.  0.
          2    1    1    2  501    0 -0.11537558799E+03 -0.64855439828E+02 -0.62210783671E+03  0.63603137884E+03  0.00000000000E+00 0. -1.
          1    1    1    2  502    0 -0.97110776536E+02 -0.16164240666E+02  0.87250457507E+03  0.87804101220E+03  0.00000000000E+00 0. -1.
         22    1    3    3    0    0  0.19940862116E+03  0.72221323905E+02 -0.74211584194E+02  0.22469329551E+03  0.00000000000E+00 0.  1.
         22    1    3    3    0    0  0.13077743369E+02  0.87983565880E+01  0.34402388181E+02  0.37841283842E+02  0.00000000000E+00 0.  1.
</event>
<event>
 7    1  0.6294601E-006  0.3742885E+02  0.7818608E-02  0.1533303E+00
          2   -1    0    0  502    0  0.00000000000E+00  0.00000000000E+00  0.12010497242E+04  0.12010497242E+04  0.00000000000E+00 0. -1.
          1   -1    0    0  501    0 -0.00000000000E+00 -0.00000000000E+00 -0.17866870231E+04  0.17866870231E+04  0.00000000000E+00 0. -1.
         25    2    1    2    0    0  0.30856658664E+02 -0.48789036004E+02 -0.18835521227E+03  0.23333648738E+03  0.12504290037E+03 0.  0.
          2    1    1    2  501    0  0.42696144905E+01  0.35897917886E+02 -0.15753367694E+04  0.15757515118E+04  0.00000000000E+00 0. -1.
          1    1    1    2  502    0 -0.35126273154E+02  0.12891118118E+02  0.11780546827E+04  0.11786487481E+04  0.00000000000E+00 0. -1.
         22    1    3    3    0    0  0.12135743882E+02  0.40990218312E+02 -0.85097895958E+02  0.95231959832E+02  0.00000000000E+00 0.  1.
         22    1    3    3    0    0  0.18720914782E+02 -0.89779254316E+02 -0.10325731631E+03  0.13810452754E+03  0.00000000000E+00 0.  1.
</event>
<event>
 7    1  0.6294601E-006  0.5802062E+02  0.7818608E-02  0.1499018E+00
          2   -1    0    0  502    0  0.00000000000E+00  0.00000000000E+00  0.16018740177E+02  0.16018740177E+02  0.00000000000E+00 0. -1.
          1   -1    0    0  501    0 -0.00000000000E+00 -0.00000000000E+00 -0.22533932240E+04  0.22533932240E+04  0.00000000000E+00 0. -1.
         25    2    1    2    0    0  0.39022380139E+02 -0.11205773412E+02 -0.15252517242E+04  0.15309035833E+04  0.12499857486E+03 0.  0.
          2    1    1    2  501    0 -0.68131510172E+02  0.73336963577E+01 -0.70495904692E+03  0.70828168381E+03  0.00000000000E+00 0. -1.
          1    1    1    2  502    0  0.29109130033E+02  0.38720770542E+01 -0.71637126321E+01  0.30226696986E+02  0.00000000000E+00 0. -1.
         22    1    3    3    0    0  0.15555752200E+02 -0.61435961498E+02 -0.47766468524E+03  0.48185050620E+03  0.00000000000E+00 0.  1.
         22    1    3    3    0    0  0.23466627938E+02  0.50230188086E+02 -0.10475870390E+04  0.10490530771E+04  0.00000000000E+00 0.  1.
</event>
<event>
 7    1  0.6294601E-006  0.4838897E+02  0.7818608E-02  0.1464029E+00
          2   -1    0    0  502    0  0.00000000000E+00  0.00000000000E+00  0.63938731683E+03  0.63938731683E+03  0.00000000000E+00 0. -1.
          1   -1    0    0  501    0 -0.00000000000E+00 -0.00000000000E+00 -0.13856233238E+04  0.13856233238E+04  0.00000000000E+00 0. -1.
         25    2    1    2    0    0  0.23719280301E+02  0.57258947390E+02  0.20034205823E+03  0.24413595141E+03  0.12499692461E+03 0.  0.
          2    1    1    2  501    0  0.21602795172E+02 -0.39544386557E+02 -0.13619334004E+04  0.13626786219E+04  0.00000000000E+00 0. -1.
          1    1    1    2  502    0 -0.45322075473E+02 -0.17714560833E+02  0.41535533526E+03  0.41819606732E+03  0.00000000000E+00 0. -1.
         22    1    3    3    0    0  0.41078870701E+02 -0.54265139604E+01  0.16497250644E+03  0.17009658595E+03  0.00000000000E+00 0. -1.
         22    1    3    3    0    0 -0.17359590400E+02  0.62685461351E+02  0.35369551788E+02  0.74039365457E+02  0.00000000000E+00 0. -1.
</event>
<event>
 7    1  0.6294601E-006  0.3045201E+03  0.7818608E-02  0.1240829E+00
          2   -1    0    0  502    0  0.00000000000E+00  0.00000000000E+00  0.52558573957E+03  0.52558573957E+03  0.00000000000E+00 0. -1.
          1   -1    0    0  501    0 -0.00000000000E+00 -0.00000000000E+00 -0.21498750824E+04  0.21498750824E+04  0.00000000000E+00 0. -1.
         25    2    1    2    0    0 -0.14801322514E+03  0.22835486888E+03 -0.10012237716E+04  0.10450496664E+04  0.12500361373E+03 0.  0.
          2    1    1    2  501    0  0.13348398843E+02  0.46507970696E+02 -0.10796459169E+04  0.10807296040E+04  0.00000000000E+00 0. -1.
          1    1    1    2  502    0  0.13466482630E+03 -0.27486283958E+03  0.45658034571E+03  0.54968155154E+03  0.00000000000E+00 0. -1.
         22    1    3    3    0    0 -0.14487432698E+03  0.21366495092E+03 -0.74635500830E+03  0.78973861516E+03  0.00000000000E+00 0.  1.
         22    1    3    3    0    0 -0.31388981563E+01  0.14689917969E+02 -0.25486876331E+03  0.25531105123E+03  0.00000000000E+00 0.  1.
</event>
<event>
 7    1  0.6294601E-006  0.5137174E+02  0.7818608E-02  0.1553688E+00
          2   -1    0    0  502    0  0.00000000000E+00  0.00000000000E+00  0.48887041934E+03  0.48887041934E+03  0.00000000000E+00 0. -1.
          1   -1    0    0  501    0 -0.00000000000E+00 -0.00000000000E+00 -0.14475119179E+04  0.14475119179E+04  0.00000000000E+00 0. -1.
         25    2    1    2    0    0  0.36136136194E+02 -0.50063996200E+02 -0.11967865259E+04  0.12048796593E+04  0.12499912265E+03 0.  0.
          2    1    1    2  501    0  0.69002061551E+01  0.22024708934E+02 -0.24477397304E+03  0.24585971311E+03  0.00000000000E+00 0. -1.
          1    1    1    2  502    0 -0.43036342349E+02  0.28039287266E+02  0.48291900039E+03  0.48564296487E+03  0.00000000000E+00 0. -1.
         22    1    3    3    0    0  0.71354405637E+02 -0.44394664763E+02 -0.48702596359E+03  0.49422325590E+03  0.00000000000E+00 0.  1.
         22    1    3    3    0    0 -0.35218269443E+02 -0.56693314371E+01 -0.70976056231E+03  0.71065640335E+03  0.00000000000E+00 0.  1.
</event>
<event>
 7    1  0.6294601E-006  0.3881521E+02  0.7818608E-02  0.1530512E+00
          2   -1    0    0  502    0  0.00000000000E+00  0.00000000000E+00  0.45463863977E+02  0.45463863977E+02  0.00000000000E+00 0. -1.
          1   -1    0    0  501    0 -0.00000000000E+00 -0.00000000000E+00 -0.77897287477E+03  0.77897287477E+03  0.00000000000E+00 0. -1.
         25    2    1    2    0    0  0.67978721772E+01  0.68911822431E+01 -0.11510927138E+03  0.17020036728E+03  0.12499728479E+03 0.  0.
          2    1    1    2  501    0  0.15218210821E+02  0.32079068079E+02 -0.60701424026E+03  0.60805176460E+03  0.00000000000E+00 0. -1.
          1    1    1    2  502    0 -0.22016082998E+02 -0.38970250322E+02 -0.11385499150E+02  0.46184606869E+02  0.00000000000E+00 0. -1.
         22    1    3    3    0    0 -0.29562765060E+02 -0.49343928414E+02 -0.43194509569E+02  0.71934317306E+02  0.00000000000E+00 0. -1.
         22    1    3    3    0    0  0.36360637237E+02  0.56235110657E+02 -0.71914761808E+02  0.98266049970E+02  0.00000000000E+00 0. -1.
</event>
<event>
 7    1  0.6294601E-006  0.4223010E+02  0.7818608E-02  0.1534713E+00
          2   -1    0    0  502    0  0.00000000000E+00  0.00000000000E+00  0.19229099565E+03  0.19229099565E+03  0.00000000000E+00 0. -1.
          1   -1    0    0  501    0 -0.00000000000E+00 -0.00000000000E+00 -0.66144552061E+03  0.66144552061E+03  0.00000000000E+00 0. -1.
         25    2    1    2    0    0 -0.12726467479E+02  0.25474200488E+02 -0.34171087292E+02  0.13268511255E+03  0.12500711188E+03 0.  0.
          2    1    1    2  501    0 -0.28710296712E+02 -0.13546557794E+02 -0.57431936941E+03  0.57519607826E+03  0.00000000000E+00 0. -1.
          1    1    1    2  502    0  0.41436764190E+02 -0.11927642694E+02  0.13933593174E+03  0.14585532545E+03  0.00000000000E+00 0. -1.
         22    1    3    3    0    0 -0.64927356047E+02  0.25078365605E+01  0.22551629755E+01  0.65014894966E+02  0.00000000000E+00 0. -1.
         22    1    3    3    0    0  0.52200888568E+02  0.22966363928E+02 -0.36426250267E+02  0.67670217584E+02  0.00000000000E+00 0. -1.
</event>
<event>
 7    1  0.6294601E-006  0.9731706E+02  0.7818608E-02  0.1315444E+00
          2   -1    0    0  502    0  0.00000000000E+00  0.00000000000E+00  0.15703460708E+04  0.15703460708E+04  0.00000000000E+00 0. -1.
          1   -1    0    0  501    0 -0.00000000000E+00 -0.00000000000E+00 -0.46302005856E+03  0.46302005856E+03  0.00000000000E+00 0. -1.
         25    2    1    2    0    0 -0.35500136517E+02  0.14603877506E+02  0.65898505139E+02  0.14642593322E+03  0.12499763202E+03 0.  0.
          2    1    1    2  501    0  0.51302019611E+02 -0.87136569349E+02 -0.41575153807E+03  0.42787149980E+03  0.00000000000E+00 0. -1.
          1    1    1    2  502    0 -0.15801883094E+02  0.72532691843E+02  0.14571790451E+04  0.14590686963E+04  0.00000000000E+00 0. -1.
         22    1    3    3    0    0 -0.42445001738E+02  0.56179739617E+02  0.27038484631E+01  0.70463125906E+02  0.00000000000E+00 0.  1.
         22    1    3    3    0    0  0.69448652215E+01 -0.41575862111E+02  0.63194656676E+02  0.75962807317E+02  0.00000000000E+00 0.  1.
</event>
<event>
 7    1  0.6294601E-006  0.7855895E+02  0.7818608E-02  0.1390469E+00
          2   -1    0    0  502    0  0.00000000000E+00  0.00000000000E+00  0.35469597949E+03  0.35469597949E+03  0.00000000000E+00 0. -1.
          1   -1    0    0  501    0 -0.00000000000E+00 -0.00000000000E+00 -0.38221854769E+03  0.38221854769E+03  0.00000000000E+00 0. -1.
         25    2    1    2    0    0 -0.32860406961E+01 -0.66928848780E+02  0.86189815522E+02  0.16595777059E+03  0.12499211358E+03 0.  0.
          2    1    1    2  501    0 -0.45287942211E+02  0.65318610433E+02 -0.33504869889E+03  0.34434742515E+03  0.00000000000E+00 0. -1.
          1    1    1    2  502    0  0.48573982907E+02  0.16102383469E+01  0.22133631517E+03  0.22660933144E+03  0.00000000000E+00 0. -1.
         22    1    3    3    0    0  0.44421070140E+02  0.15107454131E+02  0.28098471223E+02  0.54689950885E+02  0.00000000000E+00 0.  1.
         22    1    3    3    0    0 -0.47707110836E+02 -0.82036302911E+02  0.58091344299E+02  0.11126781971E+03  0.00000000000E+00 0.  1.
</event>
<event>
 7    1  0.6294601E-006  0.2730314E+03  0.7818608E-02  0.1126039E+00
          2   -1    0    0  502    0  0.00000000000E+00  0.00000000000E+00  0.17418865909E+04  0.17418865909E+04  0.00000000000E+00 0. -1.
          1   -1    0    0  501    0 -0.00000000000E+00 -0.00000000000E+00 -0.55866146510E+03  0.55866146510E+03  0.00000000000E+00 0. -1.
         25    2    1    2    0    0  0.90357482906E+02  0.10905111603E+03  0.11437984416E+03  0.22082418549E+03  0.12499580602E+03 0.  0.
          2    1    1    2  501    0 -0.83540756576E+02 -0.30412685131E+03 -0.44937434837E+03  0.54900774555E+03  0.00000000000E+00 0. -1.
          1    1    1    2  502    0 -0.68167263300E+01  0.19507573528E+03  0.15182196300E+04  0.15307161250E+04  0.00000000000E+00 0. -1.
         22    1    3    3    0    0  0.11422680784E+03  0.57439375260E+02  0.99597780782E+02  0.16207024217E+03  0.00000000000E+00 0.  1.
         22    1    3    3    0    0 -0.23869324934E+02  0.51611740771E+02  0.14782063383E+02  0.58753943324E+02  0.00000000000E+00 0.  1.
</event>
<event>
 7    1  0.6294601E-006  0.1375486E+03  0.7818608E-02  0.1402543E+00
          2   -1    0    0  502    0  0.00000000000E+00  0.00000000000E+00  0.13901110486E+04  0.13901110486E+04  0.00000000000E+00 0. -1.
          1   -1    0    0  501    0 -0.00000000000E+00 -0.00000000000E+00 -0.26230552837E+03  0.26230552837E+03  0.00000000000E+00 0. -1.
         25    2    1    2    0    0 -0.10178371697E+03 -0.91810554484E+02  0.21431977740E+02  0.18674586116E+03  0.12500233613E+03 0.  0.
          2    1    1    2  501    0  0.83987962523E+02  0.10967344788E+03 -0.15294876019E+03  0.20609601224E+03  0.00000000000E+00 0. -1.
          1    1    1    2  502    0  0.17795754444E+02 -0.17862893394E+02  0.12593223027E+04  0.12595747036E+04  0.00000000000E+00 0. -1.
         22    1    3    3    0    0 -0.72153877642E+02  0.15139079989E+02  0.41242521878E-01  0.73724999170E+02  0.00000000000E+00 0.  1.
         22    1    3    3    0    0 -0.29629839325E+02 -0.10694963447E+03  0.21390735218E+02  0.11302086199E+03  0.00000000000E+00 0.  1.
</event>
<event>
 7    1  0.6294601E-006  0.9466083E+02  0.7818608E-02  0.1389961E+00
          2   -1    0    0  502    0  0.00000000000E+00  0.00000000000E+00  0.32732608414E+04  0.32732608414E+04  0.00000000000E+00 0. -1.
          1   -1    0    0  501    0 -0.00000000000E+00 -0.00000000000E+00 -0.74614481407E+02  0.74614481407E+02  0.00000000000E+00 0. -1.
         25    2    1    2    0    0  0.63185884117E+02  0.20853121516E+02  0.15468325656E+04  0.15533009739E+04  0.12500248331E+03 0.  0.
          2    1    1    2  501    0 -0.95247302312E+02  0.38898959860E+01 -0.39202715107E+02  0.10307294873E+03  0.00000000000E+00 0. -1.
          1    1    1    2  502    0  0.32061418195E+02 -0.24743017502E+02  0.16910165095E+04  0.16915014002E+04  0.00000000000E+00 0. -1.
         22    1    3    3    0    0  0.16669051934E+02 -0.51628709190E+02  0.50129953853E+03  0.50422674288E+03  0.00000000000E+00 0. -1.
         22    1    3    3    0    0  0.46516832183E+02  0.72481830706E+02  0.10455330270E+04  0.10490742310E+04  0.00000000000E+00 0. -1.
</event>
<event>
 7    1  0.6294601E-006  0.5518562E+02  0.7818608E-02  0.1448382E+00
          2   -1    0    0  502    0  0.00000000000E+00  0.00000000000E+00  0.67536798947E+02  0.67536798947E+02  0.00000000000E+00 0. -1.
          1   -1    0    0  501    0 -0.00000000000E+00 -0.00000000000E+00 -0.14984176653E+04  0.14984176653E+04  0.00000000000E+00 0. -1.
         25    2    1    2    0    0  0.12648031764E+02  0.59319097287E+01 -0.70842648245E+02  0.14435653800E+03  0.12499987597E+03 0.  0.
          2    1    1    2  501    0 -0.55655029157E+02  0.46671880764E+01 -0.13740162566E+04  0.13751508784E+04  0.00000000000E+00 0. -1.
          1    1    1    2  502    0  0.43006997393E+02 -0.10599097805E+02  0.13978038462E+02  0.46447047896E+02  0.00000000000E+00 0. -1.
         22    1    3    3    0    0  0.49239033106E+02  0.31226853454E+02  0.27430286214E+01  0.58370565903E+02  0.00000000000E+00 0.  1.
         22    1    3    3    0    0 -0.36591001342E+02 -0.25294943725E+02 -0.73585676867E+02  0.85985972096E+02  0.00000000000E+00 0.  1.
</event>
<event>
 7    1  0.6294601E-006  0.4875980E+02  0.7818608E-02  0.1479263E+00
          2   -1    0    0  502    0  0.00000000000E+00  0.00000000000E+00  0.17082459110E+04  0.17082459110E+04  0.00000000000E+00 0. -1.
          1   -1    0    0  501    0 -0.00000000000E+00 -0.00000000000E+00 -0.17195047767E+03  0.17195047767E+03  0.00000000000E+00 0. -1.
         25    2    1    2    0    0  0.28256575574E+02  0.68611909108E+01  0.58858629065E+03  0.60241512660E+03  0.12499861285E+03 0.  0.
          2    1    1    2  501    0 -0.63884992894E+01  0.39592899730E+02 -0.16199723438E+03  0.16688773046E+03  0.00000000000E+00 0. -1.
          1    1    1    2  502    0 -0.21868076284E+02 -0.46454090640E+02  0.11097063771E+04  0.11108935316E+04  0.00000000000E+00 0. -1.
         22    1    3    3    0    0 -0.26163330783E+02 -0.29177396085E+02  0.41693691646E+03  0.41877468003E+03  0.00000000000E+00 0.  1.
         22    1    3    3    0    0  0.54419906356E+02  0.36038586996E+02  0.17164937419E+03  0.18364044658E+03  0.00000000000E+00 0.  1.
</event>
<event>
 7    1  0.6294601E-006  0.4427657E+02  0.7818608E-02  0.1587216E+00
          2   -1    0    0  502    0  0.00000000000E+00  0.00000000000E+00  0.12640931950E+03  0.12640931950E+03  0.00000000000E+00 0. -1.
          1   -1    0    0  501    0 -0.00000000000E+00 -0.00000000000E+00 -0.12204055350E+04  0.12204055350E+04  0.00000000000E+00 0. -1.
         25    2    1    2    0    0  0.20466406814E+02 -0.30804677986E+02 -0.20723292606E+03  0.24482263907E+03  0.12499934785E+03 0.  0.
          2    1    1    2  501    0 -0.39590273903E+02  0.20519130778E+02 -0.99277678416E+03  0.99377772549E+03  0.00000000000E+00 0. -1.
          1    1    1    2  502    0  0.19123867089E+02  0.10285547208E+02  0.10601349471E+03  0.10821448994E+03  0.00000000000E+00 0. -1.
         22    1    3    3    0    0 -0.24918657160E+02 -0.63818735686E+02 -0.14873956619E+03  0.16375966856E+03  0.00000000000E+00 0.  1.
         22    1    3    3    0    0  0.45385063974E+02  0.33014057700E+02 -0.58493359873E+02  0.81062970504E+02  0.00000000000E+00 0.  1.
</event>
<event>
 7    1  0.6294601E-006  0.1034184E+03  0.7818608E-02  0.1334388E+00
          2   -1    0    0  502    0  0.00000000000E+00  0.00000000000E+00  0.39306047804E+03  0.39306047804E+03  0.00000000000E+00 0. -1.
          1   -1    0    0  501    0 -0.00000000000E+00 -0.00000000000E+00 -0.11856215344E+04  0.11856215344E+04  0.00000000000E+00 0. -1.
         25    2    1    2    0    0  0.15614218715E+02 -0.95520305350E+02 -0.42126769896E+03  0.44995507602E+03  0.12500065475E+03 0.  0.
          2    1    1    2  501    0 -0.72784520620E+02  0.80724041798E+02 -0.74373359866E+03  0.75163396886E+03  0.00000000000E+00 0. -1.
          1    1    1    2  502    0  0.57170301905E+02  0.14796263552E+02  0.37244024129E+03  0.37709296754E+03  0.00000000000E+00 0. -1.
         22    1    3    3    0    0  0.68155866379E+02 -0.75464832263E+02 -0.28100195268E+03  0.29883483807E+03  0.00000000000E+00 0.  1.
         22    1    3    3    0    0 -0.52541647664E+02 -0.20055473087E+02 -0.14026574627E+03  0.15112023795E+03  0.00000000000E+00 0.  1.
</event>
<event>
 7    1  0.6294601E-006  0.7148591E+02  0.7818608E-02  0.1375649E+00
          2   -1    0    0  502    0  0.00000000000E+00  0.00000000000E+00  0.20603128709E+04  0.20603128709E+04  0.00000000000E+00 0. -1.
          1   -1    0    0  501    0 -0.00000000000E+00 -0.00000000000E+00 -0.39805724279E+02  0.39805724279E+02  0.00000000000E+00 0. -1.
         25    2    1    2    0    0  0.59378669290E+01 -0.13853331631E+02  0.22694369977E+03  0.25952725332E+03  0.12499511706E+03 0.  0.
          2    1    1    2  501    0 -0.73396722445E+02 -0.98012290682E+01  0.37370247834E+02  0.82943826655E+02  0.00000000000E+00 0. -1.
          1    1    1    2  502    0  0.67458855516E+02  0.23654560699E+02  0.17561931990E+04  0.17576475152E+04  0.00000000000E+00 0. -1.
         22    1    3    3    0    0  0.19608364301E+02 -0.34009982426E+02  0.90639252617E+01  0.40290465328E+02  0.00000000000E+00 0.  1.
         22    1    3    3    0    0 -0.13670497372E+02  0.20156650795E+02  0.21787977451E+03  0.21923678799E+03  0.00000000000E+00 0.  1.
</event>
<event>
 7    1  0.6294601E-006  0.1100121E+03  0.7818608E-02  0.1310333E+00
          2   -1    0    0  502    0  0.00000000000E+00  0.00000000000E+00  0.15953998186E+04  0.15953998186E+04  0.00000000000E+00 0. -1.
          1   -1    0    0  501    0 -0.00000000000E+00 -0.00000000000E+00 -0.29098243588E+02  0.29098243588E+02  0.00000000000E+00 0. -1.
         25    2    1    2    0    0  0.12517698529E+03 -0.10188270123E+03  0.73214700659E+03  0.76007401663E+03  0.12499563614E+03 0.  0.
          2    1    1    2  501    0 -0.87728347427E+02  0.44202518295E+02  0.16711889251E+03  0.19385264971E+03  0.00000000000E+00 0. -1.
          1    1    1    2  502    0 -0.37448637860E+02  0.57680182930E+02  0.66703567587E+03  0.67057139579E+03  0.00000000000E+00 0. -1.
         22    1    3    3    0    0  0.47859199993E+02 -0.11603191050E+03  0.44452170563E+03  0.46190199615E+03  0.00000000000E+00 0.  1.
         22    1    3    3    0    0  0.77317785294E+02  0.14149209270E+02  0.28762530096E+03  0.29817202048E+03  0.00000000000E+00 0.  1.
</event>
<event>
 7    1  0.6294601E-006  0.7278273E+02  0.7818608E-02  0.1383872E+00
          2   -1    0    0  502    0  0.00000000000E+00  0.00000000000E+00  0.13126558635E+04  0.13126558635E+04  0.00000000000E+00 0. -1.
          1   -1    0    0  501    0 -0.00000000000E+00 -0.00000000000E+00 -0.40424266315E+02  0.40424266315E+02  0.00000000000E+00 0. -1.
         25    2    1    2    0    0 -0.26992623811E+02 -0.10399448994E+02  0.36527308479E+03  0.38715211884E+03  0.12500234546E+03 0.  0.
          2    1    1    2  501    0 -0.53150397236E+02  0.15362160330E+02 -0.96298117951E-01  0.55326033381E+02  0.00000000000E+00 0. -1.
          1    1    1    2  502    0  0.80143021047E+02 -0.49627113360E+01  0.90705481051E+03  0.91060197759E+03  0.00000000000E+00 0. -1.
         22    1    3    3    0    0  0.30255432066E+02  0.39122491365E+02  0.18795939360E+03  0.19435713041E+03  0.00000000000E+00 0. -1.
         22    1    3    3    0    0 -0.57248055877E+02 -0.49521940358E+02  0.17731369120E+03  0.19279498843E+03  0.00000000000E+00 0. -1.
</event>
<event>
 7    1  0.6294601E-006  0.2265362E+03  0.7818608E-02  0.1177980E+00
          2   -1    0    0  502    0  0.00000000000E+00  0.00000000000E+00  0.90128269509E+03  0.90128269509E+03  0.00000000000E+00 0. -1.
          1   -1    0    0  501    0 -0.00000000000E+00 -0.00000000000E+00 -0.12149072454E+04  0.12149072454E+04  0.00000000000E+00 0. -1.
         25    2    1    2    0    0  0.97035166938E+02  0.16692486962E+03  0.27462889036E+03  0.35822440821E+03  0.12499585394E+03 0.  0.
          2    1    1    2  501    0  0.12396357203E+03 -0.29320689547E+02 -0.11404156438E+04  0.11475079567E+04  0.00000000000E+00 0. -1.
          1    1    1    2  502    0 -0.22099873896E+03 -0.13760418007E+03  0.55216220315E+03  0.61045757558E+03  0.00000000000E+00 0. -1.
         22    1    3    3    0    0  0.77670622199E+02  0.16852852148E+03  0.28188624367E+03  0.33748250692E+03  0.00000000000E+00 0.  1.
         22    1    3    3    0    0  0.19364544739E+02 -0.16036518652E+01 -0.72573533117E+01  0.20741901295E+02  0.00000000000E+00 0.  1.
</event>
<event>
 7    1  0.6294601E-006  0.3739617E+02  0.7818608E-02  0.1536200E+00
          2   -1    0    0  502    0  0.00000000000E+00  0.00000000000E+00  0.38606474441E+03  0.38606474441E+03  0.00000000000E+00 0. -1.
          1   -1    0    0  501    0 -0.00000000000E+00 -0.00000000000E+00 -0.31811884005E+03  0.31811884005E+03  0.00000000000E+00 0. -1.
         25    2    1    2    0    0 -0.13122357048E+02 -0.21868038987E+01  0.18589856437E+02  0.12707429219E+03  0.12500125842E+03 0.  0.
          2    1    1    2  501    0 -0.63443296995E+01  0.34930518662E+02 -0.26151460838E+03  0.26391339877E+03  0.00000000000E+00 0. -1.
          1    1    1    2  502    0  0.19466686748E+02 -0.32743714764E+02  0.31087065631E+03  0.31319589350E+03  0.00000000000E+00 0. -1.
         22    1    3    3    0    0  0.61652715347E+01  0.25242773482E+02  0.64894404605E+02  0.69903447234E+02  0.00000000000E+00 0.  1.
         22    1    3    3    0    0 -0.19287628583E+02 -0.27429577381E+02 -0.46304548168E+02  0.57170844953E+02  0.00000000000E+00 0.  1.
</event>
<event>
 7    1  0.6294601E-006  0.4130829E+02  0.7818608E-02  0.1600961E+00
          2   -1    0    0  502    0  0.00000000000E+00  0.00000000000E+00  0.12775947620E+04  0.12775947620E+04  0.00000000000E+00 0. -1.
          1   -1    0    0  501    0 -0.00000000000E+00 -0.00000000000E+00 -0.70566616855E+02  0.70566616855E+02  0.00000000000E+00 0. -1.
         25    2    1    2    0    0  0.18678290107E+02 -0.98601580742E+01  0.21730962274E+03  0.25158409011E+03  0.12499992410E+03 0.  0.
          2    1    1    2  501    0  0.21269129495E+02 -0.24856900067E+01 -0.50846932723E+02  0.55172140539E+02  0.00000000000E+00 0. -1.
          1    1    1    2  502    0 -0.39947419602E+02  0.12345848081E+02  0.10405654551E+04  0.10414051482E+04  0.00000000000E+00 0. -1.
         22    1    3    3    0    0  0.14081784966E+01  0.10799781165E+02 -0.14545170595E+02  0.18170862046E+02  0.00000000000E+00 0. -1.
         22    1    3    3    0    0  0.17270111610E+02 -0.20659939239E+02  0.23185479333E+03  0.23341322806E+03  0.00000000000E+00 0. -1.
</event>
<event>
 7    1  0.6294601E-006  0.6922214E+02  0.7818608E-02  0.1395366E+00
          2   -1    0    0  502    0  0.00000000000E+00  0.00000000000E+00  0.27417082185E+03  0.27417082185E+03  0.00000000000E+00 0. -1.
          1   -1    0    0  501    0 -0.00000000000E+00 -0.00000000000E+00 -0.17349204441E+03  0.17349204441E+03  0.00000000000E+00 0. -1.
         25    2    1    2    0    0  0.44766170407E+02  0.29516313434E+02  0.40177488322E+02  0.14182309367E+03  0.12499734620E+03 0.  0.
          2    1    1    2  501    0 -0.12903759445E+02 -0.71915454195E+02 -0.10732387539E+03  0.12983356187E+03  0.00000000000E+00 0. -1.
          1    1    1    2  502    0 -0.31862410961E+02  0.42399140761E+02  0.16782516451E+03  0.17600621072E+03  0.00000000000E+00 0. -1.
         22    1    3    3    0    0 -0.22821127506E+02 -0.35267478434E+02  0.75575154708E+01  0.42681552641E+02  0.00000000000E+00 0.  1.
         22    1    3    3    0    0  0.67587297913E+02  0.64783791869E+02  0.32619972852E+02  0.99141541025E+02  0.00000000000E+00 0.  1.
</event>
<event>
 7    1  0.6294601E-006  0.8869853E+02  0.7818608E-02  0.1335022E+00
          2   -1    0    0  502    0  0.00000000000E+00  0.00000000000E+00  0.20223307993E+04  0.20223307993E+04  0.00000000000E+00 0. -1.
          1   -1    0    0  501    0 -0.00000000000E+00 -0.00000000000E+00 -0.39129816659E+04  0.39129816659E+04  0.00000000000E+00 0. -1.
         25    2    1    2    0    0  0.71090769893E+02 -0.12480421289E+03 -0.27756920562E+04  0.27822151126E+04  0.12499821090E+03 0.  0.
          2    1    1    2  501    0 -0.57508741782E+02  0.37167877365E+02 -0.11320192635E+04  0.11340883208E+04  0.00000000000E+00 0. -1.
          1    1    1    2  502    0 -0.13582028112E+02  0.87636335524E+02  0.20170604531E+04  0.20190090317E+04  0.00000000000E+00 0. -1.
         22    1    3    3    0    0  0.45581266259E+02 -0.11063374981E+03 -0.11399277302E+04  0.11461905201E+04  0.00000000000E+00 0.  1.
         22    1    3    3    0    0  0.25509503634E+02 -0.14170463083E+02 -0.16357643260E+04  0.16360245925E+04  0.00000000000E+00 0.  1.
</event>
<event>
 7    1  0.6294601E-006  0.3260871E+03  0.7818608E-02  0.1265920E+00
          2   -1    0    0  502    0  0.00000000000E+00  0.00000000000E+00  0.16164490099E+04  0.16164490099E+04  0.00000000000E+00 0. -1.
          1   -1    0    0  501    0 -0.00000000000E+00 -0.00000000000E+00 -0.15227303761E+04  0.15227303761E+04  0.00000000000E+00 0. -1.
         25    2    1    2    0    0  0.32976576002E+03  0.12130698272E+03 -0.19389371385E+02  0.37344931765E+03  0.12501041793E+03 0.  0.
          2    1    1    2  501    0 -0.30991161191E+03 -0.92221625888E+02 -0.13063824835E+04  0.13458028194E+04  0.00000000000E+00 0. -1.
          1    1    1    2  502    0 -0.19854148105E+02 -0.29085356832E+02  0.14194904886E+04  0.14199272490E+04  0.00000000000E+00 0. -1.
         22    1    3    3    0    0  0.14423314638E+03  0.71795807712E+01 -0.51398274640E+02  0.15328577733E+03  0.00000000000E+00 0.  1.
         22    1    3    3    0    0  0.18553261364E+03  0.11412740195E+03  0.32008903255E+02  0.22016354032E+03  0.00000000000E+00 0.  1.
</event>
<event>
 7    1  0.6294601E-006  0.4803754E+02  0.7818608E-02  0.1494335E+00
          2   -1    0    0  502    0  0.00000000000E+00  0.00000000000E+00  0.19131538495E+02  0.19131538495E+02  0.00000000000E+00 0. -1.
          1   -1    0    0  501    0 -0.00000000000E+00 -0.00000000000E+00 -0.26028532508E+04  0.26028532508E+04  0.00000000000E+00 0. -1.
         25    2    1    2    0    0  0.21035299788E+02 -0.43584226359E+02 -0.21772654216E+04  0.21813876013E+04  0.12500033064E+03 0.  0.
          2    1    1    2  501    0 -0.49719287464E+02  0.20797512361E+02 -0.39973571635E+03  0.40335243522E+03  0.00000000000E+00 0. -1.
          1    1    1    2  502    0  0.28683987676E+02  0.22786713998E+02 -0.67205743274E+01  0.37244752693E+02  0.00000000000E+00 0. -1.
         22    1    3    3    0    0 -0.31295198021E+02 -0.58273659576E+02 -0.69883037918E+03  0.70195377888E+03  0.00000000000E+00 0.  1.
         22    1    3    3    0    0  0.52330497808E+02  0.14689433217E+02 -0.14784350424E+04  0.14794338225E+04  0.00000000000E+00 0.  1.
</event>
<event>
 7    1  0.6294601E-006  0.8649644E+02  0.7818608E-02  0.1344901E+00
          2   -1    0    0  502    0  0.00000000000E+00  0.00000000000E+00  0.53493726149E+02  0.53493726149E+02  0.00000000000E+00 0. -1.
          1   -1    0    0  501    0 -0.00000000000E+00 -0.00000000000E+00 -0.12629292466E+04  0.12629292466E+04  0.00000000000E+00 0. -1.
         25    2    1    2    0    0 -0.64959309671E+02 -0.53629244446E+01 -0.20504540647E+03  0.24883165949E+03  0.12500041272E+03 0.  0.
          2    1    1    2  501    0  0.57604185258E+02  0.69399675858E+02 -0.99883045061E+03  0.10028942248E+04  0.00000000000E+00 0. -1.
          1    1    1    2  502    0  0.73551244131E+01 -0.64036751413E+02 -0.55596633290E+01  0.64697088366E+02  0.00000000000E+00 0. -1.
         22    1    3    3    0    0  0.21272107839E+02  0.11158384039E+01  0.48275968658E+01  0.21841551198E+02  0.00000000000E+00 0.  1.
         22    1    3    3    0    0 -0.86231417510E+02 -0.64787628485E+01 -0.20987300333E+03  0.22699010829E+03  0.00000000000E+00 0.  1.
</event>
<event>
 7    1  0.6294601E-006  0.4325357E+02  0.7818608E-02  0.1562575E+00
          2   -1    0    0  502    0  0.00000000000E+00  0.00000000000E+00  0.17636668261E+04  0.17636668261E+04  0.00000000000E+00 0. -1.
          1   -1    0    0  501    0 -0.00000000000E+00 -0.00000000000E+00 -0.53629855537E+03  0.53629855537E+03  0.00000000000E+00 0. -1.
         25    2    1    2    0    0  0.38609900533E+02  0.45145184384E+02  0.24390149424E+02  0.14052746467E+03  0.12499710735E+03 0.  0.
          2    1    1    2  501    0 -0.13019711622E+02 -0.41105151608E+02 -0.47715794140E+03  0.47910212630E+03  0.00000000000E+00 0. -1.
          1    1    1    2  502    0 -0.25590188911E+02 -0.40400327761E+01  0.16801360627E+04  0.16803357905E+04  0.00000000000E+00 0. -1.
         22    1    3    3    0    0  0.19066592423E+02  0.55816472983E+02 -0.40747242420E+02  0.71689269544E+02  0.00000000000E+00 0. -1.
         22    1    3    3    0    0  0.19543308110E+02 -0.10671288599E+02  0.65137391844E+02  0.68838195128E+02  0.00000000000E+00 0. -1.
</event>
<event>
 7    1  0.6294601E-006  0.2476554E+02  0.7818608E-02  0.1699596E+00
          2   -1    0    0  502    0  0.00000000000E+00  0.00000000000E+00  0.73685756169E+03  0.73685756169E+03  0.00000000000E+00 0. -1.
          1   -1    0    0  501    0 -0.00000000000E+00 -0.00000000000E+00 -0.12852962732E+04  0.12852962732E+04  0.00000000000E+00 0. -1.
         25    2    1    2    0    0  0.67159379124E+01  0.50294390596E+01 -0.17895117723E+03  0.21844737520E+03  0.12500133129E+03 0.  0.
          2    1    1    2  501    0  0.17398529810E+02 -0.10761849722E+02 -0.10862864742E+04  0.10864790979E+04  0.00000000000E+00 0. -1.
          1    1    1    2  502    0 -0.24114467722E+02  0.57324106621E+01  0.71679893994E+03  0.71722736171E+03  0.00000000000E+00 0. -1.
         22    1    3    3    0    0  0.63723386076E+02  0.10787679243E+02 -0.69507487094E+02  0.94912247464E+02  0.00000000000E+00 0.  1.
         22    1    3    3    0    0 -0.57007448164E+02 -0.57582401832E+01 -0.10944369013E+03  0.12353512774E+03  0.00000000000E+00 0.  1.
</event>
<event>
 7    1  0.6294601E-006  0.1392670E+03  0.7818608E-02  0.1381963E+00
          2   -1    0    0  502    0  0.00000000000E+00  0.00000000000E+00  0.59203666603E+03  0.59203666603E+03  0.00000000000E+00 0. -1.
          1   -1    0    0  501    0 -0.00000000000E+00 -0.00000000000E+00 -0.13875189697E+04  0.13875189697E+04  0.00000000000E+00 0. -1.
         25    2    1    2    0    0 -0.34668769225E+02  0.15340904973E+03 -0.14710020899E+03  0.24899609497E+03  0.12499729487E+03 0.  0.
          2    1    1    2  501    0  0.25126240510E+02 -0.15199184453E+02 -0.11804174354E+04  0.11807826493E+04  0.00000000000E+00 0. -1.
          1    1    1    2  502    0  0.95425287146E+01 -0.13820986527E+03  0.53203534065E+03  0.54977689149E+03  0.00000000000E+00 0. -1.
         22    1    3    3    0    0  0.16972639616E+02  0.21279013660E+02  0.16988396557E+02  0.32085394426E+02  0.00000000000E+00 0. -1.
         22    1    3    3    0    0 -0.51641408841E+02  0.13213003607E+03 -0.16408860555E+03  0.21691070054E+03  0.00000000000E+00 0. -1.
</event>
<event>
 7    1  0.6294601E-006  0.4657507E+02  0.7818608E-02  0.1547344E+00
          2   -1    0    0  502    0  0.00000000000E+00  0.00000000000E+00  0.25772055842E+03  0.25772055842E+03  0.00000000000E+00 0. -1.
          1   -1    0    0  501    0 -0.00000000000E+00 -0.00000000000E+00 -0.84617034096E+03  0.84617034096E+03  0.00000000000E+00 0. -1.
         25    2    1    2    0    0 -0.32047753862E+02  0.29656734849E+02 -0.28429497323E+03  0.31361300358E+03  0.12499161476E+03 0.  0.
          2    1    1    2  501    0 -0.14050278324E+02 -0.22486635379E+02 -0.54465229145E+03  0.54529732960E+03  0.00000000000E+00 0. -1.
          1    1    1    2  502    0  0.46098032186E+02 -0.71700994706E+01  0.24049748214E+03  0.24498056620E+03  0.00000000000E+00 0. -1.
         22    1    3    3    0    0  0.42174482853E+02  0.38419521776E+02 -0.13815596185E+03  0.14947179150E+03  0.00000000000E+00 0. -1.
         22    1    3    3    0    0 -0.74222236715E+02 -0.87627869268E+01 -0.14613901138E+03  0.16414121208E+03  0.00000000000E+00 0. -1.
</event>
<event>
 7    1  0.6294601E-006  0.1198737E+03  0.7818608E-02  0.1367595E+00
          2   -1    0    0  502    0  0.00000000000E+00  0.00000000000E+00  0.31678449288E+03  0.31678449288E+03  0.00000000000E+00 0. -1.
          1   -1    0    0  501    0 -0.00000000000E+00 -0.00000000000E+00 -0.19395110000E+04  0.19395110000E+04  0.00000000000E+00 0. -1.
         25    2    1    2    0    0 -0.98172835106E+02 -0.65243317365E+02 -0.42047288909E+03  0.45422096923E+03  0.12499856966E+03 0.  0.
          2    1    1    2  501    0 -0.17790500448E+02  0.34022390016E+02 -0.14898847288E+04  0.14903793242E+04  0.00000000000E+00 0. -1.
          1    1    1    2  502    0  0.11596333555E+03  0.31220927349E+02  0.28763111074E+03  0.31169519946E+03  0.00000000000E+00 0. -1.
         22    1    3    3    0    0 -0.32780826096E+02 -0.92755400488E+02 -0.28135171417E+03  0.29805525318E+03  0.00000000000E+00 0. -1.
         22    1    3    3    0    0 -0.65392009009E+02  0.27512083122E+02 -0.13912117492E+03  0.15616571606E+03  0.00000000000E+00 0. -1.
</event>
<event>
 7    1  0.6294601E-006  0.3574107E+02  0.7818608E-02  0.1565814E+00
          2   -1    0    0  502    0  0.00000000000E+00  0.00000000000E+00  0.17484886351E+02  0.17484886351E+02  0.00000000000E+00 0. -1.
          1   -1    0    0  501    0 -0.00000000000E+00 -0.00000000000E+00 -0.22146690506E+04  0.22146690506E+04  0.00000000000E+00 0. -1.
         25    2    1    2    0    0  0.28794156041E+02 -0.63643165961E+01 -0.25172401930E+03  0.28259314350E+03  0.12499717962E+03 0.  0.
          2    1    1    2  501    0  0.10605261893E+00 -0.30718868409E+02 -0.16577515176E+04  0.16580361137E+04  0.00000000000E+00 0. -1.
          1    1    1    2  502    0 -0.28900208660E+02  0.37083185005E+02 -0.28770862734E+03  0.29152467977E+03  0.00000000000E+00 0. -1.
         22    1    3    3    0    0 -0.27961872089E+02  0.11587902665E+02 -0.20417484139E+03  0.20640618119E+03  0.00000000000E+00 0. -1.
         22    1    3    3    0    0  0.56756028131E+02 -0.17952219261E+02 -0.47549177914E+02  0.76186962309E+02  0.00000000000E+00 0. -1.
</event>
<event>
 7    1  0.6294601E-006  0.1616926E+03  0.7818608E-02  0.1279242E+00
          2   -1    0    0  502    0  0.00000000000E+00  0.00000000000E+00  0.57706899479E+02  0.57706899479E+02  0.00000000000E+00 0. -1.
          1   -1    0    0  501    0 -0.00000000000E+00 -0.00000000000E+00 -0.25603360251E+04  0.25603360251E+04  0.00000000000E+00 0. -1.
         25    2    1    2    0    0  0.19091275672E+03 -0.42795587916E+02 -0.38528518747E+03  0.44983082136E+03  0.12499579649E+03 0.  0.
          2    1    1    2  501    0 -0.59229220358E+02 -0.19857716475E+02 -0.19290021777E+04  0.19300134277E+04  0.00000000000E+00 0. -1.
          1    1    1    2  502    0 -0.13168353636E+03  0.62653304391E+02 -0.18834176047E+03  0.23819867556E+03  0.00000000000E+00 0. -1.
         22    1    3    3    0    0  0.19447708133E+03 -0.65223869541E+02 -0.31440213626E+03  0.37539871018E+03  0.00000000000E+00 0. -1.
         22    1    3    3    0    0 -0.35643246058E+01  0.22428281625E+02 -0.70883051207E+02  0.74432111182E+02  0.00000000000E+00 0. -1.
</event>
<event>
 7    1  0.6294601E-006  0.1810503E+03  0.7818608E-02  0.1213991E+00
          2   -1    0    0  502    0  0.00000000000E+00  0.00000000000E+00  0.64100754583E+03  0.64100754583E+03  0.00000000000E+00 0. -1.
          1   -1    0    0  501    0 -0.00000000000E+00 -0.00000000000E+00 -0.11402785035E+04  0.11402785035E+04  0.00000000000E+00 0. -1.
         25    2    1    2    0    0  0.95536674673E+02 -0.52806780701E+00 -0.25670469551E+03  0.30108042166E+03  0.12499833817E+03 0.  0.
          2    1    1    2  501    0  0.72859696670E+02  0.79042125666E+02 -0.84395258766E+03  0.85077151060E+03  0.00000000000E+00 0. -1.
          1    1    1    2  502    0 -0.16839637134E+03 -0.78514057859E+02  0.60138632553E+03  0.62943411704E+03  0.00000000000E+00 0. -1.
         22    1    3    3    0    0  0.84919575856E+02  0.54413766997E+02 -0.17649905730E+03  0.20328332354E+03  0.00000000000E+00 0.  1.
         22    1    3    3    0    0  0.10617098817E+02 -0.54941834804E+02 -0.80205638213E+02  0.97797098117E+02  0.00000000000E+00 0.  1.
</event>
<event>
 7    1  0.6294601E-006  0.2120923E+03  0.7818608E-02  0.1290371E+00
          2   -1    0    0  502    0  0.00000000000E+00  0.00000000000E+00  0.48566757983E+02  0.48566757983E+02  0.00000000000E+00 0. -1.
          1   -1    0    0  501    0 -0.00000000000E+00 -0.00000000000E+00 -0.30058741900E+04  0.30058741900E+04  0.00000000000E+00 0. -1.
         25    2    1    2    0    0  0.85007442564E+02 -0.21055084958E+03 -0.60005614543E+03  0.65364472911E+03  0.12500451464E+03 0.  0.
          2    1    1    2  501    0  0.19944473884E+02  0.37952637040E+02 -0.19049942140E+04  0.19054766175E+04  0.00000000000E+00 0. -1.
          1    1    1    2  502    0 -0.10495191645E+03  0.17259821254E+03 -0.45225707265E+03  0.49531960137E+03  0.00000000000E+00 0. -1.
         22    1    3    3    0    0 -0.18345612789E+02 -0.98371214587E+02 -0.16908341239E+03  0.19647559063E+03  0.00000000000E+00 0. -1.
         22    1    3    3    0    0  0.10335305535E+03 -0.11217963500E+03 -0.43097273304E+03  0.45716913849E+03  0.00000000000E+00 0. -1.
</event>
<event>
 7    1  0.6294601E-006  0.6152670E+02  0.7818608E-02  0.1438582E+00
          2   -1    0    0  502    0  0.00000000000E+00  0.00000000000E+00  0.11494914594E+04  0.11494914594E+04  0.00000000000E+00 0. -1.
          1   -1    0    0  501    0 -0.00000000000E+00 -0.00000000000E+00 -0.23264162577E+03  0.23264162577E+03  0.00000000000E+00 0. -1.
         25    2    1    2    0    0  0.79970688792E+02  0.32373031018E+01 -0.20432288627E+02  0.14982668112E+03  0.12499905903E+03 0.  0.
          2    1    1    2  501    0 -0.26494303646E+02 -0.33527166137E+02 -0.14352603158E+03  0.14975226454E+03  0.00000000000E+00 0. -1.
          1    1    1    2  502    0 -0.53476385147E+02  0.30289863035E+02  0.10808081538E+04  0.10825541395E+04  0.00000000000E+00 0. -1.
         22    1    3    3    0    0  0.22430825530E+01  0.47921055214E+02 -0.34476890300E+02  0.59077194559E+02  0.00000000000E+00 0. -1.
         22    1    3    3    0    0  0.77727606239E+02 -0.44683752112E+02  0.14044601673E+02  0.90749486559E+02  0.00000000000E+00 0. -1.
</event>
<event>
 7    1  0.6294601E-006  0.1012835E+03  0.7818608E-02  0.1459980E+00
          2   -1    0    0  502    0  0.00000000000E+00  0.00000000000E+00  0.13249586709E+03  0.13249586709E+03  0.00000000000E+00 0. -1.
          1   -1    0    0  501    0 -0.00000000000E+00 -0.00000000000E+00 -0.14730970447E+04  0.14730970447E+04  0.00000000000E+00 0. -1.
         25    2    1    2    0    0  0.49056198046E+02 -0.94079739354E+02 -0.27965874223E+03  0.32417850953E+03  0.12500074406E+03 0.  0.
          2    1    1    2  501    0  0.15246208218E+02  0.16093520128E+02 -0.11478789260E+04  0.11480929740E+04  0.00000000000E+00 0. -1.
          1    1    1    2  502    0 -0.64302406264E+02  0.77986219226E+02  0.86936490583E+02  0.13332142827E+03  0.00000000000E+00 0. -1.
         22    1    3    3    0    0 -0.22344781841E+02 -0.71133833146E+02 -0.73062379345E+02  0.10439072166E+03  0.00000000000E+00 0.  1.
         22    1    3    3    0    0  0.71400979887E+02 -0.22945906208E+02 -0.20659636288E+03  0.21978778787E+03  0.00000000000E+00 0.  1.
</event>
<event>
 7    1  0.6294601E-006  0.5307828E+02  0.7818608E-02  0.1480122E+00
          2   -1    0    0  502    0  0.00000000000E+00  0.00000000000E+00  0.47109362198E+03  0.47109362198E+03  0.00000000000E+00 0. -1.
          1   -1    0    0  501    0 -0.00000000000E+00 -0.00000000000E+00 -0.12138518135E+04  0.12138518135E+04  0.00000000000E+00 0. -1.
         25    2    1    2    0    0 -0.27648972722E+02  0.28359052179E+02  0.27947569632E+03  0.30870712537E+03  0.12499889155E+03 0.  0.
          2    1    1    2  501    0 -0.31541058590E+02 -0.18604268121E+02 -0.11938645620E+04  0.11944260335E+04  0.00000000000E+00 0. -1.
          1    1    1    2  502    0  0.59190031312E+02 -0.97547840578E+01  0.17163067414E+03  0.18181227661E+03  0.00000000000E+00 0. -1.
         22    1    3    3    0    0  0.28893132542E+02  0.21996527299E+02  0.23135653347E+03  0.23418903882E+03  0.00000000000E+00 0. -1.
         22    1    3    3    0    0 -0.56542105264E+02  0.63625248797E+01  0.48119162849E+02  0.74518086555E+02  0.00000000000E+00 0. -1.
</event>
<event>
 7    1  0.6294601E-006  0.5704632E+02  0.7818608E-02  0.1480250E+00
          2   -1    0    0  502    0  0.00000000000E+00  0.00000000000E+00  0.36556255491E+03  0.36556255491E+03  0.00000000000E+00 0. -1.
          1   -1    0    0  501    0 -0.00000000000E+00 -0.00000000000E+00 -0.57503051837E+03  0.57503051837E+03  0.00000000000E+00 0. -1.
         25    2    1    2    0    0  0.23627581045E+02 -0.47699152823E+02  0.13210138352E+03  0.18949772387E+03  0.12500056023E+03 0.  0.
          2    1    1    2  501    0  0.27984887228E+02  0.19381533737E+02 -0.54155546627E+03  0.54262429065E+03  0.00000000000E+00 0. -1.
          1    1    1    2  502    0 -0.51612468273E+02  0.28317619086E+02  0.19998611929E+03  0.20847105876E+03  0.00000000000E+00 0. -1.
         22    1    3    3    0    0  0.15454877174E+02 -0.87758770043E+02  0.62730308520E+02  0.10897498133E+03  0.00000000000E+00 0. -1.
         22    1    3    3    0    0  0.81727038709E+01  0.40059617220E+02  0.69371074997E+02  0.80522742543E+02  0.00000000000E+00 0. -1.
</event>
<event>
 7    1  0.6294601E-006  0.6039975E+02  0.7818608E-02  0.1434872E+00
          2   -1    0    0  502    0  0.00000000000E+00  0.00000000000E+00  0.20602444581E+04  0.20602444581E+04  0.00000000000E+00 0. -1.
          1   -1    0    0  501    0 -0.00000000000E+00 -0.00000000000E+00 -0.46459959300E+03  0.46459959300E+03  0.00000000000E+00 0. -1.
         25    2    1    2    0    0  0.15464111926E+02  0.17769484127E+02  0.26079168351E+03  0.29016031760E+03  0.12500325755E+03 0.  0.
          2    1    1    2  501    0 -0.26479896368E+01 -0.60654138334E+02 -0.44758492847E+03  0.45168374394E+03  0.00000000000E+00 0. -1.
          1    1    1    2  502    0 -0.12816122289E+02  0.42884654207E+02  0.17824381100E+04  0.17829999895E+04  0.00000000000E+00 0. -1.
         22    1    3    3    0    0  0.52016611069E+02 -0.32603125452E+02  0.95391682198E+02  0.11343837379E+03  0.00000000000E+00 0. -1.
         22    1    3    3    0    0 -0.36552499143E+02  0.50372609579E+02  0.16540000131E+03  0.17672194381E+03  0.00000000000E+00 0. -1.
</event>
<event>
 7    1  0.6294601E-006  0.3360033E+02  0.7818608E-02  0.1642144E+00
          2   -1    0    0  502    0  0.00000000000E+00  0.00000000000E+00  0.65689607164E+03  0.65689607164E+03  0.00000000000E+00 0. -1.
          1   -1    0    0  501    0 -0.00000000000E+00 -0.00000000000E+00 -0.13584044003E+03  0.13584044003E+03  0.00000000000E+00 0. -1.
         25    2    1    2    0    0  0.75368055650E+01  0.15213777436E+02  0.30320070957E+02  0.12974336955E+03  0.12500309107E+03 0.  0.
          2    1    1    2  501    0 -0.91901804877E+01  0.18533218595E+02 -0.84383633765E+02  0.86882318432E+02  0.00000000000E+00 0. -1.
          1    1    1    2  502    0  0.16533749227E+01 -0.33746996031E+02  0.57511919441E+03  0.57611082369E+03  0.00000000000E+00 0. -1.
         22    1    3    3    0    0  0.56518782057E+02 -0.93927554918E+01  0.45162989920E+02  0.72954041968E+02  0.00000000000E+00 0. -1.
         22    1    3    3    0    0 -0.48981976492E+02  0.24606532928E+02 -0.14842918964E+02  0.56789327581E+02  0.00000000000E+00 0. -1.
</event>
<event>
 7    1  0.6294601E-006  0.9869693E+02  0.7818608E-02  0.1368857E+00
          2   -1    0    0  502    0  0.00000000000E+00  0.00000000000E+00  0.76063786966E+03  0.76063786966E+03  0.00000000000E+00 0. -1.
          1   -1    0    0  501    0 -0.00000000000E+00 -0.00000000000E+00 -0.11513971009E+03  0.11513971009E+03  0.00000000000E+00 0. -1.
         25    2    1    2    0    0 -0.75799025896E+01 -0.13413710040E+03  0.11424518859E+03  0.21616465111E+03  0.12499990658E+03 0.  0.
          2    1    1    2  501    0 -0.95323660193E+01  0.91282304774E+02 -0.29930231868E+02  0.96535713321E+02  0.00000000000E+00 0. -1.
          1    1    1    2  502    0  0.17112268609E+02  0.42854795626E+02  0.56118320285E+03  0.56307721531E+03  0.00000000000E+00 0. -1.
         22    1    3    3    0    0 -0.37429208952E+02 -0.72138115211E+02  0.12234633128E+03  0.14687912760E+03  0.00000000000E+00 0.  1.
         22    1    3    3    0    0  0.29849306362E+02 -0.61998985190E+02 -0.81011426832E+01  0.69285523507E+02  0.00000000000E+00 0.  1.
</event>
<event>
 7    1  0.6294601E-006  0.6526029E+02  0.7818608E-02  0.1384419E+00
          2   -1    0    0  502    0  0.00000000000E+00  0.00000000000E+00  0.34752891987E+03  0.34752891987E+03  0.00000000000E+00 0. -1.
          1   -1    0    0  501    0 -0.00000000000E+00 -0.00000000000E+00 -0.79584434671E+03  0.79584434671E+03  0.00000000000E+00 0. -1.
         25    2    1    2    0    0 -0.31852402535E+02  0.19432568137E+02 -0.22299150259E+03  0.25834564904E+03  0.12500025560E+03 0.  0.
          2    1    1    2  501    0  0.62670122825E+02  0.33708145094E+02 -0.55000348128E+03  0.55458778635E+03  0.00000000000E+00 0. -1.
          1    1    1    2  502    0 -0.30817720290E+02 -0.53140713231E+02  0.32467955703E+03  0.33043983120E+03  0.00000000000E+00 0. -1.
         22    1    3    3    0    0 -0.32098408290E+02  0.50288554125E+02 -0.21929819260E+03  0.22726843989E+03  0.00000000000E+00 0.  1.
         22    1    3    3    0    0  0.24600575573E+00 -0.30855985988E+02 -0.36933099850E+01  0.31077209154E+02  0.00000000000E+00 0.  1.
</event>
<event>
 7    1  0.6294601E-006  0.4804456E+02  0.7818608E-02  0.1462425E+00
          2   -1    0    0  502    0  0.00000000000E+00  0.00000000000E+00  0.73429677063E+03  0.73429677063E+03  0.00000000000E+00 0. -1.
          1   -1    0    0  501    0 -0.00000000000E+00 -0.00000000000E+00 -0.12325891234E+03  0.12325891234E+03  0.00000000000E+00 0. -1.
         25    2    1    2    0    0  0.20883830592E+02  0.67291447361E+01  0.21648981024E+03  0.25094901341E+03  0.12500461443E+03 0.  0.
          2    1    1    2  501    0  0.53600923557E+01 -0.47744621898E+02 -0.99327294368E+02  0.11033671609E+03  0.00000000000E+00 0. -1.
          1    1    1    2  502    0 -0.26243922948E+02  0.41015477162E+02  0.49387534243E+03  0.49626995347E+03  0.00000000000E+00 0. -1.
         22    1    3    3    0    0  0.45634975110E+02 -0.11422405828E+02  0.21514275404E+03  0.22022585435E+03  0.00000000000E+00 0.  1.
         22    1    3    3    0    0 -0.24751144517E+02  0.18151550564E+02  0.13470562004E+01  0.30723159069E+02  0.00000000000E+00 0.  1.
</event>
