<event>
 7    1  0.6443388E-006  0.8465350E+02  0.7818608E-02  0.1353744E+00
          2   -1    0    0  502    0  0.00000000000E+00  0.00000000000E+00  0.42449495408E+03  0.42449495408E+03  0.00000000000E+00 0. -1.
          1   -1    0    0  501    0 -0.00000000000E+00 -0.00000000000E+00 -0.10796252574E+04  0.10796252574E+04  0.00000000000E+00 0. -1.
         25    2    1    2    0    0  0.43953519011E+02 -0.13681003126E+03 -0.51863895959E+03  0.55250373806E+03  0.12500045472E+03 0.  0.
          2    1    1    2  501    0 -0.84468425422E+01  0.60483434240E+02 -0.53796088057E+03  0.54141620219E+03  0.00000000000E+00 0. -1.
          1    1    1    2  502    0 -0.35506676468E+02  0.76326597015E+02  0.40146953686E+03  0.41020027122E+03  0.00000000000E+00 0. -1.
         22    1    3    3    0    0  0.57862640665E+01 -0.26131866106E+02 -0.32587655490E+03  0.32697382818E+03  0.00000000000E+00 0.  1.
         22    1    3    3    0    0  0.38167254944E+02 -0.11067816515E+03 -0.19276240468E+03  0.22552990988E+03  0.00000000000E+00 0.  1.
</event>
<event>
 7    1  0.6443388E-006  0.8451922E+02  0.7818608E-02  0.1492459E+00
          2   -1    0    0  502    0  0.00000000000E+00  0.00000000000E+00  0.45466267404E+03  0.45466267404E+03  0.00000000000E+00 0. -1.
          1   -1    0    0  501    0 -0.00000000000E+00 -0.00000000000E+00 -0.28276425549E+03  0.28276425549E+03  0.00000000000E+00 0. -1.
         25    2    1    2    0    0  0.43329934166E+02 -0.92075806525E+02  0.28442032402E+03  0.32691872538E+03  0.12500197978E+03 0.  0.
          2    1    1    2  501    0 -0.45088029956E+02  0.71055516502E+02 -0.25394252047E+03  0.26752312157E+03  0.00000000000E+00 0. -1.
          1    1    1    2  502    0  0.17580957906E+01  0.21020290022E+02  0.14142061500E+03  0.14298508258E+03  0.00000000000E+00 0. -1.
         22    1    3    3    0    0  0.53298834243E+02 -0.71124556966E+02  0.28978160818E+03  0.30310534270E+03  0.00000000000E+00 0. -1.
         22    1    3    3    0    0 -0.99689000769E+01 -0.20951249558E+02 -0.53612841610E+01  0.23813382680E+02  0.00000000000E+00 0. -1.
</event>
<event>
 7    1  0.6443388E-006  0.6922631E+02  0.7818608E-02  0.1414718E+00
          2   -1    0    0  502    0  0.00000000000E+00  0.00000000000E+00  0.10958495172E+04  0.10958495172E+04  0.00000000000E+00 0. -1.
          1   -1    0    0  501    0 -0.00000000000E+00 -0.00000000000E+00 -0.15678397079E+04  0.15678397079E+04  0.00000000000E+00 0. -1.
         25    2    1    2    0    0 -0.67905416283E+01  0.65777478836E+02  0.20134084071E+03  0.24604355911E+03  0.12500604251E+03 0.  0.
          2    1    1    2  501    0 -0.38072153162E+02 -0.57891542776E+02 -0.15441161705E+04  0.15456699737E+04  0.00000000000E+00 0. -1.
          1    1    1    2  502    0  0.44862694791E+02 -0.78859360598E+01  0.87078513917E+03  0.87197569230E+03  0.00000000000E+00 0. -1.
         22    1    3    3    0    0 -0.33627008761E+02  0.21215529545E+02  0.17645085620E+01  0.39799345504E+02  0.00000000000E+00 0.  1.
         22    1    3    3    0    0  0.26836467132E+02  0.44561949292E+02  0.19957633215E+03  0.20624421361E+03  0.00000000000E+00 0.  1.
</event>
<event>
 7    1  0.6443388E-006  0.4056982E+02  0.7818608E-02  0.1601846E+00
          2   -1    0    0  502    0  0.00000000000E+00  0.00000000000E+00  0.71021613261E+03  0.71021613261E+03  0.00000000000E+00 0. -1.
          1   -1    0    0  501    0 -0.00000000000E+00 -0.00000000000E+00 -0.71228902041E+03  0.71228902041E+03  0.00000000000E+00 0. -1.
         25    2    1    2    0    0  0.16998307084E+02 -0.59501239271E+02  0.85415128746E+01  0.13973352188E+03  0.12499263889E+03 0.  0.
          2    1    1    2  501    0 -0.80251472837E+01  0.20148710061E+02 -0.64587050860E+03  0.64623454518E+03  0.00000000000E+00 0. -1.
          1    1    1    2  502    0 -0.89731598008E+01  0.39352529210E+02  0.63525610792E+03  0.63653708596E+03  0.00000000000E+00 0. -1.
         22    1    3    3    0    0 -0.22290748174E+02 -0.27426589081E+02  0.58624839293E+02  0.68454123505E+02  0.00000000000E+00 0. -1.
         22    1    3    3    0    0  0.39289055259E+02 -0.32074650190E+02 -0.50083326418E+02  0.71279398377E+02  0.00000000000E+00 0. -1.
</event>
<event>
 7    1  0.6443388E-006  0.6574084E+02  0.7818608E-02  0.1391977E+00
          2   -1    0    0  502    0  0.00000000000E+00  0.00000000000E+00  0.26001115731E+03  0.26001115731E+03  0.00000000000E+00 0. -1.
          1   -1    0    0  501    0 -0.00000000000E+00 -0.00000000000E+00 -0.19508409236E+04  0.19508409236E+04  0.00000000000E+00 0. -1.
         25    2    1    2    0    0  0.10964460566E+03 -0.41334222657E+02 -0.97779074002E+02  0.19727334192E+03  0.12500226641E+03 0.  0.
          2    1    1    2  501    0 -0.45863170833E+02  0.34480267852E+02 -0.17979536568E+04  0.17988689978E+04  0.00000000000E+00 0. -1.
          1    1    1    2  502    0 -0.63781434825E+02  0.68539548050E+01  0.20490296447E+03  0.21470974121E+03  0.00000000000E+00 0. -1.
         22    1    3    3    0    0  0.97094858493E+02  0.26263829434E+02 -0.43106206549E+02  0.10943192096E+03  0.00000000000E+00 0. -1.
         22    1    3    3    0    0  0.12549747165E+02 -0.67598052090E+02 -0.54672867453E+02  0.87841420957E+02  0.00000000000E+00 0. -1.
</event>
<event>
 7    1  0.6443388E-006  0.7358846E+02  0.7818608E-02  0.1516414E+00
          2   -1    0    0  502    0  0.00000000000E+00  0.00000000000E+00  0.39293517567E+03  0.39293517567E+03  0.00000000000E+00 0. -1.
          1   -1    0    0  501    0 -0.00000000000E+00 -0.00000000000E+00 -0.70185778985E+02  0.70185778985E+02  0.00000000000E+00 0. -1.
         25    2    1    2    0    0  0.39416790389E+02 -0.50910209313E+02  0.61819030009E+02  0.15359357342E+03  0.12499544211E+03 0.  0.
          2    1    1    2  501    0  0.20568407771E+02 -0.28223574914E+00  0.21947162325E+03  0.22043351031E+03  0.00000000000E+00 0. -1.
          1    1    1    2  502    0 -0.59985198160E+02  0.51192445063E+02  0.41458743425E+02  0.89093870924E+02  0.00000000000E+00 0. -1.
         22    1    3    3    0    0  0.80502338424E+02 -0.91487592919E+01  0.44830484760E+02  0.92596428938E+02  0.00000000000E+00 0. -1.
         22    1    3    3    0    0 -0.41085548036E+02 -0.41761450022E+02  0.16988545249E+02  0.60997144482E+02  0.00000000000E+00 0. -1.
</event>
<event>
 7    1  0.6443388E-006  0.1072028E+03  0.7818608E-02  0.1431326E+00
          2   -1    0    0  502    0  0.00000000000E+00  0.00000000000E+00  0.40639246286E+03  0.40639246286E+03  0.00000000000E+00 0. -1.
          1   -1    0    0  501    0 -0.00000000000E+00 -0.00000000000E+00 -0.73746275437E+03  0.73746275437E+03  0.00000000000E+00 0. -1.
         25    2    1    2    0    0  0.50972471724E+02  0.99364433823E+02 -0.66460797469E+02  0.18030937200E+03  0.12499179352E+03 0.  0.
          2    1    1    2  501    0 -0.69594387347E+02 -0.81360912243E+02 -0.60892077796E+03  0.61826166841E+03  0.00000000000E+00 0. -1.
          1    1    1    2  502    0  0.18621915622E+02 -0.18003521580E+02  0.34431128392E+03  0.34528417683E+03  0.00000000000E+00 0. -1.
         22    1    3    3    0    0  0.61705154530E+02  0.10428037500E+03 -0.92023803926E+02  0.15215223690E+03  0.00000000000E+00 0.  1.
         22    1    3    3    0    0 -0.10732682805E+02 -0.49159411734E+01  0.25563006457E+02  0.28157135098E+02  0.00000000000E+00 0.  1.
</event>
<event>
 7    1  0.6443388E-006  0.9308118E+02  0.7818608E-02  0.1306173E+00
          2   -1    0    0  502    0  0.00000000000E+00  0.00000000000E+00  0.14858420934E+04  0.14858420934E+04  0.00000000000E+00 0. -1.
          1   -1    0    0  501    0 -0.00000000000E+00 -0.00000000000E+00 -0.12661881741E+03  0.12661881741E+03  0.00000000000E+00 0. -1.
         25    2    1    2    0    0  0.61135277329E+02  0.32918386940E+02  0.84096849336E+03  0.85303848844E+03  0.12500205436E+03 0.  0.
          2    1    1    2  501    0 -0.45756005747E+02  0.81058582513E+02 -0.96456572014E+02  0.13404467966E+03  0.00000000000E+00 0. -1.
          1    1    1    2  502    0 -0.15379271582E+02 -0.11397696945E+03  0.61471135468E+03  0.62537774275E+03  0.00000000000E+00 0. -1.
         22    1    3    3    0    0 -0.50493819093E+01 -0.26482721154E+02  0.49794328601E+03  0.49867258483E+03  0.00000000000E+00 0.  1.
         22    1    3    3    0    0  0.66184659239E+02  0.59401108094E+02  0.34302520735E+03  0.35436590361E+03  0.00000000000E+00 0.  1.
</event>
<event>
 7    1  0.6443388E-006  0.5560073E+02  0.7818608E-02  0.1505201E+00
          2   -1    0    0  502    0  0.00000000000E+00  0.00000000000E+00  0.64024640040E+03  0.64024640040E+03  0.00000000000E+00 0. -1.
          1   -1    0    0  501    0 -0.00000000000E+00 -0.00000000000E+00 -0.17490359074E+04  0.17490359074E+04  0.00000000000E+00 0. -1.
         25    2    1    2    0    0  0.29345099012E+02 -0.52039120257E+02  0.30145993163E+02  0.14178822844E+03  0.12500366373E+03 0.  0.
          2    1    1    2  501    0 -0.29145759136E+02 -0.36431883533E+01 -0.16916885152E+04  0.16919434922E+04  0.00000000000E+00 0. -1.
          1    1    1    2  502    0 -0.19933987579E+00  0.55682308610E+02  0.55275301509E+03  0.55555058718E+03  0.00000000000E+00 0. -1.
         22    1    3    3    0    0  0.75969372748E+01  0.39562686676E+02  0.25183798995E+02  0.47509402909E+02  0.00000000000E+00 0.  1.
         22    1    3    3    0    0  0.21748161737E+02 -0.91601806932E+02  0.49621941678E+01  0.94278825529E+02  0.00000000000E+00 0.  1.
</event>
<event>
 7    1  0.6443388E-006  0.6923498E+02  0.7818608E-02  0.1505764E+00
          2   -1    0    0  502    0  0.00000000000E+00  0.00000000000E+00  0.21699019268E+04  0.21699019268E+04  0.00000000000E+00 0. -1.
          1   -1    0    0  501    0 -0.00000000000E+00 -0.00000000000E+00 -0.29803240405E+03  0.29803240405E+03  0.00000000000E+00 0. -1.
         25    2    1    2    0    0 -0.83032188756E+02 -0.57253813758E+01  0.17302866485E+04  0.17367911261E+04  0.12499762130E+03 0.  0.
          2    1    1    2  501    0  0.23319648062E+02 -0.28889286855E+01 -0.29222099350E+03  0.29316422178E+03  0.00000000000E+00 0. -1.
          1    1    1    2  502    0  0.59712540693E+02  0.86143100613E+01  0.43380386778E+03  0.43797898300E+03  0.00000000000E+00 0. -1.
         22    1    3    3    0    0 -0.59913716242E+02 -0.60643676808E+02  0.12338143484E+04  0.12367558996E+04  0.00000000000E+00 0. -1.
         22    1    3    3    0    0 -0.23118472514E+02  0.54918295432E+02  0.49647230012E+03  0.50003522649E+03  0.00000000000E+00 0. -1.
</event>
<event>
 7    1  0.6443388E-006  0.1596815E+03  0.7818608E-02  0.1197322E+00
          2   -1    0    0  502    0  0.00000000000E+00  0.00000000000E+00  0.95888482851E+03  0.95888482851E+03  0.00000000000E+00 0. -1.
          1   -1    0    0  501    0 -0.00000000000E+00 -0.00000000000E+00 -0.84528238871E+03  0.84528238871E+03  0.00000000000E+00 0. -1.
         25    2    1    2    0    0  0.79791963717E+02 -0.12496679130E+03 -0.21967569125E+03  0.29302846477E+03  0.12499926175E+03 0.  0.
          2    1    1    2  501    0  0.58510301729E+02  0.17118230319E+03 -0.56904503750E+03  0.59710894403E+03  0.00000000000E+00 0. -1.
          1    1    1    2  502    0 -0.13830226545E+03 -0.46215511891E+02  0.90232316855E+03  0.91402980842E+03  0.00000000000E+00 0. -1.
         22    1    3    3    0    0  0.10597888522E+03 -0.72881925364E+02 -0.11184746518E+03  0.17044985956E+03  0.00000000000E+00 0. -1.
         22    1    3    3    0    0 -0.26186921502E+02 -0.52084865938E+02 -0.10782822607E+03  0.12257860521E+03  0.00000000000E+00 0. -1.
</event>
<event>
 7    1  0.6443388E-006  0.1798355E+03  0.7818608E-02  0.1384147E+00
          2   -1    0    0  502    0  0.00000000000E+00  0.00000000000E+00  0.12325071731E+03  0.12325071731E+03  0.00000000000E+00 0. -1.
          1   -1    0    0  501    0 -0.00000000000E+00 -0.00000000000E+00 -0.12480308383E+04  0.12480308383E+04  0.00000000000E+00 0. -1.
         25    2    1    2    0    0  0.17170864687E+03 -0.93750659757E+01 -0.67531097542E+03  0.70798462428E+03  0.12500225366E+03 0.  0.
          2    1    1    2  501    0  0.64809530347E+01 -0.21380872155E+02 -0.47947899198E+03  0.47999921687E+03  0.00000000000E+00 0. -1.
          1    1    1    2  502    0 -0.17818959990E+03  0.30755938131E+02  0.30009846419E+02  0.18329771446E+03  0.00000000000E+00 0. -1.
         22    1    3    3    0    0  0.10981766902E+02 -0.28917769480E+02 -0.31585874790E+02  0.44209773605E+02  0.00000000000E+00 0.  1.
         22    1    3    3    0    0  0.16072687997E+03  0.19542703504E+02 -0.64372510063E+03  0.66377485067E+03  0.00000000000E+00 0.  1.
</event>
<event>
 7    1  0.6443388E-006  0.1884279E+03  0.7818608E-02  0.1285936E+00
          2   -1    0    0  502    0  0.00000000000E+00  0.00000000000E+00  0.13209519088E+03  0.13209519088E+03  0.00000000000E+00 0. -1.
          1   -1    0    0  501    0 -0.00000000000E+00 -0.00000000000E+00 -0.10379119816E+04  0.10379119816E+04  0.00000000000E+00 0. -1.
         25    2    1    2    0    0  0.18198402410E+03 -0.17149872453E+02 -0.19039232212E+03  0.29203907671E+03  0.12500113139E+03 0.  0.
          2    1    1    2  501    0 -0.91489677147E+00 -0.50302576580E+02 -0.67958841231E+03  0.68144816119E+03  0.00000000000E+00 0. -1.
          1    1    1    2  502    0 -0.18106912733E+03  0.67452449033E+02 -0.35836056257E+02  0.19651993456E+03  0.00000000000E+00 0. -1.
         22    1    3    3    0    0  0.12786036468E+03 -0.65259493876E+02 -0.15558699575E+03  0.21169408977E+03  0.00000000000E+00 0. -1.
         22    1    3    3    0    0  0.54123659414E+02  0.48109621423E+02 -0.34805326374E+02  0.80344986937E+02  0.00000000000E+00 0. -1.
</event>
<event>
 7    1  0.6443388E-006  0.5525451E+02  0.7818608E-02  0.1526335E+00
          2   -1    0    0  502    0  0.00000000000E+00  0.00000000000E+00  0.74885534137E+02  0.74885534137E+02  0.00000000000E+00 0. -1.
          1   -1    0    0  501    0 -0.00000000000E+00 -0.00000000000E+00 -0.72225049058E+03  0.72225049058E+03  0.00000000000E+00 0. -1.
         25    2    1    2    0    0  0.69113286958E+02 -0.13802657419E+02 -0.62334075849E+03  0.63964700817E+03  0.12500973594E+03 0.  0.
          2    1    1    2  501    0 -0.21549058405E+02 -0.13895206016E+02 -0.76962647757E+02  0.81121438708E+02  0.00000000000E+00 0. -1.
          1    1    1    2  502    0 -0.47564228553E+02  0.27697863435E+02  0.52938449806E+02  0.76367577837E+02  0.00000000000E+00 0. -1.
         22    1    3    3    0    0 -0.22440168835E+02 -0.37128435589E+02 -0.12205551154E+03  0.12953621039E+03  0.00000000000E+00 0.  1.
         22    1    3    3    0    0  0.91553455793E+02  0.23325778170E+02 -0.50128524695E+03  0.51011079777E+03  0.00000000000E+00 0.  1.
</event>
<event>
 7    1  0.6443388E-006  0.7649814E+02  0.7818608E-02  0.1397443E+00
          2   -1    0    0  502    0  0.00000000000E+00  0.00000000000E+00  0.84147224288E+03  0.84147224288E+03  0.00000000000E+00 0. -1.
          1   -1    0    0  501    0 -0.00000000000E+00 -0.00000000000E+00 -0.46540885853E+03  0.46540885853E+03  0.00000000000E+00 0. -1.
         25    2    1    2    0    0 -0.20330985189E+02 -0.29944881804E+02 -0.24176103266E+03  0.27456237411E+03  0.12500422177E+03 0.  0.
          2    1    1    2  501    0 -0.46555715399E+02 -0.78050427279E+01 -0.20274237440E+03  0.20816537585E+03  0.00000000000E+00 0. -1.
          1    1    1    2  502    0  0.66886700588E+02  0.37749924532E+02  0.82056679141E+03  0.82415335144E+03  0.00000000000E+00 0. -1.
         22    1    3    3    0    0 -0.18695596897E+02 -0.66453130597E+02 -0.22308506137E+03  0.23352192299E+03  0.00000000000E+00 0.  1.
         22    1    3    3    0    0 -0.16353882922E+01  0.36508248793E+02 -0.18675971288E+02  0.41040451122E+02  0.00000000000E+00 0.  1.
</event>
<event>
 7    1  0.6443388E-006  0.1282097E+03  0.7818608E-02  0.1315882E+00
          2   -1    0    0  502    0  0.00000000000E+00  0.00000000000E+00  0.86121006742E+03  0.86121006742E+03  0.00000000000E+00 0. -1.
          1   -1    0    0  501    0 -0.00000000000E+00 -0.00000000000E+00 -0.70756417209E+03  0.70756417209E+03  0.00000000000E+00 0. -1.
         25    2    1    2    0    0 -0.42742370754E+02  0.17620636084E+03  0.48294898676E+03  0.53080017908E+03  0.12503405312E+03 0.  0.
          2    1    1    2  501    0  0.43139324611E+02 -0.12008205387E+03 -0.67540448074E+03  0.68735137564E+03  0.00000000000E+00 0. -1.
          1    1    1    2  502    0 -0.39695385723E+00 -0.56124306974E+02  0.34610138931E+03  0.35062268479E+03  0.00000000000E+00 0. -1.
         22    1    3    3    0    0 -0.66972701016E+02  0.32397157734E+02  0.16026474644E+03  0.17669099428E+03  0.00000000000E+00 0. -1.
         22    1    3    3    0    0  0.24230330261E+02  0.14380920311E+03  0.32268424033E+03  0.35410918480E+03  0.00000000000E+00 0. -1.
</event>
<event>
 7    1  0.9801123E-006  0.1122815E+03  0.7818608E-02  0.1361010E+00
          2   -1    0    0  502    0  0.00000000000E+00  0.00000000000E+00  0.11587372725E+04  0.11587372725E+04  0.00000000000E+00 0. -1.
          1   -1    0    0  501    0 -0.00000000000E+00 -0.00000000000E+00 -0.21826174749E+04  0.21826174749E+04  0.00000000000E+00 0. -1.
         25    2    1    2    0    0  0.89278592000E+02 -0.50989293908E+02 -0.70850371156E+03  0.72675534012E+03  0.12500096004E+03 0.  0.
          2    1    1    2  501    0 -0.11505367454E+03  0.16189486820E+02 -0.14622749788E+04  0.14668836222E+04  0.00000000000E+00 0. -1.
          1    1    1    2  502    0  0.25775082536E+02  0.34799807088E+02  0.11468984880E+04  0.11477157851E+04  0.00000000000E+00 0. -1.
         22    1    3    3    0    0 -0.19150048858E+02 -0.63048478173E+01 -0.32728809479E+03  0.32790848185E+03  0.00000000000E+00 0.  1.
         22    1    3    3    0    0  0.10842864086E+03 -0.44684446091E+02 -0.38121561677E+03  0.39884685827E+03  0.00000000000E+00 0.  1.
</event>
<event>
 7    1  0.6443388E-006  0.7593737E+02  0.7818608E-02  0.1464043E+00
          2   -1    0    0  502    0  0.00000000000E+00  0.00000000000E+00  0.14103727005E+03  0.14103727005E+03  0.00000000000E+00 0. -1.
          1   -1    0    0  501    0 -0.00000000000E+00 -0.00000000000E+00 -0.27430923211E+03  0.27430923211E+03  0.00000000000E+00 0. -1.
         25    2    1    2    0    0  0.26122970400E+02  0.78898197020E+02 -0.18520318743E+02  0.15125066155E+03  0.12500570122E+03 0.  0.
          2    1    1    2  501    0  0.23966215416E+01 -0.75592713060E+02 -0.17867412174E+03  0.19402176126E+03  0.00000000000E+00 0. -1.
          1    1    1    2  502    0 -0.28519591942E+02 -0.33054839602E+01  0.63922478423E+02  0.70074079348E+02  0.00000000000E+00 0. -1.
         22    1    3    3    0    0  0.12438730149E+02 -0.25938840937E+02 -0.33845716092E+02  0.44419342348E+02  0.00000000000E+00 0.  1.
         22    1    3    3    0    0  0.13684240251E+02  0.10483703796E+03  0.15325397349E+02  0.10683131920E+03  0.00000000000E+00 0.  1.
</event>
<event>
 7    1  0.6443388E-006  0.1475223E+03  0.7818608E-02  0.1328027E+00
          2   -1    0    0  502    0  0.00000000000E+00  0.00000000000E+00  0.81230181048E+03  0.81230181048E+03  0.00000000000E+00 0. -1.
          1   -1    0    0  501    0 -0.00000000000E+00 -0.00000000000E+00 -0.98199108564E+02  0.98199108564E+02  0.00000000000E+00 0. -1.
         25    2    1    2    0    0  0.14196620934E+03  0.90646814405E+02  0.36504800472E+03  0.42102096050E+03  0.12500941515E+03 0.  0.
          2    1    1    2  501    0 -0.13626994149E+03 -0.47242148818E+02  0.67469858203E+01  0.14438434610E+03  0.00000000000E+00 0. -1.
          1    1    1    2  502    0 -0.56962678499E+01 -0.43404665587E+02  0.34230771137E+03  0.34509561244E+03  0.00000000000E+00 0. -1.
         22    1    3    3    0    0  0.55405628919E+02  0.65579409374E+02  0.29396077518E+03  0.30624072230E+03  0.00000000000E+00 0. -1.
         22    1    3    3    0    0  0.86560580425E+02  0.25067405030E+02  0.71087229541E+02  0.11478023820E+03  0.00000000000E+00 0. -1.
</event>
<event>
 7    1  0.6443388E-006  0.4541588E+02  0.7818608E-02  0.1510096E+00
          2   -1    0    0  502    0  0.00000000000E+00  0.00000000000E+00  0.10507661535E+04  0.10507661535E+04  0.00000000000E+00 0. -1.
          1   -1    0    0  501    0 -0.00000000000E+00 -0.00000000000E+00 -0.81889495778E+03  0.81889495778E+03  0.00000000000E+00 0. -1.
         25    2    1    2    0    0  0.42240291330E+02 -0.52427573670E+01 -0.16739786468E+03  0.21321414695E+03  0.12500599443E+03 0.  0.
          2    1    1    2  501    0 -0.35746914796E+02 -0.28928157180E+02 -0.62745301768E+03  0.62913589120E+03  0.00000000000E+00 0. -1.
          1    1    1    2  502    0 -0.64933765339E+01  0.34170914547E+02  0.10267220780E+04  0.10273110731E+04  0.00000000000E+00 0. -1.
         22    1    3    3    0    0  0.21614197501E+02  0.35162898168E+02 -0.15826591366E+01  0.41305057210E+02  0.00000000000E+00 0.  1.
         22    1    3    3    0    0  0.20626093829E+02 -0.40405655535E+02 -0.16581520554E+03  0.17190908974E+03  0.00000000000E+00 0.  1.
</event>
<event>
 7    1  0.6443388E-006  0.9631562E+02  0.7818608E-02  0.1431720E+00
          2   -1    0    0  502    0  0.00000000000E+00  0.00000000000E+00  0.52043721495E+02  0.52043721495E+02  0.00000000000E+00 0. -1.
          1   -1    0    0  501    0 -0.00000000000E+00 -0.00000000000E+00 -0.92778613339E+03  0.92778613339E+03  0.00000000000E+00 0. -1.
         25    2    1    2    0    0 -0.32911448652E+02 -0.66702729598E+02 -0.25515166144E+03  0.29370013721E+03  0.12499993068E+03 0.  0.
          2    1    1    2  501    0 -0.16675047510E+02 -0.23412664007E+02 -0.57138691862E+03  0.57210944828E+03  0.00000000000E+00 0. -1.
          1    1    1    2  502    0  0.49586496163E+02  0.90115393604E+02 -0.49203831833E+02  0.11402026940E+03  0.00000000000E+00 0. -1.
         22    1    3    3    0    0 -0.18664942687E+00 -0.94768380641E+02 -0.12679782824E+03  0.15829962114E+03  0.00000000000E+00 0. -1.
         22    1    3    3    0    0 -0.32724799225E+02  0.28065651043E+02 -0.12835383320E+03  0.13540051607E+03  0.00000000000E+00 0. -1.
</event>
<event>
 7    1  0.6443388E-006  0.5534657E+03  0.7818608E-02  0.1139915E+00
          2   -1    0    0  502    0  0.00000000000E+00  0.00000000000E+00  0.29920382706E+04  0.29920382706E+04  0.00000000000E+00 0. -1.
          1   -1    0    0  501    0 -0.00000000000E+00 -0.00000000000E+00 -0.73551183119E+03  0.73551183119E+03  0.00000000000E+00 0. -1.
         25    2    1    2    0    0  0.34393586111E+03  0.52804761560E+03 -0.30044245039E+03  0.70923659849E+03  0.12499890301E+03 0.  0.
          2    1    1    2  501    0 -0.37500950821E+02 -0.72112382278E+02 -0.19541430811E+03  0.21164420333E+03  0.00000000000E+00 0. -1.
          1    1    1    2  502    0 -0.30643491029E+03 -0.45593523332E+03  0.27523831980E+04  0.28066693000E+04  0.00000000000E+00 0. -1.
         22    1    3    3    0    0  0.20822089452E+02  0.85071208960E+02 -0.78871391612E+02  0.11786164099E+03  0.00000000000E+00 0.  1.
         22    1    3    3    0    0  0.32311377166E+03  0.44297640664E+03 -0.22157105877E+03  0.59137495750E+03  0.00000000000E+00 0.  1.
</event>
<event>
 7    1  0.6443388E-006  0.2102263E+03  0.7818608E-02  0.1305342E+00
          2   -1    0    0  502    0  0.00000000000E+00  0.00000000000E+00  0.13327363177E+04  0.13327363177E+04  0.00000000000E+00 0. -1.
          1   -1    0    0  501    0 -0.00000000000E+00 -0.00000000000E+00 -0.58073164123E+03  0.58073164123E+03  0.00000000000E+00 0. -1.
         25    2    1    2    0    0  0.20029573632E+03  0.12583224327E+02 -0.66206244170E+02  0.24552823402E+03  0.12499650960E+03 0.  0.
          2    1    1    2  501    0 -0.21252718800E+03  0.23036122148E+02 -0.39766434407E+03  0.45148133861E+03  0.00000000000E+00 0. -1.
          1    1    1    2  502    0  0.12231451675E+02 -0.35619346475E+02  0.12158752648E+04  0.12164583863E+04  0.00000000000E+00 0. -1.
         22    1    3    3    0    0  0.20035474674E+03 -0.11617651119E+02 -0.81818383386E+02  0.21672849886E+03  0.00000000000E+00 0. -1.
         22    1    3    3    0    0 -0.59010416022E-01  0.24200875446E+02  0.15612139216E+02  0.28799735163E+02  0.00000000000E+00 0. -1.
</event>
<event>
 7    1  0.6443388E-006  0.5432681E+02  0.7818608E-02  0.1491135E+00
          2   -1    0    0  502    0  0.00000000000E+00  0.00000000000E+00  0.67510538051E+03  0.67510538051E+03  0.00000000000E+00 0. -1.
          1   -1    0    0  501    0 -0.00000000000E+00 -0.00000000000E+00 -0.29157613804E+03  0.29157613804E+03  0.00000000000E+00 0. -1.
         25    2    1    2    0    0 -0.81919592285E+02 -0.19184114457E+02 -0.62699665149E+01  0.15080923682E+03  0.12500105433E+03 0.  0.
          2    1    1    2  501    0  0.52919237133E+02  0.31869788040E+01 -0.20927376422E+03  0.21588448504E+03  0.00000000000E+00 0. -1.
          1    1    1    2  502    0  0.29000355152E+02  0.15997135653E+02  0.59907297320E+03  0.59998779668E+03  0.00000000000E+00 0. -1.
         22    1    3    3    0    0 -0.10336517063E+03  0.10970168895E+02  0.19444835203E+02  0.10574878118E+03  0.00000000000E+00 0.  1.
         22    1    3    3    0    0  0.21445578346E+02 -0.30154283352E+02 -0.25714801718E+02  0.45060455640E+02  0.00000000000E+00 0.  1.
</event>
<event>
 7    1  0.6443388E-006  0.8505607E+02  0.7818608E-02  0.1380481E+00
          2   -1    0    0  502    0  0.00000000000E+00  0.00000000000E+00  0.11637765722E+03  0.11637765722E+03  0.00000000000E+00 0. -1.
          1   -1    0    0  501    0 -0.00000000000E+00 -0.00000000000E+00 -0.11077819273E+04  0.11077819273E+04  0.00000000000E+00 0. -1.
         25    2    1    2    0    0 -0.61285659705E+02  0.90052912303E+02 -0.59688338845E+02  0.17621689828E+03  0.12499695334E+03 0.  0.
          2    1    1    2  501    0  0.47598575929E+02 -0.10134726132E+02 -0.96062836319E+03  0.96186027534E+03  0.00000000000E+00 0. -1.
          1    1    1    2  502    0  0.13687083776E+02 -0.79918186171E+02  0.28912431962E+02  0.86082410893E+02  0.00000000000E+00 0. -1.
         22    1    3    3    0    0 -0.86853752445E+02  0.38133883520E+02 -0.25515789476E+01  0.94890873856E+02  0.00000000000E+00 0.  1.
         22    1    3    3    0    0  0.25568092740E+02  0.51919028783E+02 -0.57136759897E+02  0.81326024419E+02  0.00000000000E+00 0.  1.
</event>
<event>
 7    1  0.6443388E-006  0.5631008E+02  0.7818608E-02  0.1482718E+00
          2   -1    0    0  502    0  0.00000000000E+00  0.00000000000E+00  0.14654628083E+04  0.14654628083E+04  0.00000000000E+00 0. -1.
          1   -1    0    0  501    0 -0.00000000000E+00 -0.00000000000E+00 -0.23956540498E+02  0.23956540498E+02  0.00000000000E+00 0. -1.
         25    2    1    2    0    0  0.13983774668E+00  0.85634034319E+02  0.95556056809E+03  0.96749821563E+03  0.12499436209E+03 0.  0.
          2    1    1    2  501    0  0.11573675282E+02 -0.53831186943E+02  0.26286427151E+02  0.61014120493E+02  0.00000000000E+00 0. -1.
          1    1    1    2  502    0 -0.11713513029E+02 -0.31802847376E+02  0.45965927251E+03  0.46090701263E+03  0.00000000000E+00 0. -1.
         22    1    3    3    0    0  0.80512297101E+01  0.24383621864E+02  0.79582527350E+03  0.79623944217E+03  0.00000000000E+00 0.  1.
         22    1    3    3    0    0 -0.79113919635E+01  0.61250412455E+02  0.15973529459E+03  0.17125877346E+03  0.00000000000E+00 0.  1.
</event>
<event>
 7    1  0.6443388E-006  0.8237116E+02  0.7818608E-02  0.1356660E+00
          2   -1    0    0  502    0  0.00000000000E+00  0.00000000000E+00  0.93971720353E+03  0.93971720353E+03  0.00000000000E+00 0. -1.
          1   -1    0    0  501    0 -0.00000000000E+00 -0.00000000000E+00 -0.10881288576E+03  0.10881288576E+03  0.00000000000E+00 0. -1.
         25    2    1    2    0    0  0.52171202849E+02  0.82992937509E+02  0.18269017072E+03  0.24209578575E+03  0.12500003566E+03 0.  0.
          2    1    1    2  501    0 -0.61226855988E+02 -0.80446833295E+00 -0.64502151631E+02  0.88937633365E+02  0.00000000000E+00 0. -1.
          1    1    1    2  502    0  0.90556531390E+01 -0.82188469176E+02  0.71271629867E+03  0.71749667018E+03  0.00000000000E+00 0. -1.
         22    1    3    3    0    0  0.61055617710E+02  0.50794642426E+02  0.28580751935E+02  0.84408195895E+02  0.00000000000E+00 0. -1.
         22    1    3    3    0    0 -0.88844148605E+01  0.32198295083E+02  0.15410941879E+03  0.15768758985E+03  0.00000000000E+00 0. -1.
</event>
<event>
 7    1  0.6443388E-006  0.3661874E+02  0.7818608E-02  0.1576490E+00
          2   -1    0    0  502    0  0.00000000000E+00  0.00000000000E+00  0.95426930168E+03  0.95426930168E+03  0.00000000000E+00 0. -1.
          1   -1    0    0  501    0 -0.00000000000E+00 -0.00000000000E+00 -0.50699206342E+03  0.50699206342E+03  0.00000000000E+00 0. -1.
         25    2    1    2    0    0  0.50975648446E+02 -0.38621700517E+02  0.15977488162E+03  0.21270284141E+03  0.12499733381E+03 0.  0.
          2    1    1    2  501    0 -0.24014092595E+02  0.14493113557E+02 -0.47969206224E+03  0.48051139587E+03  0.00000000000E+00 0. -1.
          1    1    1    2  502    0 -0.26961555852E+02  0.24128586960E+02  0.76719441888E+03  0.76804712783E+03  0.00000000000E+00 0. -1.
         22    1    3    3    0    0  0.25698656596E+02 -0.52715187248E+02  0.17167170399E+03  0.18141247440E+03  0.00000000000E+00 0. -1.
         22    1    3    3    0    0  0.25276991850E+02  0.14093486731E+02 -0.11896822365E+02  0.31290367010E+02  0.00000000000E+00 0. -1.
</event>
<event>
 7    1  0.6443388E-006  0.1289903E+03  0.7818608E-02  0.1247940E+00
          2   -1    0    0  502    0  0.00000000000E+00  0.00000000000E+00  0.58058025854E+03  0.58058025854E+03  0.00000000000E+00 0. -1.
          1   -1    0    0  501    0 -0.00000000000E+00 -0.00000000000E+00 -0.13427835243E+04  0.13427835243E+04  0.00000000000E+00 0. -1.
         25    2    1    2    0    0  0.29283631845E+02  0.12390984178E+03 -0.25773526332E+03  0.31346917231E+03  0.12499710416E+03 0.  0.
          2    1    1    2  501    0 -0.10481191954E+03 -0.17879653463E+02 -0.10467853864E+04  0.10521715001E+04  0.00000000000E+00 0. -1.
          1    1    1    2  502    0  0.75528287690E+02 -0.10603018832E+03  0.54231738389E+03  0.55772311047E+03  0.00000000000E+00 0. -1.
         22    1    3    3    0    0  0.71481922775E+02  0.10281112138E+03 -0.14700391053E+03  0.19310603739E+03  0.00000000000E+00 0. -1.
         22    1    3    3    0    0 -0.42198290929E+02  0.21098720402E+02 -0.11073135278E+03  0.12036313492E+03  0.00000000000E+00 0. -1.
</event>
<event>
 7    1  0.6443388E-006  0.4359621E+02  0.7818608E-02  0.1483763E+00
          2   -1    0    0  502    0  0.00000000000E+00  0.00000000000E+00  0.10214097529E+04  0.10214097529E+04  0.00000000000E+00 0. -1.
          1   -1    0    0  501    0 -0.00000000000E+00 -0.00000000000E+00 -0.12891498240E+03  0.12891498240E+03  0.00000000000E+00 0. -1.
         25    2    1    2    0    0  0.46937262552E+01 -0.96375180615E+01  0.75300876538E+02  0.14632146729E+03  0.12499934785E+03 0.  0.
          2    1    1    2  501    0  0.38054648704E+02  0.20979954344E+02 -0.87781128503E+02  0.97948156152E+02  0.00000000000E+00 0. -1.
          1    1    1    2  502    0 -0.42748374959E+02 -0.11342436282E+02  0.90497502245E+03  0.90605511183E+03  0.00000000000E+00 0. -1.
         22    1    3    3    0    0 -0.82778512166E+01  0.52757133433E+02  0.60877502040E+02  0.80980912588E+02  0.00000000000E+00 0.  1.
         22    1    3    3    0    0  0.12971577472E+02 -0.62394651495E+02  0.14423374497E+02  0.65340554705E+02  0.00000000000E+00 0.  1.
</event>
<event>
 7    1  0.6443388E-006  0.5607605E+02  0.7818608E-02  0.1494097E+00
          2   -1    0    0  502    0  0.00000000000E+00  0.00000000000E+00  0.29395851183E+03  0.29395851183E+03  0.00000000000E+00 0. -1.
          1   -1    0    0  501    0 -0.00000000000E+00 -0.00000000000E+00 -0.85046004716E+03  0.85046004716E+03  0.00000000000E+00 0. -1.
         25    2    1    2    0    0  0.84786885715E+02 -0.96659890498E+01 -0.19962101455E+03  0.25051264033E+03  0.12500314468E+03 0.  0.
          2    1    1    2  501    0 -0.53426752141E+02  0.11817170326E+02 -0.62327048946E+03  0.62566777637E+03  0.00000000000E+00 0. -1.
          1    1    1    2  502    0 -0.31360133574E+02 -0.21511812766E+01  0.26638996869E+03  0.26823814228E+03  0.00000000000E+00 0. -1.
         22    1    3    3    0    0 -0.17563786242E+02  0.16233477688E+02 -0.10833428151E+03  0.11094290845E+03  0.00000000000E+00 0. -1.
         22    1    3    3    0    0  0.10235067196E+03 -0.25899466738E+02 -0.91286733039E+02  0.13956973188E+03  0.00000000000E+00 0. -1.
</event>
<event>
 7    1  0.6443388E-006  0.9267316E+02  0.7818608E-02  0.1381559E+00
          2   -1    0    0  502    0  0.00000000000E+00  0.00000000000E+00  0.38979020285E+04  0.38979020285E+04  0.00000000000E+00 0. -1.
          1   -1    0    0  501    0 -0.00000000000E+00 -0.00000000000E+00 -0.11876109038E+03  0.11876109038E+03  0.00000000000E+00 0. -1.
         25    2    1    2    0    0 -0.38276478504E+02 -0.35043543476E+02  0.18394666732E+04  0.18444382047E+04  0.12498604015E+03 0.  0.
          2    1    1    2  501    0  0.52251128868E+02  0.77055679643E+02 -0.97359853241E+02  0.13470968509E+03  0.00000000000E+00 0. -1.
          1    1    1    2  502    0 -0.13974650364E+02 -0.42012136168E+02  0.20370341181E+04  0.20375152291E+04  0.00000000000E+00 0. -1.
         22    1    3    3    0    0 -0.25989634703E+02  0.31790757252E+02  0.13080501446E+04  0.13086944999E+04  0.00000000000E+00 0.  1.
         22    1    3    3    0    0 -0.12286843801E+02 -0.66834300727E+02  0.53141652866E+03  0.53574370479E+03  0.00000000000E+00 0.  1.
</event>
<event>
 7    1  0.6443388E-006  0.4791015E+02  0.7818608E-02  0.1501604E+00
          2   -1    0    0  502    0  0.00000000000E+00  0.00000000000E+00  0.23604697976E+04  0.23604697976E+04  0.00000000000E+00 0. -1.
          1   -1    0    0  501    0 -0.00000000000E+00 -0.00000000000E+00 -0.24635799585E+03  0.24635799585E+03  0.00000000000E+00 0. -1.
         25    2    1    2    0    0  0.19693549219E+02  0.76263825406E+01  0.35230984155E+03  0.37442367131E+03  0.12499945437E+03 0.  0.
          2    1    1    2  501    0 -0.45363112389E+02  0.16072309900E+02 -0.23268568432E+03  0.23761051913E+03  0.00000000000E+00 0. -1.
          1    1    1    2  502    0  0.25669563170E+02 -0.23698692441E+02  0.19944876445E+04  0.19947936030E+04  0.00000000000E+00 0. -1.
         22    1    3    3    0    0  0.21775077616E+02  0.64780801689E+02  0.16551980794E+03  0.17907404360E+03  0.00000000000E+00 0. -1.
         22    1    3    3    0    0 -0.20815283972E+01 -0.57154419149E+02  0.18679003362E+03  0.19534962771E+03  0.00000000000E+00 0. -1.
</event>
<event>
 7    1  0.6443388E-006  0.1026253E+03  0.7818608E-02  0.1338403E+00
          2   -1    0    0  502    0  0.00000000000E+00  0.00000000000E+00  0.10633746021E+04  0.10633746021E+04  0.00000000000E+00 0. -1.
          1   -1    0    0  501    0 -0.00000000000E+00 -0.00000000000E+00 -0.54564576316E+03  0.54564576316E+03  0.00000000000E+00 0. -1.
         25    2    1    2    0    0  0.24719022995E+02  0.14791929217E+03  0.15125640927E+03  0.24697107151E+03  0.12500024690E+03 0.  0.
          2    1    1    2  501    0  0.86574756692E+01 -0.10114039218E+03 -0.49164237587E+03  0.50201250638E+03  0.00000000000E+00 0. -1.
          1    1    1    2  502    0 -0.33376498665E+02 -0.46778899981E+02  0.85811480549E+03  0.86003678732E+03  0.00000000000E+00 0. -1.
         22    1    3    3    0    0  0.71087426193E+02  0.95660436209E+02  0.12396879421E+03  0.17196686645E+03  0.00000000000E+00 0. -1.
         22    1    3    3    0    0 -0.46368403198E+02  0.52258855956E+02  0.27287615063E+02  0.75004205061E+02  0.00000000000E+00 0. -1.
</event>
<event>
 7    1  0.6443388E-006  0.2233667E+03  0.7818608E-02  0.1274221E+00
          2   -1    0    0  502    0  0.00000000000E+00  0.00000000000E+00  0.98524276560E+03  0.98524276560E+03  0.00000000000E+00 0. -1.
          1   -1    0    0  501    0 -0.00000000000E+00 -0.00000000000E+00 -0.39233375855E+03  0.39233375855E+03  0.00000000000E+00 0. -1.
         25    2    1    2    0    0 -0.17607530857E+03 -0.41335983534E+02 -0.33966054779E+02  0.22246208197E+03  0.12499802884E+03 0.  0.
          2    1    1    2  501    0 -0.46805336090E+02 -0.77683514323E+01 -0.24721185394E+03  0.25172363317E+03  0.00000000000E+00 0. -1.
          1    1    1    2  502    0  0.22288064466E+03  0.49104334966E+02  0.87408691577E+03  0.90339080901E+03  0.00000000000E+00 0. -1.
         22    1    3    3    0    0  0.17541674016E+02  0.27265368575E+01  0.80594228696E+01  0.19496118268E+02  0.00000000000E+00 0. -1.
         22    1    3    3    0    0 -0.19361698259E+03 -0.44062520391E+02 -0.42025477648E+02  0.20296596370E+03  0.00000000000E+00 0. -1.
</event>
<event>
 7    1  0.6443388E-006  0.4832419E+02  0.7818608E-02  0.1455526E+00
          2   -1    0    0  502    0  0.00000000000E+00  0.00000000000E+00  0.32569633858E+04  0.32569633858E+04  0.00000000000E+00 0. -1.
          1   -1    0    0  501    0 -0.00000000000E+00 -0.00000000000E+00 -0.83256781014E+02  0.83256781014E+02  0.00000000000E+00 0. -1.
         25    2    1    2    0    0 -0.44520279131E+02 -0.15904441528E+02  0.19414302031E+03  0.23569345154E+03  0.12499953700E+03 0.  0.
          2    1    1    2  501    0  0.37936955100E+02 -0.31638261517E+02 -0.52498218443E+02  0.72085054580E+02  0.00000000000E+00 0. -1.
          1    1    1    2  502    0  0.65833240306E+01  0.47542703045E+02  0.30320618029E+04  0.30324416607E+04  0.00000000000E+00 0. -1.
         22    1    3    3    0    0 -0.41381688146E+02  0.44930349915E+02  0.49076344924E+02  0.78356034154E+02  0.00000000000E+00 0.  1.
         22    1    3    3    0    0 -0.31385909849E+01 -0.60834791443E+02  0.14506667538E+03  0.15733741739E+03  0.00000000000E+00 0.  1.
</event>
<event>
 7    1  0.6443388E-006  0.6253647E+02  0.7818608E-02  0.1404049E+00
          2   -1    0    0  502    0  0.00000000000E+00  0.00000000000E+00  0.19089851346E+04  0.19089851346E+04  0.00000000000E+00 0. -1.
          1   -1    0    0  501    0 -0.00000000000E+00 -0.00000000000E+00 -0.21208945559E+02  0.21208945559E+02  0.00000000000E+00 0. -1.
         25    2    1    2    0    0 -0.24343309613E+02 -0.26780187251E+02  0.87373300791E+03  0.88337095954E+03  0.12500043160E+03 0.  0.
          2    1    1    2  501    0  0.30141595871E+02 -0.45771603043E+02  0.34889178386E+02  0.64967762892E+02  0.00000000000E+00 0. -1.
          1    1    1    2  502    0 -0.57982862580E+01  0.72551790295E+02  0.97915400277E+03  0.98185535775E+03  0.00000000000E+00 0. -1.
         22    1    3    3    0    0 -0.65529110987E+02 -0.18228672819E+02  0.74139818580E+03  0.74451166465E+03  0.00000000000E+00 0. -1.
         22    1    3    3    0    0  0.41185801374E+02 -0.85515144328E+01  0.13233482211E+03  0.13885929489E+03  0.00000000000E+00 0. -1.
</event>
<event>
 7    1  0.6443388E-006  0.9009682E+02  0.7818608E-02  0.1314743E+00
          2   -1    0    0  502    0  0.00000000000E+00  0.00000000000E+00  0.20711584175E+03  0.20711584175E+03  0.00000000000E+00 0. -1.
          1   -1    0    0  501    0 -0.00000000000E+00 -0.00000000000E+00 -0.46193531701E+03  0.46193531701E+03  0.00000000000E+00 0. -1.
         25    2    1    2    0    0  0.32586474478E+02  0.77341244740E+02 -0.14184085638E+03  0.20684294885E+03  0.12498652125E+03 0.  0.
          2    1    1    2  501    0 -0.95341270679E+02 -0.26617455475E+02 -0.26895685866E+03  0.28659420555E+03  0.00000000000E+00 0. -1.
          1    1    1    2  502    0  0.62754796201E+02 -0.50723789265E+02  0.15597823978E+03  0.17561400436E+03  0.00000000000E+00 0. -1.
         22    1    3    3    0    0  0.50707631750E+02  0.43532146301E+02 -0.76379181198E+01  0.67265514734E+02  0.00000000000E+00 0. -1.
         22    1    3    3    0    0 -0.18121157272E+02  0.33809098440E+02 -0.13420293826E+03  0.13957743412E+03  0.00000000000E+00 0. -1.
</event>
<event>
 7    1  0.6443388E-006  0.7221908E+02  0.7818608E-02  0.1393338E+00
          2   -1    0    0  502    0  0.00000000000E+00  0.00000000000E+00  0.18376457962E+04  0.18376457962E+04  0.00000000000E+00 0. -1.
          1   -1    0    0  501    0 -0.00000000000E+00 -0.00000000000E+00 -0.32886442546E+03  0.32886442546E+03  0.00000000000E+00 0. -1.
         25    2    1    2    0    0 -0.11556727913E+01 -0.33426965466E+02  0.69238764797E+03  0.70436725079E+03  0.12495547733E+03 0.  0.
          2    1    1    2  501    0  0.24733144223E+02 -0.45360937177E+02 -0.31931133367E+03  0.32346417245E+03  0.00000000000E+00 0. -1.
          1    1    1    2  502    0 -0.23577471432E+02  0.78787902642E+02  0.11357050564E+04  0.11386787984E+04  0.00000000000E+00 0. -1.
         22    1    3    3    0    0  0.49376526216E+02 -0.64307417859E+01  0.13235207256E+03  0.14140886426E+03  0.00000000000E+00 0. -1.
         22    1    3    3    0    0 -0.50532199008E+02 -0.26996223680E+02  0.56003557542E+03  0.56295838653E+03  0.00000000000E+00 0. -1.
</event>
<event>
 7    1  0.6443388E-006  0.1235114E+03  0.7818608E-02  0.1358869E+00
          2   -1    0    0  502    0  0.00000000000E+00  0.00000000000E+00  0.17157721075E+04  0.17157721075E+04  0.00000000000E+00 0. -1.
          1   -1    0    0  501    0 -0.00000000000E+00 -0.00000000000E+00 -0.18228615577E+04  0.18228615577E+04  0.00000000000E+00 0. -1.
         25    2    1    2    0    0 -0.11091982420E+03  0.11290782178E+03  0.99814111002E+02  0.22503286676E+03  0.12500220297E+03 0.  0.
          2    1    1    2  501    0  0.14988750361E+02 -0.37174820043E+02 -0.17576191298E+04  0.17580761176E+04  0.00000000000E+00 0. -1.
          1    1    1    2  502    0  0.95931073840E+02 -0.75733001736E+02  0.15507155685E+04  0.15555246809E+04  0.00000000000E+00 0. -1.
         22    1    3    3    0    0 -0.12463928202E+03  0.56304254616E+02  0.42250222015E+02  0.14314398685E+03  0.00000000000E+00 0.  1.
         22    1    3    3    0    0  0.13719457817E+02  0.56603567163E+02  0.57563888987E+02  0.81888879914E+02  0.00000000000E+00 0.  1.
</event>
<event>
 7    1  0.6443388E-006  0.1366757E+03  0.7818608E-02  0.1389132E+00
          2   -1    0    0  502    0  0.00000000000E+00  0.00000000000E+00  0.11984681184E+04  0.11984681184E+04  0.00000000000E+00 0. -1.
          1   -1    0    0  501    0 -0.00000000000E+00 -0.00000000000E+00 -0.66156809932E+02  0.66156809932E+02  0.00000000000E+00 0. -1.
         25    2    1    2    0    0 -0.19267172262E+02  0.12138460184E+03  0.63248343366E+03  0.65632727029E+03  0.12499898551E+03 0.  0.
          2    1    1    2  501    0 -0.29590378832E+01 -0.13880044917E+03  0.35749304899E+02  0.14336085029E+03  0.00000000000E+00 0. -1.
          1    1    1    2  502    0  0.22226210145E+02  0.17415847333E+02  0.46407856991E+03  0.46493680776E+03  0.00000000000E+00 0. -1.
         22    1    3    3    0    0  0.52449832147E+02  0.47323673506E+02  0.21525696459E+03  0.22655258941E+03  0.00000000000E+00 0.  1.
         22    1    3    3    0    0 -0.71717004409E+02  0.74060928331E+02  0.41722646908E+03  0.42977468088E+03  0.00000000000E+00 0.  1.
</event>
<event>
 7    1  0.6443388E-006  0.9276916E+02  0.7818608E-02  0.1354915E+00
          2   -1    0    0  502    0  0.00000000000E+00  0.00000000000E+00  0.88517409524E+03  0.88517409524E+03  0.00000000000E+00 0. -1.
          1   -1    0    0  501    0 -0.00000000000E+00 -0.00000000000E+00 -0.25939000844E+03  0.25939000844E+03  0.00000000000E+00 0. -1.
         25    2    1    2    0    0  0.24013965958E+02 -0.45207984708E+02 -0.10315110451E+03  0.16995570730E+03  0.12499743854E+03 0.  0.
          2    1    1    2  501    0  0.54928319096E+02 -0.52378277124E+01 -0.11391121925E+03  0.12657140652E+03  0.00000000000E+00 0. -1.
          1    1    1    2  502    0 -0.78942285054E+02  0.50445812421E+02  0.84284641056E+03  0.84803698985E+03  0.00000000000E+00 0. -1.
         22    1    3    3    0    0 -0.36289344640E+02  0.19034684535E+02 -0.57815697985E+02  0.70865299570E+02  0.00000000000E+00 0. -1.
         22    1    3    3    0    0  0.60303310598E+02 -0.64242669243E+02 -0.45335406521E+02  0.99090407734E+02  0.00000000000E+00 0. -1.
</event>
<event>
 7    1  0.6443388E-006  0.2987830E+03  0.7818608E-02  0.1287088E+00
          2   -1    0    0  502    0  0.00000000000E+00  0.00000000000E+00  0.17211445990E+04  0.17211445990E+04  0.00000000000E+00 0. -1.
          1   -1    0    0  501    0 -0.00000000000E+00 -0.00000000000E+00 -0.92808582276E+02  0.92808582276E+02  0.00000000000E+00 0. -1.
         25    2    1    2    0    0  0.22349805234E+03 -0.20120927957E+03  0.10373548961E+04  0.10872746645E+04  0.12499784787E+03 0.  0.
          2    1    1    2  501    0 -0.19983447063E+03  0.22182815568E+03  0.26505277626E+03  0.39924243325E+03  0.00000000000E+00 0. -1.
          1    1    1    2  502    0 -0.23663581710E+02 -0.20618876111E+02  0.32592834435E+03  0.32743608354E+03  0.00000000000E+00 0. -1.
         22    1    3    3    0    0  0.73149239944E+02 -0.46156239797E+02  0.14224973613E+03  0.16648182245E+03  0.00000000000E+00 0. -1.
         22    1    3    3    0    0  0.15034881239E+03 -0.15505303977E+03  0.89510515999E+03  0.92079284205E+03  0.00000000000E+00 0. -1.
</event>
<event>
 7    1  0.6443388E-006  0.1880206E+03  0.7818608E-02  0.1166733E+00
          2   -1    0    0  502    0  0.00000000000E+00  0.00000000000E+00  0.17463883336E+03  0.17463883336E+03  0.00000000000E+00 0. -1.
          1   -1    0    0  501    0 -0.00000000000E+00 -0.00000000000E+00 -0.14127414283E+04  0.14127414283E+04  0.00000000000E+00 0. -1.
         25    2    1    2    0    0 -0.16790729318E+03 -0.54206844943E+02 -0.44271827968E+02  0.22071878352E+03  0.12500218200E+03 0.  0.
          2    1    1    2  501    0 -0.76146769261E+01  0.18786637117E+03 -0.11175058375E+04  0.11332127133E+04  0.00000000000E+00 0. -1.
          1    1    1    2  502    0  0.17552197011E+03 -0.13365952622E+03 -0.76324929443E+02  0.23344876482E+03  0.00000000000E+00 0. -1.
         22    1    3    3    0    0 -0.61803806675E+02 -0.78564900426E+01  0.43023209142E+02  0.75712822429E+02  0.00000000000E+00 0. -1.
         22    1    3    3    0    0 -0.10610348651E+03 -0.46350354901E+02 -0.87295037109E+02  0.14500596109E+03  0.00000000000E+00 0. -1.
</event>
<event>
 7    1  0.6443388E-006  0.1095266E+03  0.7818608E-02  0.1286921E+00
          2   -1    0    0  502    0  0.00000000000E+00  0.00000000000E+00  0.13886694969E+04  0.13886694969E+04  0.00000000000E+00 0. -1.
          1   -1    0    0  501    0 -0.00000000000E+00 -0.00000000000E+00 -0.91790105440E+03  0.91790105440E+03  0.00000000000E+00 0. -1.
         25    2    1    2    0    0 -0.13120962620E+03  0.95551576942E+02  0.72343495648E+03  0.75188421925E+03  0.12500269216E+03 0.  0.
          2    1    1    2  501    0  0.33934306947E+02 -0.78755554489E+02 -0.89787958964E+03  0.90196548274E+03  0.00000000000E+00 0. -1.
          1    1    1    2  502    0  0.97275319255E+02 -0.16796022453E+02  0.64521307562E+03  0.65272084926E+03  0.00000000000E+00 0. -1.
         22    1    3    3    0    0 -0.14710188905E+03  0.10730882691E+03  0.68330807677E+03  0.70715208963E+03  0.00000000000E+00 0. -1.
         22    1    3    3    0    0  0.15892262851E+02 -0.11757249966E+02  0.40126879710E+02  0.44732129622E+02  0.00000000000E+00 0. -1.
</event>
<event>
 7    1  0.6443388E-006  0.8655370E+02  0.7818608E-02  0.1486899E+00
          2   -1    0    0  502    0  0.00000000000E+00  0.00000000000E+00  0.40047857931E+03  0.40047857931E+03  0.00000000000E+00 0. -1.
          1   -1    0    0  501    0 -0.00000000000E+00 -0.00000000000E+00 -0.47132179956E+03  0.47132179956E+03  0.00000000000E+00 0. -1.
         25    2    1    2    0    0  0.37274956128E+02  0.75306346196E+02 -0.10509720390E+03  0.18366022258E+03  0.12500074783E+03 0.  0.
          2    1    1    2  501    0  0.19200494005E+02 -0.94762474309E+01 -0.32137465652E+03  0.32208714363E+03  0.00000000000E+00 0. -1.
          1    1    1    2  502    0 -0.56475450133E+02 -0.65830098765E+02  0.35562864018E+03  0.36605301267E+03  0.00000000000E+00 0. -1.
         22    1    3    3    0    0  0.18135929789E+02 -0.31753147275E+02 -0.49426747308E+02  0.61483149404E+02  0.00000000000E+00 0. -1.
         22    1    3    3    0    0  0.19139026339E+02  0.10705949347E+03 -0.55670456593E+02  0.12217707317E+03  0.00000000000E+00 0. -1.
</event>
<event>
 7    1  0.6443388E-006  0.3056788E+03  0.7818608E-02  0.1196390E+00
          2   -1    0    0  502    0  0.00000000000E+00  0.00000000000E+00  0.16720614992E+04  0.16720614992E+04  0.00000000000E+00 0. -1.
          1   -1    0    0  501    0 -0.00000000000E+00 -0.00000000000E+00 -0.19740241934E+04  0.19740241934E+04  0.00000000000E+00 0. -1.
         25    2    1    2    0    0 -0.19681326841E+03 -0.27208145043E+03 -0.72983171721E+03  0.81304756440E+03  0.12501291228E+03 0.  0.
          2    1    1    2  501    0  0.11991440443E+03  0.26918769305E+03 -0.11835994920E+04  0.12197332642E+04  0.00000000000E+00 0. -1.
          1    1    1    2  502    0  0.76898863980E+02  0.28937573800E+01  0.16114685150E+04  0.16133048639E+04  0.00000000000E+00 0. -1.
         22    1    3    3    0    0 -0.38716093790E+01 -0.61717456708E+02 -0.22242350640E+03  0.23085980599E+03  0.00000000000E+00 0. -1.
         22    1    3    3    0    0 -0.19294165903E+03 -0.21036399372E+03 -0.50740821080E+03  0.58218775841E+03  0.00000000000E+00 0. -1.
</event>
<event>
 7    1  0.6443388E-006  0.1174028E+03  0.7818608E-02  0.1360831E+00
          2   -1    0    0  502    0  0.00000000000E+00  0.00000000000E+00  0.18266296841E+04  0.18266296841E+04  0.00000000000E+00 0. -1.
          1   -1    0    0  501    0 -0.00000000000E+00 -0.00000000000E+00 -0.31008475145E+03  0.31008475145E+03  0.00000000000E+00 0. -1.
         25    2    1    2    0    0 -0.46574640107E+02 -0.11837316335E+03  0.65353161885E+02  0.18993988716E+03  0.12499888825E+03 0.  0.
          2    1    1    2  501    0 -0.29539310925E+02  0.29119128917E+02 -0.24401447230E+03  0.24751476168E+03  0.00000000000E+00 0. -1.
          1    1    1    2  502    0  0.76113951032E+02  0.89254034432E+02  0.16952062430E+04  0.16992597867E+04  0.00000000000E+00 0. -1.
         22    1    3    3    0    0 -0.68826301736E+02 -0.77647924086E+02 -0.69847306621E+01  0.10399541523E+03  0.00000000000E+00 0.  1.
         22    1    3    3    0    0  0.22251661629E+02 -0.40725239263E+02  0.72337892547E+02  0.85944471936E+02  0.00000000000E+00 0.  1.
</event>
<event>
 7    1  0.6443388E-006  0.5751341E+02  0.7818608E-02  0.1460796E+00
          2   -1    0    0  502    0  0.00000000000E+00  0.00000000000E+00  0.58654959359E+03  0.58654959359E+03  0.00000000000E+00 0. -1.
          1   -1    0    0  501    0 -0.00000000000E+00 -0.00000000000E+00 -0.29621128356E+03  0.29621128356E+03  0.00000000000E+00 0. -1.
         25    2    1    2    0    0 -0.49341372879E+01 -0.70481532486E+02  0.82248676439E+02  0.16547646307E+03  0.12500249166E+03 0.  0.
          2    1    1    2  501    0 -0.29855275623E+02  0.24795893542E+02 -0.25132050167E+03  0.25429936763E+03  0.00000000000E+00 0. -1.
          1    1    1    2  502    0  0.34789412911E+02  0.45685638943E+02  0.45941013526E+03  0.46298504645E+03  0.00000000000E+00 0. -1.
         22    1    3    3    0    0 -0.24064126273E+01 -0.49882314236E+02 -0.25272372878E+02  0.55970786363E+02  0.00000000000E+00 0. -1.
         22    1    3    3    0    0 -0.25277246606E+01 -0.20599218250E+02  0.10752104932E+03  0.10950567671E+03  0.00000000000E+00 0. -1.
</event>
<event>
 7    1  0.6443388E-006  0.9026609E+02  0.7818608E-02  0.1343496E+00
          2   -1    0    0  502    0  0.00000000000E+00  0.00000000000E+00  0.22348954610E+04  0.22348954610E+04  0.00000000000E+00 0. -1.
          1   -1    0    0  501    0 -0.00000000000E+00 -0.00000000000E+00 -0.12485882368E+03  0.12485882368E+03  0.00000000000E+00 0. -1.
         25    2    1    2    0    0 -0.40277881493E+01 -0.54489004219E+02  0.79758904289E+03  0.80917593398E+03  0.12502854126E+03 0.  0.
          2    1    1    2  501    0 -0.55916621219E+02  0.72238893289E+02 -0.10074986108E+03  0.13599875272E+03  0.00000000000E+00 0. -1.
          1    1    1    2  502    0  0.59944409369E+02 -0.17749889070E+02  0.14131974555E+04  0.14145795980E+04  0.00000000000E+00 0. -1.
         22    1    3    3    0    0 -0.56915288376E+02 -0.67332559415E+01  0.49514295866E+03  0.49844883017E+03  0.00000000000E+00 0. -1.
         22    1    3    3    0    0  0.52887500227E+02 -0.47755748277E+02  0.30244608423E+03  0.31072710381E+03  0.00000000000E+00 0. -1.
</event>
<event>
 7    1  0.6443388E-006  0.1341184E+03  0.7818608E-02  0.1368184E+00
          2   -1    0    0  502    0  0.00000000000E+00  0.00000000000E+00  0.35258208687E+03  0.35258208687E+03  0.00000000000E+00 0. -1.
          1   -1    0    0  501    0 -0.00000000000E+00 -0.00000000000E+00 -0.66664233741E+03  0.66664233741E+03  0.00000000000E+00 0. -1.
         25    2    1    2    0    0 -0.12384501252E+03  0.94033665564E+02 -0.36496717641E+03  0.41593988315E+03  0.12500011661E+03 0.  0.
          2    1    1    2  501    0  0.92317410566E+02 -0.80915251374E+02 -0.26157171773E+03  0.28894557570E+03  0.00000000000E+00 0. -1.
          1    1    1    2  502    0  0.31527601949E+02 -0.13118414190E+02  0.31247864361E+03  0.31433896543E+03  0.00000000000E+00 0. -1.
         22    1    3    3    0    0 -0.35256517107E+02 -0.28682609034E+02 -0.57983223383E+02  0.73673389046E+02  0.00000000000E+00 0.  1.
         22    1    3    3    0    0 -0.88588495408E+02  0.12271627460E+03 -0.30698395303E+03  0.34226649411E+03  0.00000000000E+00 0.  1.
</event>
<event>
 7    1  0.6443388E-006  0.9263207E+02  0.7818608E-02  0.1399532E+00
          2   -1    0    0  502    0  0.00000000000E+00  0.00000000000E+00  0.94081378767E+03  0.94081378767E+03  0.00000000000E+00 0. -1.
          1   -1    0    0  501    0 -0.00000000000E+00 -0.00000000000E+00 -0.72518304162E+03  0.72518304162E+03  0.00000000000E+00 0. -1.
         25    2    1    2    0    0  0.54016400392E+02  0.11484683229E+03 -0.38706819056E+02  0.18228995246E+03  0.12499537003E+03 0.  0.
          2    1    1    2  501    0 -0.27319388478E+02 -0.26903728360E+02 -0.61165271957E+03  0.61285333396E+03  0.00000000000E+00 0. -1.
          1    1    1    2  502    0 -0.26697011914E+02 -0.87943103931E+02  0.86599028468E+03  0.87085354287E+03  0.00000000000E+00 0. -1.
         22    1    3    3    0    0  0.13382751361E+02  0.95822869007E+02  0.29054544135E+02  0.10102121952E+03  0.00000000000E+00 0.  1.
         22    1    3    3    0    0  0.40633649031E+02  0.19023963285E+02 -0.67761363191E+02  0.81268732943E+02  0.00000000000E+00 0.  1.
</event>
<event>
 7    1  0.6443388E-006  0.1278727E+03  0.7818608E-02  0.1256772E+00
          2   -1    0    0  502    0  0.00000000000E+00  0.00000000000E+00  0.12691400637E+04  0.12691400637E+04  0.00000000000E+00 0. -1.
          1   -1    0    0  501    0 -0.00000000000E+00 -0.00000000000E+00 -0.71245087030E+03  0.71245087030E+03  0.00000000000E+00 0. -1.
         25    2    1    2    0    0  0.30284738040E+02  0.34254452486E+02 -0.24474436695E+02  0.13533677273E+03  0.12500604437E+03 0.  0.
          2    1    1    2  501    0 -0.16022311193E+02  0.96916108919E+02 -0.62511241025E+03  0.63278351122E+03  0.00000000000E+00 0. -1.
          1    1    1    2  502    0 -0.14262426847E+02 -0.13117056141E+03  0.12062760403E+04  0.12134706500E+04  0.00000000000E+00 0. -1.
         22    1    3    3    0    0  0.78093654146E+02  0.14780765500E+02 -0.33253085293E+01  0.79549654452E+02  0.00000000000E+00 0. -1.
         22    1    3    3    0    0 -0.47808916106E+02  0.19473686986E+02 -0.21149128166E+02  0.55787118282E+02  0.00000000000E+00 0. -1.
</event>
<event>
 7    1  0.6443388E-006  0.1044254E+03  0.7818608E-02  0.1331029E+00
          2   -1    0    0  502    0  0.00000000000E+00  0.00000000000E+00  0.31390111128E+04  0.31390111128E+04  0.00000000000E+00 0. -1.
          1   -1    0    0  501    0 -0.00000000000E+00 -0.00000000000E+00 -0.13091586491E+04  0.13091586491E+04  0.00000000000E+00 0. -1.
         25    2    1    2    0    0 -0.41146212728E+02 -0.49409598938E+02  0.16376237023E+03  0.21581977070E+03  0.12500296090E+03 0.  0.
          2    1    1    2  501    0  0.15382718626E+02  0.10385207155E+03 -0.12806742326E+04  0.12849701829E+04  0.00000000000E+00 0. -1.
          1    1    1    2  502    0  0.25763494102E+02 -0.54442472615E+02  0.29467643261E+04  0.29473798082E+04  0.00000000000E+00 0. -1.
         22    1    3    3    0    0  0.24163778550E+02 -0.43651806145E+02  0.13555592615E+03  0.14444645197E+03  0.00000000000E+00 0.  1.
         22    1    3    3    0    0 -0.65309991278E+02 -0.57577927928E+01  0.28206444083E+02  0.71373318729E+02  0.00000000000E+00 0.  1.
</event>
<event>
 7    1  0.6443388E-006  0.7175897E+02  0.7818608E-02  0.1391295E+00
          2   -1    0    0  502    0  0.00000000000E+00  0.00000000000E+00  0.14198563258E+03  0.14198563258E+03  0.00000000000E+00 0. -1.
          1   -1    0    0  501    0 -0.00000000000E+00 -0.00000000000E+00 -0.59342495233E+03  0.59342495233E+03  0.00000000000E+00 0. -1.
         25    2    1    2    0    0  0.71755710057E+02 -0.55265003152E+02 -0.98751737326E+01  0.15467907983E+03  0.12499998473E+03 0.  0.
          2    1    1    2  501    0 -0.71630589032E+02  0.24103226546E+01 -0.49816213477E+03  0.50329142995E+03  0.00000000000E+00 0. -1.
          1    1    1    2  502    0 -0.12512102497E+00  0.52854680497E+02  0.56597988751E+02  0.77440075131E+02  0.00000000000E+00 0. -1.
         22    1    3    3    0    0  0.26927338587E+02  0.40332359125E+02  0.12281544174E+01  0.48510711387E+02  0.00000000000E+00 0. -1.
         22    1    3    3    0    0  0.44828371470E+02 -0.95597362277E+02 -0.11103328150E+02  0.10616836845E+03  0.00000000000E+00 0. -1.
</event>
<event>
 7    1  0.6443388E-006  0.6490648E+02  0.7818608E-02  0.1399298E+00
          2   -1    0    0  502    0  0.00000000000E+00  0.00000000000E+00  0.28238993124E+03  0.28238993124E+03  0.00000000000E+00 0. -1.
          1   -1    0    0  501    0 -0.00000000000E+00 -0.00000000000E+00 -0.47869934968E+03  0.47869934968E+03  0.00000000000E+00 0. -1.
         25    2    1    2    0    0  0.40048749385E+02 -0.89351238010E+00 -0.59176445081E+00  0.13126379364E+03  0.12500053058E+03 0.  0.
          2    1    1    2  501    0 -0.36714218599E+02  0.55614963150E+02 -0.40655323763E+03  0.41197875309E+03  0.00000000000E+00 0. -1.
          1    1    1    2  502    0 -0.33345307861E+01 -0.54721450770E+02  0.21083558364E+03  0.21784673419E+03  0.00000000000E+00 0. -1.
         22    1    3    3    0    0 -0.12283485609E+02  0.51339031800E+02 -0.17130696803E+02  0.55498116885E+02  0.00000000000E+00 0. -1.
         22    1    3    3    0    0  0.52332234993E+02 -0.52232544180E+02  0.16538932352E+02  0.75765676756E+02  0.00000000000E+00 0. -1.
</event>
<event>
 7    1  0.6443388E-006  0.1886605E+03  0.7818608E-02  0.1215629E+00
          2   -1    0    0  502    0  0.00000000000E+00  0.00000000000E+00  0.11012292997E+04  0.11012292997E+04  0.00000000000E+00 0. -1.
          1   -1    0    0  501    0 -0.00000000000E+00 -0.00000000000E+00 -0.12918912119E+03  0.12918912119E+03  0.00000000000E+00 0. -1.
         25    2    1    2    0    0 -0.14220315096E+03  0.12334523097E+03  0.36908181453E+03  0.43276182644E+03  0.12500252182E+03 0.  0.
          2    1    1    2  501    0  0.79067895083E+02  0.63466825600E+02 -0.51795344162E+02  0.11385309685E+03  0.00000000000E+00 0. -1.
          1    1    1    2  502    0  0.63135255878E+02 -0.18681205657E+03  0.65475370818E+03  0.68380349765E+03  0.00000000000E+00 0. -1.
         22    1    3    3    0    0  0.46265404464E-01  0.33940221532E+02  0.16482470243E+03  0.16828286695E+03  0.00000000000E+00 0.  1.
         22    1    3    3    0    0 -0.14224941637E+03  0.89405009439E+02  0.20425711210E+03  0.26447895949E+03  0.00000000000E+00 0.  1.
</event>
<event>
 7    1  0.6443388E-006  0.9215340E+02  0.7818608E-02  0.1350083E+00
          2   -1    0    0  502    0  0.00000000000E+00  0.00000000000E+00  0.14258948635E+04  0.14258948635E+04  0.00000000000E+00 0. -1.
          1   -1    0    0  501    0 -0.00000000000E+00 -0.00000000000E+00 -0.51598176098E+03  0.51598176098E+03  0.00000000000E+00 0. -1.
         25    2    1    2    0    0 -0.75552649793E+02 -0.86781674724E+02  0.50695414051E+03  0.53466579563E+03  0.12500300185E+03 0.  0.
          2    1    1    2  501    0  0.57842041622E+02 -0.19489084065E+01 -0.49818519261E+03  0.50153562801E+03  0.00000000000E+00 0. -1.
          1    1    1    2  502    0  0.17710608171E+02  0.88730583130E+02  0.90114415466E+03  0.90567520089E+03  0.00000000000E+00 0. -1.
         22    1    3    3    0    0 -0.15734258330E+02 -0.10578182205E+03  0.33146361931E+03  0.34828937923E+03  0.00000000000E+00 0.  1.
         22    1    3    3    0    0 -0.59818391463E+02  0.19000147325E+02  0.17549052120E+03  0.18637641640E+03  0.00000000000E+00 0.  1.
</event>
<event>
 7    1  0.6443388E-006  0.1278438E+03  0.7818608E-02  0.1367245E+00
          2   -1    0    0  502    0  0.00000000000E+00  0.00000000000E+00  0.29760230421E+04  0.29760230421E+04  0.00000000000E+00 0. -1.
          1   -1    0    0  501    0 -0.00000000000E+00 -0.00000000000E+00 -0.30458215936E+02  0.30458215936E+02  0.00000000000E+00 0. -1.
         25    2    1    2    0    0 -0.97832527279E+02  0.91921338074E+02  0.38330211092E+03  0.42493156869E+03  0.12500237617E+03 0.  0.
          2    1    1    2  501    0 -0.15307243595E+02 -0.32698706629E+02  0.32535273479E+02  0.48601040545E+02  0.00000000000E+00 0. -1.
          1    1    1    2  502    0  0.11313977087E+03 -0.59222631444E+02  0.25297274417E+04  0.25329486488E+04  0.00000000000E+00 0. -1.
         22    1    3    3    0    0 -0.60439407452E+01  0.67630364472E+01  0.21485850033E+03  0.21504986176E+03  0.00000000000E+00 0.  1.
         22    1    3    3    0    0 -0.91788586533E+02  0.85158301626E+02  0.16844361059E+03  0.20988170693E+03  0.00000000000E+00 0.  1.
</event>
<event>
 7    1  0.6443388E-006  0.7043988E+02  0.7818608E-02  0.1388428E+00
          2   -1    0    0  502    0  0.00000000000E+00  0.00000000000E+00  0.32716184259E+04  0.32716184259E+04  0.00000000000E+00 0. -1.
          1   -1    0    0  501    0 -0.00000000000E+00 -0.00000000000E+00 -0.17345155280E+03  0.17345155280E+03  0.00000000000E+00 0. -1.
         25    2    1    2    0    0  0.31209165420E+02 -0.10916624038E+03  0.65328917298E+03  0.67476123885E+03  0.12499882349E+03 0.  0.
          2    1    1    2  501    0  0.72086841867E+01  0.69669053242E+02 -0.15487276014E+03  0.16997445085E+03  0.00000000000E+00 0. -1.
          1    1    1    2  502    0 -0.38417849607E+02  0.39497187135E+02  0.25997504603E+04  0.26003342890E+04  0.00000000000E+00 0. -1.
         22    1    3    3    0    0  0.76651156968E+02 -0.67820783191E+02  0.48310356469E+03  0.49382599437E+03  0.00000000000E+00 0. -1.
         22    1    3    3    0    0 -0.45441991547E+02 -0.41345457186E+02  0.17018560829E+03  0.18093524448E+03  0.00000000000E+00 0. -1.
</event>
<event>
 7    1  0.6443388E-006  0.1100517E+03  0.7818608E-02  0.1295684E+00
          2   -1    0    0  502    0  0.00000000000E+00  0.00000000000E+00  0.19975187234E+04  0.19975187234E+04  0.00000000000E+00 0. -1.
          1   -1    0    0  501    0 -0.00000000000E+00 -0.00000000000E+00 -0.43320478124E+03  0.43320478124E+03  0.00000000000E+00 0. -1.
         25    2    1    2    0    0  0.17231348266E+03 -0.35290588362E+02  0.24258470055E+03  0.32465849917E+03  0.12497376607E+03 0.  0.
          2    1    1    2  501    0 -0.65069961667E+02  0.44151798184E+02 -0.38651593364E+03  0.39443383241E+03  0.00000000000E+00 0. -1.
          1    1    1    2  502    0 -0.10724352099E+03 -0.88612098221E+01  0.17082451753E+04  0.17116311731E+04  0.00000000000E+00 0. -1.
         22    1    3    3    0    0  0.86670284926E+02  0.73238692119E+01  0.20352481982E+03  0.22133171854E+03  0.00000000000E+00 0.  1.
         22    1    3    3    0    0  0.85643197731E+02 -0.42614457574E+02  0.39059880736E+02  0.10332678063E+03  0.00000000000E+00 0.  1.
</event>
<event>
 7    1  0.6443388E-006  0.4487422E+02  0.7818608E-02  0.1491503E+00
          2   -1    0    0  502    0  0.00000000000E+00  0.00000000000E+00  0.81031782822E+02  0.81031782822E+02  0.00000000000E+00 0. -1.
          1   -1    0    0  501    0 -0.00000000000E+00 -0.00000000000E+00 -0.51346480792E+03  0.51346480792E+03  0.00000000000E+00 0. -1.
         25    2    1    2    0    0 -0.33956853639E+02  0.51731668099E+02 -0.23501657517E+03  0.27329027218E+03  0.12500219545E+03 0.  0.
          2    1    1    2  501    0 -0.89648813466E+01 -0.38976330143E+02 -0.24940597726E+03  0.25259228987E+03  0.00000000000E+00 0. -1.
          1    1    1    2  502    0  0.42921734986E+02 -0.12755337956E+02  0.51989527338E+02  0.68614028692E+02  0.00000000000E+00 0. -1.
         22    1    3    3    0    0 -0.29661010172E+02  0.88925036218E+02 -0.20459702995E+03  0.22504973285E+03  0.00000000000E+00 0. -1.
         22    1    3    3    0    0 -0.42958434675E+01 -0.37193368120E+02 -0.30419545226E+02  0.48240539331E+02  0.00000000000E+00 0. -1.
</event>
<event>
 7    1  0.6443388E-006  0.1987668E+03  0.7818608E-02  0.1198144E+00
          2   -1    0    0  502    0  0.00000000000E+00  0.00000000000E+00  0.22416037104E+03  0.22416037104E+03  0.00000000000E+00 0. -1.
          1   -1    0    0  501    0 -0.00000000000E+00 -0.00000000000E+00 -0.35541471705E+03  0.35541471705E+03  0.00000000000E+00 0. -1.
         25    2    1    2    0    0  0.65485136795E+02 -0.83405124727E+00 -0.65792007803E+02  0.15570325158E+03  0.12500366186E+03 0.  0.
          2    1    1    2  501    0  0.29405951942E+02  0.19657955734E+03 -0.82354428853E+01  0.19893731398E+03  0.00000000000E+00 0. -1.
          1    1    1    2  502    0 -0.94891088737E+02 -0.19574550609E+03 -0.57226895321E+02  0.22493452253E+03  0.00000000000E+00 0. -1.
         22    1    3    3    0    0  0.81539991403E+02  0.42121464164E+02 -0.59595893113E+02  0.10942878240E+03  0.00000000000E+00 0. -1.
         22    1    3    3    0    0 -0.16054854608E+02 -0.42955515412E+02 -0.61961146901E+01  0.46274469181E+02  0.00000000000E+00 0. -1.
</event>
<event>
 7    1  0.6443388E-006  0.1433429E+03  0.7818608E-02  0.1225055E+00
          2   -1    0    0  502    0  0.00000000000E+00  0.00000000000E+00  0.16771101898E+04  0.16771101898E+04  0.00000000000E+00 0. -1.
          1   -1    0    0  501    0 -0.00000000000E+00 -0.00000000000E+00 -0.26535999533E+03  0.26535999533E+03  0.00000000000E+00 0. -1.
         25    2    1    2    0    0  0.38431785536E+02  0.63048089701E+02  0.32425312483E+03  0.35527031244E+03  0.12499936875E+03 0.  0.
          2    1    1    2  501    0  0.10245099647E+03 -0.10025457462E+03 -0.22492266105E+03  0.26671593477E+03  0.00000000000E+00 0. -1.
          1    1    1    2  502    0 -0.14088278201E+03  0.37206484918E+02  0.13124197307E+04  0.13204839379E+04  0.00000000000E+00 0. -1.
         22    1    3    3    0    0  0.22288720225E+02 -0.11475351514E+02  0.24128823385E+03  0.24258706177E+03  0.00000000000E+00 0. -1.
         22    1    3    3    0    0  0.16143065311E+02  0.74523441216E+02  0.82964890975E+02  0.11268325068E+03  0.00000000000E+00 0. -1.
</event>
<event>
 7    1  0.6443388E-006  0.4654181E+02  0.7818608E-02  0.1522979E+00
          2   -1    0    0  502    0  0.00000000000E+00  0.00000000000E+00  0.24980652111E+04  0.24980652111E+04  0.00000000000E+00 0. -1.
          1   -1    0    0  501    0 -0.00000000000E+00 -0.00000000000E+00 -0.84354339797E+02  0.84354339797E+02  0.00000000000E+00 0. -1.
         25    2    1    2    0    0 -0.51637619853E+02  0.34862534449E+02  0.70509114857E+03  0.71879085018E+03  0.12499967366E+03 0.  0.
          2    1    1    2  501    0  0.21193584245E+02 -0.41346859232E+02 -0.70392846890E+02  0.84343841949E+02  0.00000000000E+00 0. -1.
          1    1    1    2  502    0  0.30444035608E+02  0.64843247827E+01  0.17790125696E+04  0.17792848588E+04  0.00000000000E+00 0. -1.
         22    1    3    3    0    0 -0.26654778517E+02  0.21858864785E+02  0.38785791833E+02  0.51890508145E+02  0.00000000000E+00 0.  1.
         22    1    3    3    0    0 -0.24982841336E+02  0.13003669664E+02  0.66630535674E+03  0.66690034203E+03  0.00000000000E+00 0.  1.
</event>
<event>
 7    1  0.6443388E-006  0.4816842E+02  0.7818608E-02  0.1471383E+00
          2   -1    0    0  502    0  0.00000000000E+00  0.00000000000E+00  0.93622472849E+03  0.93622472849E+03  0.00000000000E+00 0. -1.
          1   -1    0    0  501    0 -0.00000000000E+00 -0.00000000000E+00 -0.14503782498E+04  0.14503782498E+04  0.00000000000E+00 0. -1.
         25    2    1    2    0    0  0.33808455360E+02 -0.28502262764E+01  0.30738826624E+03  0.33356214664E+03  0.12500009603E+03 0.  0.
          2    1    1    2  501    0 -0.29989180419E+01  0.42831860914E+02 -0.14359354596E+04  0.14365772538E+04  0.00000000000E+00 0. -1.
          1    1    1    2  502    0 -0.30809537318E+02 -0.39981634637E+02  0.61439367203E+03  0.61646357794E+03  0.00000000000E+00 0. -1.
         22    1    3    3    0    0 -0.30103323535E+02  0.24373546401E+02  0.34172364688E+02  0.51652980170E+02  0.00000000000E+00 0.  1.
         22    1    3    3    0    0  0.63911778895E+02 -0.27223772678E+02  0.27321590155E+03  0.28190916647E+03  0.00000000000E+00 0.  1.
</event>
<event>
 7    1  0.6443388E-006  0.6342967E+02  0.7818608E-02  0.1409491E+00
          2   -1    0    0  502    0  0.00000000000E+00  0.00000000000E+00  0.35887222851E+04  0.35887222851E+04  0.00000000000E+00 0. -1.
          1   -1    0    0  501    0 -0.00000000000E+00 -0.00000000000E+00 -0.31866148885E+03  0.31866148885E+03  0.00000000000E+00 0. -1.
         25    2    1    2    0    0  0.96437479369E+02 -0.35014594510E+02  0.21421964287E+04  0.21482899776E+04  0.12497231603E+03 0.  0.
          2    1    1    2  501    0 -0.63210804829E+02 -0.46938984124E+01 -0.31196230571E+03  0.31833648662E+03  0.00000000000E+00 0. -1.
          1    1    1    2  502    0 -0.33226674540E+02  0.39708492922E+02  0.14398266733E+04  0.14407573097E+04  0.00000000000E+00 0. -1.
         22    1    3    3    0    0  0.38534509680E+02 -0.28591816160E+02  0.18344709689E+04  0.18350983996E+04  0.00000000000E+00 0.  1.
         22    1    3    3    0    0  0.57902969688E+02 -0.64227783498E+01  0.30772545971E+03  0.31319157801E+03  0.00000000000E+00 0.  1.
</event>
<event>
 7    1  0.6443388E-006  0.5994486E+02  0.7818608E-02  0.1470832E+00
          2   -1    0    0  502    0  0.00000000000E+00  0.00000000000E+00  0.24894431883E+03  0.24894431883E+03  0.00000000000E+00 0. -1.
          1   -1    0    0  501    0 -0.00000000000E+00 -0.00000000000E+00 -0.13186003376E+04  0.13186003376E+04  0.00000000000E+00 0. -1.
         25    2    1    2    0    0 -0.57306587553E+02  0.37069662830E+02 -0.35881709550E+03  0.38604811126E+03  0.12500092522E+03 0.  0.
          2    1    1    2  501    0 -0.25954199257E+01 -0.34540554966E+02 -0.94202551448E+03  0.94266211130E+03  0.00000000000E+00 0. -1.
          1    1    1    2  502    0  0.59902007479E+02 -0.25291078643E+01  0.23118659117E+03  0.23883443391E+03  0.00000000000E+00 0. -1.
         22    1    3    3    0    0  0.19594224238E+02  0.26707873573E+02 -0.20519119114E+02  0.38965091858E+02  0.00000000000E+00 0.  1.
         22    1    3    3    0    0 -0.76900811791E+02  0.10361789257E+02 -0.33829797638E+03  0.34708301940E+03  0.00000000000E+00 0.  1.
</event>
<event>
 7    1  0.6443388E-006  0.7722378E+02  0.7818608E-02  0.1347758E+00
          2   -1    0    0  502    0  0.00000000000E+00  0.00000000000E+00  0.85315449011E+03  0.85315449011E+03  0.00000000000E+00 0. -1.
          1   -1    0    0  501    0 -0.00000000000E+00 -0.00000000000E+00 -0.58530062781E+02  0.58530062781E+02  0.00000000000E+00 0. -1.
         25    2    1    2    0    0  0.59368734051E+02 -0.44217932670E+02  0.70542537465E+02  0.16149554455E+03  0.12499875665E+03 0.  0.
          2    1    1    2  501    0 -0.83470170503E+02 -0.29148494630E+02  0.17879106652E+03  0.19945713717E+03  0.00000000000E+00 0. -1.
          1    1    1    2  502    0  0.24101436452E+02  0.73366427300E+02  0.54529082335E+03  0.55073187117E+03  0.00000000000E+00 0. -1.
         22    1    3    3    0    0  0.36132602740E+01  0.11701279083E+02 -0.30727072077E+02  0.33077613886E+02  0.00000000000E+00 0.  1.
         22    1    3    3    0    0  0.55755473777E+02 -0.55919211753E+02  0.10126960954E+03  0.12841793066E+03  0.00000000000E+00 0.  1.
</event>
<event>
 7    1  0.6443388E-006  0.1319893E+03  0.7818608E-02  0.1283925E+00
          2   -1    0    0  502    0  0.00000000000E+00  0.00000000000E+00  0.56097980819E+03  0.56097980819E+03  0.00000000000E+00 0. -1.
          1   -1    0    0  501    0 -0.00000000000E+00 -0.00000000000E+00 -0.30378966229E+03  0.30378966229E+03  0.00000000000E+00 0. -1.
         25    2    1    2    0    0  0.13988337945E+02  0.80600783726E+02  0.10146916146E+03  0.18059121454E+03  0.12500014442E+03 0.  0.
          2    1    1    2  501    0 -0.78371897784E+02 -0.11542986887E+03 -0.24223688946E+03  0.27954412819E+03  0.00000000000E+00 0. -1.
          1    1    1    2  502    0  0.64383559839E+02  0.34829085143E+02  0.39795787389E+03  0.40463412775E+03  0.00000000000E+00 0. -1.
         22    1    3    3    0    0 -0.12045834139E+01  0.11192912019E+03  0.61999440459E+02  0.12795901526E+03  0.00000000000E+00 0.  1.
         22    1    3    3    0    0  0.15192921359E+02 -0.31328336465E+02  0.39469721004E+02  0.52632199282E+02  0.00000000000E+00 0.  1.
</event>
<event>
 7    1  0.6443388E-006  0.7578035E+02  0.7818608E-02  0.1468474E+00
          2   -1    0    0  502    0  0.00000000000E+00  0.00000000000E+00  0.75470757507E+03  0.75470757507E+03  0.00000000000E+00 0. -1.
          1   -1    0    0  501    0 -0.00000000000E+00 -0.00000000000E+00 -0.33625623412E+03  0.33625623412E+03  0.00000000000E+00 0. -1.
         25    2    1    2    0    0  0.60786521018E+02  0.79773588156E+02  0.47406419945E+03  0.50042059268E+03  0.12500031150E+03 0.  0.
          2    1    1    2  501    0 -0.36452417530E+02 -0.66193992004E+02 -0.31791108771E+03  0.32676885257E+03  0.00000000000E+00 0. -1.
          1    1    1    2  502    0 -0.24334103487E+02 -0.13579596153E+02  0.26229822921E+03  0.26377436394E+03  0.00000000000E+00 0. -1.
         22    1    3    3    0    0  0.28157542571E+02 -0.35973412865E+01  0.32713142841E+03  0.32836071556E+03  0.00000000000E+00 0. -1.
         22    1    3    3    0    0  0.32628978447E+02  0.83370929443E+02  0.14693277104E+03  0.17205987712E+03  0.00000000000E+00 0. -1.
</event>
<event>
 7    1  0.6443388E-006  0.3449381E+02  0.7818608E-02  0.1632666E+00
          2   -1    0    0  502    0  0.00000000000E+00  0.00000000000E+00  0.14786207084E+03  0.14786207084E+03  0.00000000000E+00 0. -1.
          1   -1    0    0  501    0 -0.00000000000E+00 -0.00000000000E+00 -0.28632522800E+04  0.28632522800E+04  0.00000000000E+00 0. -1.
         25    2    1    2    0    0  0.13983647738E+02  0.32638220934E+01 -0.11712261810E+04  0.11779649816E+04  0.12499814361E+03 0.  0.
          2    1    1    2  501    0 -0.34334810292E+02 -0.94714807783E+01 -0.16876845153E+04  0.16880603103E+04  0.00000000000E+00 0. -1.
          1    1    1    2  502    0  0.20351162555E+02  0.62076586849E+01  0.14352048704E+03  0.14508905900E+03  0.00000000000E+00 0. -1.
         22    1    3    3    0    0  0.10396447995E+02  0.62364761222E+02 -0.73943459564E+03  0.74213271778E+03  0.00000000000E+00 0.  1.
         22    1    3    3    0    0  0.35871997425E+01 -0.59100939128E+02 -0.43179158531E+03  0.43583226379E+03  0.00000000000E+00 0.  1.
</event>
<event>
 7    1  0.6443388E-006  0.6168649E+02  0.7818608E-02  0.1436557E+00
          2   -1    0    0  502    0  0.00000000000E+00  0.00000000000E+00  0.48478350294E+03  0.48478350294E+03  0.00000000000E+00 0. -1.
          1   -1    0    0  501    0 -0.00000000000E+00 -0.00000000000E+00 -0.40902065977E+03  0.40902065977E+03  0.00000000000E+00 0. -1.
         25    2    1    2    0    0 -0.80543005398E+02  0.43553530287E+02  0.45836771682E+02  0.16158753746E+03  0.12500174761E+03 0.  0.
          2    1    1    2  501    0  0.37523468396E+02 -0.48232571292E+02 -0.34723999875E+03  0.35257624472E+03  0.00000000000E+00 0. -1.
          1    1    1    2  502    0  0.43019537003E+02  0.46790410050E+01  0.37716607023E+03  0.37964038052E+03  0.00000000000E+00 0. -1.
         22    1    3    3    0    0 -0.94837996037E+02  0.74456366338E+02  0.40044337197E+02  0.12704937986E+03  0.00000000000E+00 0.  1.
         22    1    3    3    0    0  0.14294990639E+02 -0.30902836051E+02  0.57924344848E+01  0.34538157603E+02  0.00000000000E+00 0.  1.
</event>
<event>
 7    1  0.6443388E-006  0.8401674E+02  0.7818608E-02  0.1374314E+00
          2   -1    0    0  502    0  0.00000000000E+00  0.00000000000E+00  0.74299323211E+02  0.74299323211E+02  0.00000000000E+00 0. -1.
          1   -1    0    0  501    0 -0.00000000000E+00 -0.00000000000E+00 -0.87861776893E+03  0.87861776893E+03  0.00000000000E+00 0. -1.
         25    2    1    2    0    0  0.47499584158E+02  0.32193298735E+02 -0.50717726304E+03  0.52549619876E+03  0.12499943915E+03 0.  0.
          2    1    1    2  501    0 -0.17822147417E+02  0.48657781845E+02 -0.33088694051E+03  0.33491995472E+03  0.00000000000E+00 0. -1.
          1    1    1    2  502    0 -0.29677436741E+02 -0.80851080580E+02  0.33745757823E+02  0.92500938663E+02  0.00000000000E+00 0. -1.
         22    1    3    3    0    0  0.39676460606E+02 -0.21038550047E+02 -0.42440180874E+03  0.42677129399E+03  0.00000000000E+00 0. -1.
         22    1    3    3    0    0  0.78231235523E+01  0.53231848782E+02 -0.82775454298E+02  0.98724904766E+02  0.00000000000E+00 0. -1.
</event>
<event>
 7    1  0.6443388E-006  0.7008901E+02  0.7818608E-02  0.1361158E+00
          2   -1    0    0  502    0  0.00000000000E+00  0.00000000000E+00  0.12273395695E+04  0.12273395695E+04  0.00000000000E+00 0. -1.
          1   -1    0    0  501    0 -0.00000000000E+00 -0.00000000000E+00 -0.36978789108E+03  0.36978789108E+03  0.00000000000E+00 0. -1.
         25    2    1    2    0    0  0.30555310931E+01 -0.58872389598E+02  0.15551445279E+03  0.20805334956E+03  0.12500462674E+03 0.  0.
          2    1    1    2  501    0  0.61891630683E+02  0.34730112213E+02 -0.33868854269E+03  0.34604433761E+03  0.00000000000E+00 0. -1.
          1    1    1    2  502    0 -0.64947161776E+02  0.24142277385E+02  0.10407257683E+04  0.10430297734E+04  0.00000000000E+00 0. -1.
         22    1    3    3    0    0 -0.13856082040E+02 -0.75830554827E+02  0.34086554582E+02  0.84286162910E+02  0.00000000000E+00 0. -1.
         22    1    3    3    0    0  0.16911613133E+02  0.16958165229E+02  0.12142789821E+03  0.12376718665E+03  0.00000000000E+00 0. -1.
</event>
<event>
 7    1  0.6443388E-006  0.7629998E+02  0.7818608E-02  0.1504850E+00
          2   -1    0    0  502    0  0.00000000000E+00  0.00000000000E+00  0.10220959807E+04  0.10220959807E+04  0.00000000000E+00 0. -1.
          1   -1    0    0  501    0 -0.00000000000E+00 -0.00000000000E+00 -0.80438604108E+03  0.80438604108E+03  0.00000000000E+00 0. -1.
         25    2    1    2    0    0  0.94341703026E+02  0.24649734866E+02  0.45277147515E+03  0.47972418431E+03  0.12500127178E+03 0.  0.
          2    1    1    2  501    0 -0.74296875416E+02 -0.16998440888E+02 -0.78886530679E+03  0.79253860785E+03  0.00000000000E+00 0. -1.
          1    1    1    2  502    0 -0.20044827610E+02 -0.76512939780E+01  0.55380377121E+03  0.55421922956E+03  0.00000000000E+00 0. -1.
         22    1    3    3    0    0  0.13517529779E+02  0.64235115652E+02  0.14715135563E+03  0.16112850511E+03  0.00000000000E+00 0.  1.
         22    1    3    3    0    0  0.80824173247E+02 -0.39585380786E+02  0.30562011952E+03  0.31859567921E+03  0.00000000000E+00 0.  1.
</event>
<event>
 7    1  0.6443388E-006  0.3654732E+02  0.7818608E-02  0.1544383E+00
          2   -1    0    0  502    0  0.00000000000E+00  0.00000000000E+00  0.99768224621E+02  0.99768224621E+02  0.00000000000E+00 0. -1.
          1   -1    0    0  501    0 -0.00000000000E+00 -0.00000000000E+00 -0.44419565066E+03  0.44419565066E+03  0.00000000000E+00 0. -1.
         25    2    1    2    0    0  0.16408587493E+02 -0.62104520418E+02 -0.20724576915E+03  0.25040223013E+03  0.12499701926E+03 0.  0.
          2    1    1    2  501    0  0.61594628406E+01  0.33887688984E+02 -0.20971635784E+03  0.21252591652E+03  0.00000000000E+00 0. -1.
          1    1    1    2  502    0 -0.22568050333E+02  0.28216831434E+02  0.72534700953E+02  0.81035728629E+02  0.00000000000E+00 0. -1.
         22    1    3    3    0    0  0.34763694764E+02 -0.89573970502E+02 -0.19050811812E+03  0.21336671187E+03  0.00000000000E+00 0. -1.
         22    1    3    3    0    0 -0.18355107272E+02  0.27469450084E+02 -0.16737651035E+02  0.37035518264E+02  0.00000000000E+00 0. -1.
</event>
<event>
 7    1  0.6443388E-006  0.5056861E+02  0.7818608E-02  0.1504487E+00
          2   -1    0    0  502    0  0.00000000000E+00  0.00000000000E+00  0.41542126264E+03  0.41542126264E+03  0.00000000000E+00 0. -1.
          1   -1    0    0  501    0 -0.00000000000E+00 -0.00000000000E+00 -0.89973425826E+02  0.89973425826E+02  0.00000000000E+00 0. -1.
         25    2    1    2    0    0  0.47489410402E+02 -0.44259973034E+02  0.15969242593E+03  0.21293196545E+03  0.12499664674E+03 0.  0.
          2    1    1    2  501    0 -0.48798890886E+02  0.11833207611E+02 -0.52009150737E+02  0.72293210708E+02  0.00000000000E+00 0. -1.
          1    1    1    2  502    0  0.13094804837E+01  0.32426765423E+02  0.21776456162E+03  0.22016951231E+03  0.00000000000E+00 0. -1.
         22    1    3    3    0    0  0.55568833008E+01 -0.33841731418E+02 -0.11654673888E+02  0.36221170064E+02  0.00000000000E+00 0. -1.
         22    1    3    3    0    0  0.41932527101E+02 -0.10418241616E+02  0.17134709982E+03  0.17671079538E+03  0.00000000000E+00 0. -1.
</event>
<event>
 7    1  0.6443388E-006  0.6308193E+02  0.7818608E-02  0.1451817E+00
          2   -1    0    0  502    0  0.00000000000E+00  0.00000000000E+00  0.15097058621E+03  0.15097058621E+03  0.00000000000E+00 0. -1.
          1   -1    0    0  501    0 -0.00000000000E+00 -0.00000000000E+00 -0.28111488847E+03  0.28111488847E+03  0.00000000000E+00 0. -1.
         25    2    1    2    0    0  0.34319214626E+02  0.26825193150E+02  0.53917238632E+02  0.14293072617E+03  0.12499889752E+03 0.  0.
          2    1    1    2  501    0 -0.19121180267E+02 -0.61414680473E+02 -0.22466559420E+03  0.23369213023E+03  0.00000000000E+00 0. -1.
          1    1    1    2  502    0 -0.15198034360E+02  0.34589487323E+02  0.40604053309E+02  0.55462618283E+02  0.00000000000E+00 0. -1.
         22    1    3    3    0    0 -0.22553419579E+02  0.60304750906E+02  0.38985124821E+02  0.75267254991E+02  0.00000000000E+00 0.  1.
         22    1    3    3    0    0  0.56872634206E+02 -0.33479557756E+02  0.14932113812E+02  0.67663471178E+02  0.00000000000E+00 0.  1.
</event>
<event>
 7    1  0.6443388E-006  0.2013656E+03  0.7818608E-02  0.1215424E+00
          2   -1    0    0  502    0  0.00000000000E+00  0.00000000000E+00  0.15113411892E+04  0.15113411892E+04  0.00000000000E+00 0. -1.
          1   -1    0    0  501    0 -0.00000000000E+00 -0.00000000000E+00 -0.25350512823E+03  0.25350512823E+03  0.00000000000E+00 0. -1.
         25    2    1    2    0    0 -0.21974311938E+03 -0.19254167154E+03  0.90006379730E+03  0.95451485527E+03  0.12499774367E+03 0.  0.
          2    1    1    2  501    0  0.15080369342E+03  0.12689143930E+03 -0.17836119025E+03  0.26581178587E+03  0.00000000000E+00 0. -1.
          1    1    1    2  502    0  0.68939425961E+02  0.65650232245E+02  0.53613345396E+03  0.54451967632E+03  0.00000000000E+00 0. -1.
         22    1    3    3    0    0 -0.75150691617E+02 -0.14792357949E+03  0.49847169377E+03  0.52535991597E+03  0.00000000000E+00 0.  1.
         22    1    3    3    0    0 -0.14459242777E+03 -0.44618092049E+02  0.40159210354E+03  0.42915493930E+03  0.00000000000E+00 0.  1.
</event>
<event>
 7    1  0.6443388E-006  0.1949640E+03  0.7818608E-02  0.1252933E+00
          2   -1    0    0  502    0  0.00000000000E+00  0.00000000000E+00  0.68171826412E+03  0.68171826412E+03  0.00000000000E+00 0. -1.
          1   -1    0    0  501    0 -0.00000000000E+00 -0.00000000000E+00 -0.75937122774E+03  0.75937122774E+03  0.00000000000E+00 0. -1.
         25    2    1    2    0    0 -0.38139894381E+02 -0.17253034896E+03  0.11317173302E+03  0.24424356637E+03  0.12500282278E+03 0.  0.
          2    1    1    2  501    0  0.60187335209E+02 -0.29269015553E+02 -0.67162296932E+03  0.67494933403E+03  0.00000000000E+00 0. -1.
          1    1    1    2  502    0 -0.22047440829E+02  0.20179936451E+03  0.48079827268E+03  0.52189659146E+03  0.00000000000E+00 0. -1.
         22    1    3    3    0    0  0.19040517812E+02  0.10934661169E+02  0.15571658389E+01  0.22012108007E+02  0.00000000000E+00 0. -1.
         22    1    3    3    0    0 -0.57180412193E+02 -0.18346501013E+03  0.11161456718E+03  0.22223145836E+03  0.00000000000E+00 0. -1.
</event>
<event>
 7    1  0.6443388E-006  0.1643545E+03  0.7818608E-02  0.1185435E+00
          2   -1    0    0  502    0  0.00000000000E+00  0.00000000000E+00  0.17395314559E+03  0.17395314559E+03  0.00000000000E+00 0. -1.
          1   -1    0    0  501    0 -0.00000000000E+00 -0.00000000000E+00 -0.14527978659E+04  0.14527978659E+04  0.00000000000E+00 0. -1.
         25    2    1    2    0    0 -0.40169939097E+02  0.11878576952E+03 -0.12767416671E+03  0.21828627372E+03  0.12499808559E+03 0.  0.
          2    1    1    2  501    0 -0.15097844507E+03 -0.64945432728E+02 -0.11940447867E+04  0.12053030128E+04  0.00000000000E+00 0. -1.
          1    1    1    2  502    0  0.19114838417E+03 -0.53840336796E+02  0.42874233055E+02  0.20316172498E+03  0.00000000000E+00 0. -1.
         22    1    3    3    0    0 -0.54402050452E+02  0.10510780982E+03 -0.14829996643E+03  0.18973696219E+03  0.00000000000E+00 0.  1.
         22    1    3    3    0    0  0.14232111355E+02  0.13677959704E+02  0.20625799713E+02  0.28549311534E+02  0.00000000000E+00 0.  1.
</event>
<event>
 7    1  0.6443388E-006  0.1353935E+03  0.7818608E-02  0.1232947E+00
          2   -1    0    0  502    0  0.00000000000E+00  0.00000000000E+00  0.18815206761E+04  0.18815206761E+04  0.00000000000E+00 0. -1.
          1   -1    0    0  501    0 -0.00000000000E+00 -0.00000000000E+00 -0.14424226287E+04  0.14424226287E+04  0.00000000000E+00 0. -1.
         25    2    1    2    0    0  0.23117092392E+03  0.77285399240E+02  0.33091835592E+03  0.42958744462E+03  0.12500154115E+03 0.  0.
          2    1    1    2  501    0 -0.10338470838E+03 -0.56765612712E+02 -0.13877926556E+04  0.13927954580E+04  0.00000000000E+00 0. -1.
          1    1    1    2  502    0 -0.12778621554E+03 -0.20519786528E+02  0.14959723471E+04  0.15015604023E+04  0.00000000000E+00 0. -1.
         22    1    3    3    0    0  0.22056998417E+03  0.88710189605E+02  0.33736818893E+03  0.41272013588E+03  0.00000000000E+00 0. -1.
         22    1    3    3    0    0  0.10600939745E+02 -0.11424790366E+02 -0.64498330077E+01  0.16867308742E+02  0.00000000000E+00 0. -1.
</event>
<event>
 7    1  0.6443388E-006  0.4446439E+02  0.7818608E-02  0.1527818E+00
          2   -1    0    0  502    0  0.00000000000E+00  0.00000000000E+00  0.89998027346E+03  0.89998027346E+03  0.00000000000E+00 0. -1.
          1   -1    0    0  501    0 -0.00000000000E+00 -0.00000000000E+00 -0.43859633679E+02  0.43859633679E+02  0.00000000000E+00 0. -1.
         25    2    1    2    0    0  0.37646826557E+02 -0.63670309112E+02  0.35275095241E+03  0.38148296075E+03  0.12499929242E+03 0.  0.
          2    1    1    2  501    0 -0.26392042214E+02  0.34194797434E+02 -0.12934053196E+02  0.45090063161E+02  0.00000000000E+00 0. -1.
          1    1    1    2  502    0 -0.11254784343E+02  0.29475511678E+02  0.51630374056E+03  0.51726688322E+03  0.00000000000E+00 0. -1.
         22    1    3    3    0    0  0.30848053969E+02 -0.39365325437E+02  0.35271694038E+03  0.35624495970E+03  0.00000000000E+00 0.  1.
         22    1    3    3    0    0  0.67987725875E+01 -0.24304983676E+02  0.34012027826E-01  0.25238001050E+02  0.00000000000E+00 0.  1.
</event>
<event>
 7    1  0.6443388E-006  0.1063978E+03  0.7818608E-02  0.1353269E+00
          2   -1    0    0  502    0  0.00000000000E+00  0.00000000000E+00  0.25112458677E+03  0.25112458677E+03  0.00000000000E+00 0. -1.
          1   -1    0    0  501    0 -0.00000000000E+00 -0.00000000000E+00 -0.11271895273E+04  0.11271895273E+04  0.00000000000E+00 0. -1.
         25    2    1    2    0    0  0.11707523074E+03  0.25843252566E+02 -0.49475605108E+03  0.52419813521E+03  0.12500260605E+03 0.  0.
          2    1    1    2  501    0 -0.12894755573E+02 -0.47050812748E+02 -0.60472678516E+03  0.60669146887E+03  0.00000000000E+00 0. -1.
          1    1    1    2  502    0 -0.10418047516E+03  0.21207560182E+02  0.22341789573E+03  0.24742450999E+03  0.00000000000E+00 0. -1.
         22    1    3    3    0    0  0.52385640990E+02 -0.15356338837E+02 -0.53882541256E+02  0.76703329631E+02  0.00000000000E+00 0. -1.
         22    1    3    3    0    0  0.64689589745E+02  0.41199591402E+02 -0.44087350983E+03  0.44749480558E+03  0.00000000000E+00 0. -1.
</event>
<event>
 7    1  0.6443388E-006  0.9486005E+02  0.7818608E-02  0.1401432E+00
          2   -1    0    0  502    0  0.00000000000E+00  0.00000000000E+00  0.73012695243E+02  0.73012695243E+02  0.00000000000E+00 0. -1.
          1   -1    0    0  501    0 -0.00000000000E+00 -0.00000000000E+00 -0.86807524640E+03  0.86807524640E+03  0.00000000000E+00 0. -1.
         25    2    1    2    0    0  0.12037010845E+03 -0.13827765818E+02 -0.59360007326E+03  0.61860156174E+03  0.12500670021E+03 0.  0.
          2    1    1    2  501    0 -0.32393465354E+02 -0.17636942104E+02 -0.22347176704E+03  0.22649509705E+03  0.00000000000E+00 0. -1.
          1    1    1    2  502    0 -0.87976643098E+02  0.31464707923E+02  0.22009289141E+02  0.95991282853E+02  0.00000000000E+00 0. -1.
         22    1    3    3    0    0 -0.66617863004E+00 -0.28884436409E+02 -0.28972723274E+03  0.29116425579E+03  0.00000000000E+00 0.  1.
         22    1    3    3    0    0  0.12103628708E+03  0.15056670591E+02 -0.30387284052E+03  0.32743730594E+03  0.00000000000E+00 0.  1.
</event>
<event>
 7    1  0.6443388E-006  0.5339473E+02  0.7818608E-02  0.1457068E+00
          2   -1    0    0  502    0  0.00000000000E+00  0.00000000000E+00  0.21444785816E+04  0.21444785816E+04  0.00000000000E+00 0. -1.
          1   -1    0    0  501    0 -0.00000000000E+00 -0.00000000000E+00 -0.58140437520E+03  0.58140437520E+03  0.00000000000E+00 0. -1.
         25    2    1    2    0    0 -0.62162070689E+02  0.14575749132E+02  0.22486337487E+03  0.26507469458E+03  0.12499792339E+03 0.  0.
          2    1    1    2  501    0  0.15188365173E+02 -0.40177297898E+02 -0.56009961700E+03  0.56174414342E+03  0.00000000000E+00 0. -1.
          1    1    1    2  502    0  0.46973705516E+02  0.25601548766E+02  0.18983104485E+04  0.18990641188E+04  0.00000000000E+00 0. -1.
         22    1    3    3    0    0 -0.66762434391E+02  0.33135699754E+01  0.36195953238E+02  0.76015455156E+02  0.00000000000E+00 0. -1.
         22    1    3    3    0    0  0.46003637017E+01  0.11262179157E+02  0.18866742163E+03  0.18905923942E+03  0.00000000000E+00 0. -1.
</event>
<event>
 7    1  0.6443388E-006  0.6406662E+02  0.7818608E-02  0.1443259E+00
          2   -1    0    0  502    0  0.00000000000E+00  0.00000000000E+00  0.25578671004E+04  0.25578671004E+04  0.00000000000E+00 0. -1.
          1   -1    0    0  501    0 -0.00000000000E+00 -0.00000000000E+00 -0.53541807344E+03  0.53541807344E+03  0.00000000000E+00 0. -1.
         25    2    1    2    0    0  0.95945720908E+02 -0.26231002329E+02 -0.75380551053E+02  0.17663823177E+03  0.12500076240E+03 0.  0.
          2    1    1    2  501    0 -0.56323469611E+02  0.27022831646E+02 -0.40686796792E+03  0.41163589491E+03  0.00000000000E+00 0. -1.
          1    1    1    2  502    0 -0.39622251298E+02 -0.79182931726E+00  0.25046975459E+04  0.25050110472E+04  0.00000000000E+00 0. -1.
         22    1    3    3    0    0 -0.10266004932E+02  0.29685512335E+02 -0.41251514739E+02  0.51848895534E+02  0.00000000000E+00 0.  1.
         22    1    3    3    0    0  0.10621172584E+03 -0.55916514665E+02 -0.34129036314E+02  0.12478933624E+03  0.00000000000E+00 0.  1.
</event>
<event>
 7    1  0.6443388E-006  0.1483542E+03  0.7818608E-02  0.1259528E+00
          2   -1    0    0  502    0  0.00000000000E+00  0.00000000000E+00  0.45944692014E+04  0.45944692014E+04  0.00000000000E+00 0. -1.
          1   -1    0    0  501    0 -0.00000000000E+00 -0.00000000000E+00 -0.20467917596E+02  0.20467917596E+02  0.00000000000E+00 0. -1.
         25    2    1    2    0    0 -0.11784233069E+03 -0.11284590463E+03  0.18839140548E+04  0.18950927093E+04  0.12499279093E+03 0.  0.
          2    1    1    2  501    0  0.14488978185E+03  0.35010647559E+02  0.37856721197E+03  0.40685615186E+03  0.00000000000E+00 0. -1.
          1    1    1    2  502    0 -0.27047451152E+02  0.77835257070E+02  0.23115200170E+04  0.23129882578E+04  0.00000000000E+00 0. -1.
         22    1    3    3    0    0 -0.12712805694E+03 -0.13110132438E+03  0.15868388349E+04  0.15973123013E+04  0.00000000000E+00 0. -1.
         22    1    3    3    0    0  0.92857262486E+01  0.18255419754E+02  0.29707521995E+03  0.29778040797E+03  0.00000000000E+00 0. -1.
</event>
<event>
 7    1  0.6443388E-006  0.9345552E+02  0.7818608E-02  0.1405387E+00
          2   -1    0    0  502    0  0.00000000000E+00  0.00000000000E+00  0.13666229806E+04  0.13666229806E+04  0.00000000000E+00 0. -1.
          1   -1    0    0  501    0 -0.00000000000E+00 -0.00000000000E+00 -0.38879871000E+03  0.38879871000E+03  0.00000000000E+00 0. -1.
         25    2    1    2    0    0  0.12817127563E+03  0.31025740777E+00  0.44253096811E+03  0.47737493932E+03  0.12500081119E+03 0.  0.
          2    1    1    2  501    0 -0.92684720395E+02 -0.79011182467E+01 -0.36518064684E+03  0.37684186324E+03  0.00000000000E+00 0. -1.
          1    1    1    2  502    0 -0.35486555237E+02  0.75908608389E+01  0.90047394937E+03  0.90120488806E+03  0.00000000000E+00 0. -1.
         22    1    3    3    0    0 -0.16950244025E+02  0.59773418311E+00  0.14865884090E+03  0.14962325701E+03  0.00000000000E+00 0.  1.
         22    1    3    3    0    0  0.14512151966E+03 -0.28747677535E+00  0.29387212721E+03  0.32775168231E+03  0.00000000000E+00 0.  1.
</event>
<event>
 7    1  0.6443388E-006  0.1617625E+03  0.7818608E-02  0.1324134E+00
          2   -1    0    0  502    0  0.00000000000E+00  0.00000000000E+00  0.18960522899E+03  0.18960522899E+03  0.00000000000E+00 0. -1.
          1   -1    0    0  501    0 -0.00000000000E+00 -0.00000000000E+00 -0.51518998927E+03  0.51518998927E+03  0.00000000000E+00 0. -1.
         25    2    1    2    0    0 -0.13505163420E+03  0.10934918766E+03 -0.36214296494E+03  0.42067212650E+03  0.12498528802E+03 0.  0.
          2    1    1    2  501    0  0.12817802301E+03 -0.68602110357E+02 -0.76121911070E+02  0.16410484598E+03  0.00000000000E+00 0. -1.
          1    1    1    2  502    0  0.68736111943E+01 -0.40747077300E+02  0.11268011573E+03  0.12001824578E+03  0.00000000000E+00 0. -1.
         22    1    3    3    0    0 -0.15662108301E+03  0.89806856795E+02 -0.27654754955E+03  0.33026350439E+03  0.00000000000E+00 0.  1.
         22    1    3    3    0    0  0.21569448803E+02  0.19542330862E+02 -0.85595415386E+02  0.90408622113E+02  0.00000000000E+00 0.  1.
</event>
<event>
 7    1  0.6443388E-006  0.1428963E+03  0.7818608E-02  0.1238382E+00
          2   -1    0    0  502    0  0.00000000000E+00  0.00000000000E+00  0.11302002712E+04  0.11302002712E+04  0.00000000000E+00 0. -1.
          1   -1    0    0  501    0 -0.00000000000E+00 -0.00000000000E+00 -0.50262645575E+03  0.50262645575E+03  0.00000000000E+00 0. -1.
         25    2    1    2    0    0 -0.12227668185E+03 -0.10984730643E+03  0.31205941767E+03  0.37419779817E+03  0.12499957737E+03 0.  0.
          2    1    1    2  501    0  0.21496462894E+02  0.14174837521E+03 -0.45697664105E+03  0.47893877506E+03  0.00000000000E+00 0. -1.
          1    1    1    2  502    0  0.10078021896E+03 -0.31901068775E+02  0.77249103880E+03  0.77969015368E+03  0.00000000000E+00 0. -1.
         22    1    3    3    0    0  0.23866495169E+02 -0.26382194091E+02  0.79816718547E+02  0.87386144877E+02  0.00000000000E+00 0. -1.
         22    1    3    3    0    0 -0.14614317702E+03 -0.83465112341E+02  0.23224269912E+03  0.28681165329E+03  0.00000000000E+00 0. -1.
</event>
<event>
 7    1  0.6443388E-006  0.5046908E+02  0.7818608E-02  0.1516952E+00
          2   -1    0    0  502    0  0.00000000000E+00  0.00000000000E+00  0.34283002625E+03  0.34283002625E+03  0.00000000000E+00 0. -1.
          1   -1    0    0  501    0 -0.00000000000E+00 -0.00000000000E+00 -0.14031771881E+03  0.14031771881E+03  0.00000000000E+00 0. -1.
         25    2    1    2    0    0  0.21567026853E+02 -0.61152051834E+01  0.16611621351E+02  0.12807751488E+03  0.12500148588E+03 0.  0.
          2    1    1    2  501    0  0.25118732171E+02 -0.16191772755E+02 -0.79365119136E+02  0.84805343855E+02  0.00000000000E+00 0. -1.
          1    1    1    2  502    0 -0.46685759024E+02  0.22306977939E+02  0.26526580522E+03  0.27026488633E+03  0.00000000000E+00 0. -1.
         22    1    3    3    0    0  0.36276529877E+02 -0.42526293313E+02 -0.32917499913E+02  0.64869361361E+02  0.00000000000E+00 0.  1.
         22    1    3    3    0    0 -0.14709503024E+02  0.36411088130E+02  0.49529121265E+02  0.63208153519E+02  0.00000000000E+00 0.  1.
</event>
<event>
 7    1  0.6443388E-006  0.2950358E+03  0.7818608E-02  0.1140947E+00
          2   -1    0    0  502    0  0.00000000000E+00  0.00000000000E+00  0.52486877006E+03  0.52486877006E+03  0.00000000000E+00 0. -1.
          1   -1    0    0  501    0 -0.00000000000E+00 -0.00000000000E+00 -0.32733124785E+04  0.32733124785E+04  0.00000000000E+00 0. -1.
         25    2    1    2    0    0  0.10500506592E+03  0.22344957227E+03 -0.73931349515E+03  0.78940940265E+03  0.12500794238E+03 0.  0.
          2    1    1    2  501    0 -0.25384027999E+03 -0.20052451213E+03 -0.24868898706E+04  0.25078409431E+04  0.00000000000E+00 0. -1.
          1    1    1    2  502    0  0.14883521407E+03 -0.22925060142E+02  0.47775965723E+03  0.50093090283E+03  0.00000000000E+00 0. -1.
         22    1    3    3    0    0  0.51505444817E+02  0.37978044044E+02 -0.33897713147E+03  0.34496469143E+03  0.00000000000E+00 0.  1.
         22    1    3    3    0    0  0.53499621104E+02  0.18547152823E+03 -0.40033636368E+03  0.44444471121E+03  0.00000000000E+00 0.  1.
</event>
<event>
 7    1  0.6443388E-006  0.1329101E+03  0.7818608E-02  0.1321223E+00
          2   -1    0    0  502    0  0.00000000000E+00  0.00000000000E+00  0.98584194193E+03  0.98584194193E+03  0.00000000000E+00 0. -1.
          1   -1    0    0  501    0 -0.00000000000E+00 -0.00000000000E+00 -0.15104942995E+04  0.15104942995E+04  0.00000000000E+00 0. -1.
         25    2    1    2    0    0 -0.12886023854E+03 -0.71865119665E+02  0.91202055394E+02  0.21380528447E+03  0.12500131302E+03 0.  0.
          2    1    1    2  501    0  0.42853827789E+02 -0.28764493167E+02 -0.14434715648E+04  0.14443939923E+04  0.00000000000E+00 0. -1.
          1    1    1    2  502    0  0.86006410755E+02  0.10062961283E+03  0.82761715178E+03  0.83813696470E+03  0.00000000000E+00 0. -1.
         22    1    3    3    0    0 -0.59164577548E+02 -0.11030354340E+02 -0.25090010000E+02  0.65204482631E+02  0.00000000000E+00 0. -1.
         22    1    3    3    0    0 -0.69695660996E+02 -0.60834765325E+02  0.11629206539E+03  0.14860080184E+03  0.00000000000E+00 0. -1.
</event>
<event>
 7    1  0.6443388E-006  0.8368163E+02  0.7818608E-02  0.1451351E+00
          2   -1    0    0  502    0  0.00000000000E+00  0.00000000000E+00  0.14027520572E+03  0.14027520572E+03  0.00000000000E+00 0. -1.
          1   -1    0    0  501    0 -0.00000000000E+00 -0.00000000000E+00 -0.50292738824E+03  0.50292738824E+03  0.00000000000E+00 0. -1.
         25    2    1    2    0    0  0.42976516370E+02 -0.50145051674E+02 -0.21816009360E+03  0.25996457739E+03  0.12500499146E+03 0.  0.
          2    1    1    2  501    0  0.28310021667E+02  0.39071416761E+01 -0.24781904922E+03  0.24946142836E+03  0.00000000000E+00 0. -1.
          1    1    1    2  502    0 -0.71286538037E+02  0.46237909998E+02  0.10332696030E+03  0.13377658820E+03  0.00000000000E+00 0. -1.
         22    1    3    3    0    0 -0.23242838709E+02 -0.66077041074E+02 -0.13813538649E+03  0.15487992094E+03  0.00000000000E+00 0. -1.
         22    1    3    3    0    0  0.66219355079E+02  0.15931989400E+02 -0.80024707109E+02  0.10508465645E+03  0.00000000000E+00 0. -1.
</event>
<event>
 7    1  0.6443388E-006  0.7485610E+02  0.7818608E-02  0.1457007E+00
          2   -1    0    0  502    0  0.00000000000E+00  0.00000000000E+00  0.56838293578E+03  0.56838293578E+03  0.00000000000E+00 0. -1.
          1   -1    0    0  501    0 -0.00000000000E+00 -0.00000000000E+00 -0.14965555424E+04  0.14965555424E+04  0.00000000000E+00 0. -1.
         25    2    1    2    0    0  0.62139702028E+02  0.80145787137E+02 -0.75107246278E+02  0.17762809144E+03  0.12500380259E+03 0.  0.
          2    1    1    2  501    0 -0.75522376636E+01 -0.29706381427E+02 -0.13673447216E+04  0.13676882295E+04  0.00000000000E+00 0. -1.
          1    1    1    2  502    0 -0.54587464365E+02 -0.50439405710E+02  0.51427936125E+03  0.51962215726E+03  0.00000000000E+00 0. -1.
         22    1    3    3    0    0 -0.29960151020E+02  0.51215239930E+02 -0.75783280648E+01  0.59816741022E+02  0.00000000000E+00 0.  1.
         22    1    3    3    0    0  0.92099853048E+02  0.28930547207E+02 -0.67528918214E+02  0.11781135042E+03  0.00000000000E+00 0.  1.
</event>
<event>
 7    1  0.6443388E-006  0.5620934E+02  0.7818608E-02  0.1459129E+00
          2   -1    0    0  502    0  0.00000000000E+00  0.00000000000E+00  0.88299805621E+03  0.88299805621E+03  0.00000000000E+00 0. -1.
          1   -1    0    0  501    0 -0.00000000000E+00 -0.00000000000E+00 -0.16167555010E+03  0.16167555010E+03  0.00000000000E+00 0. -1.
         25    2    1    2    0    0  0.63216358780E+02  0.52751589153E+02 -0.97995706819E+02  0.17891124058E+03  0.12500814084E+03 0.  0.
          2    1    1    2  501    0 -0.40160900597E+02 -0.16237852516E+01 -0.41309108365E+01  0.40405433293E+02  0.00000000000E+00 0. -1.
          1    1    1    2  502    0 -0.23055458183E+02 -0.51127803901E+02  0.82344912377E+03  0.82535693243E+03  0.00000000000E+00 0. -1.
         22    1    3    3    0    0 -0.30490185279E+02  0.45289923604E+02 -0.46571353276E+02  0.71761546279E+02  0.00000000000E+00 0.  1.
         22    1    3    3    0    0  0.93706544059E+02  0.74616655485E+01 -0.51424353543E+02  0.10714969430E+03  0.00000000000E+00 0.  1.
</event>
<event>
 7    1  0.6443388E-006  0.1028112E+03  0.7818608E-02  0.1331652E+00
          2   -1    0    0  502    0  0.00000000000E+00  0.00000000000E+00  0.93317851420E+03  0.93317851420E+03  0.00000000000E+00 0. -1.
          1   -1    0    0  501    0 -0.00000000000E+00 -0.00000000000E+00 -0.88565629895E+03  0.88565629895E+03  0.00000000000E+00 0. -1.
         25    2    1    2    0    0 -0.23715715627E+02 -0.10500644778E+03  0.27429558046E+03  0.32008355217E+03  0.12500650250E+03 0.  0.
          2    1    1    2  501    0  0.74322322205E+02  0.71230039664E+02 -0.85822405013E+03  0.86437610237E+03  0.00000000000E+00 0. -1.
          1    1    1    2  502    0 -0.50606606578E+02  0.33776408112E+02  0.63145068492E+03  0.63437515861E+03  0.00000000000E+00 0. -1.
         22    1    3    3    0    0 -0.40736966596E+02 -0.54365443765E+01  0.18509879857E+02  0.45074073640E+02  0.00000000000E+00 0. -1.
         22    1    3    3    0    0  0.17021250969E+02 -0.99569903399E+02  0.25578570061E+03  0.27500947853E+03  0.00000000000E+00 0. -1.
</event>
<event>
 7    1  0.6443388E-006  0.5935607E+02  0.7818608E-02  0.1512710E+00
          2   -1    0    0  502    0  0.00000000000E+00  0.00000000000E+00  0.14513181987E+04  0.14513181987E+04  0.00000000000E+00 0. -1.
          1   -1    0    0  501    0 -0.00000000000E+00 -0.00000000000E+00 -0.42247909752E+02  0.42247909752E+02  0.00000000000E+00 0. -1.
         25    2    1    2    0    0  0.27232123031E+02 -0.58023018172E+02  0.96239551157E+02  0.17027921583E+03  0.12499880389E+03 0.  0.
          2    1    1    2  501    0  0.17713118008E+02  0.19232964873E+02  0.33107745745E+02  0.42187490038E+02  0.00000000000E+00 0. -1.
          1    1    1    2  502    0 -0.44945241039E+02  0.38790053299E+02  0.12797229920E+04  0.12810994026E+04  0.00000000000E+00 0. -1.
         22    1    3    3    0    0  0.71066999006E+01 -0.96653444481E+02  0.66071520201E+02  0.11729381610E+03  0.00000000000E+00 0.  1.
         22    1    3    3    0    0  0.20125423130E+02  0.38630426309E+02  0.30168030956E+02  0.52985399732E+02  0.00000000000E+00 0.  1.
</event>
<event>
 7    1  0.9250398E-006  0.1130378E+03  0.7818608E-02  0.1333387E+00
          2   -1    0    0  502    0  0.00000000000E+00  0.00000000000E+00  0.13825976616E+04  0.13825976616E+04  0.00000000000E+00 0. -1.
          1   -1    0    0  501    0 -0.00000000000E+00 -0.00000000000E+00 -0.29859078406E+04  0.29859078406E+04  0.00000000000E+00 0. -1.
         25    2    1    2    0    0 -0.10218237508E+03  0.42297126207E+02 -0.79240432185E+03  0.80978840868E+03  0.12498949109E+03 0.  0.
          2    1    1    2  501    0  0.73721609762E+02 -0.88779688771E+02 -0.21827461678E+04  0.21857944876E+04  0.00000000000E+00 0. -1.
          1    1    1    2  502    0  0.28460765319E+02  0.46482562563E+02  0.13718403107E+04  0.13729226059E+04  0.00000000000E+00 0. -1.
         22    1    3    3    0    0 -0.17545179531E+02  0.72775177291E+02 -0.29744339494E+03  0.30671914343E+03  0.00000000000E+00 0.  1.
         22    1    3    3    0    0 -0.84637195550E+02 -0.30478051083E+02 -0.49496092691E+03  0.50306926525E+03  0.00000000000E+00 0.  1.
</event>
<event>
 7    1  0.6443388E-006  0.7205898E+02  0.7818608E-02  0.1370940E+00
          2   -1    0    0  502    0  0.00000000000E+00  0.00000000000E+00  0.37902525340E+03  0.37902525340E+03  0.00000000000E+00 0. -1.
          1   -1    0    0  501    0 -0.00000000000E+00 -0.00000000000E+00 -0.10241837163E+04  0.10241837163E+04  0.00000000000E+00 0. -1.
         25    2    1    2    0    0  0.12455909922E+02  0.49051048635E+01  0.16995988064E+03  0.21140168549E+03  0.12500040743E+03 0.  0.
          2    1    1    2  501    0  0.57061017641E+02  0.44006099302E+02 -0.99249960500E+03  0.99511203512E+03  0.00000000000E+00 0. -1.
          1    1    1    2  502    0 -0.69516927563E+02 -0.48911204165E+02  0.17738126144E+03  0.19669524911E+03  0.00000000000E+00 0. -1.
         22    1    3    3    0    0 -0.51748412561E+02 -0.10463528588E+01  0.36975059677E+02  0.63609339683E+02  0.00000000000E+00 0.  1.
         22    1    3    3    0    0  0.64204322482E+02  0.59514577223E+01  0.13298482096E+03  0.14779234581E+03  0.00000000000E+00 0.  1.
</event>
<event>
 7    1  0.6443388E-006  0.1141822E+03  0.7818608E-02  0.1456865E+00
          2   -1    0    0  502    0  0.00000000000E+00  0.00000000000E+00  0.21119835526E+04  0.21119835526E+04  0.00000000000E+00 0. -1.
          1   -1    0    0  501    0 -0.00000000000E+00 -0.00000000000E+00 -0.17436858755E+03  0.17436858755E+03  0.00000000000E+00 0. -1.
         25    2    1    2    0    0 -0.31948196530E+01 -0.13367802578E+03 -0.44740312306E+02  0.18842596261E+03  0.12499050520E+03 0.  0.
          2    1    1    2  501    0  0.37481101187E+01  0.19763068916E+02 -0.54393705897E+02  0.57993986444E+02  0.00000000000E+00 0. -1.
          1    1    1    2  502    0 -0.55329046574E+00  0.11391495686E+03  0.20367489833E+04  0.20399321911E+04  0.00000000000E+00 0. -1.
         22    1    3    3    0    0 -0.16320402334E+02 -0.15606473560E+03 -0.35519533928E+02  0.16088565667E+03  0.00000000000E+00 0. -1.
         22    1    3    3    0    0  0.13125582681E+02  0.22386709824E+02 -0.92207783781E+01  0.27540305942E+02  0.00000000000E+00 0. -1.
</event>
<event>
 7    1  0.6443388E-006  0.9936439E+02  0.7818608E-02  0.1373565E+00
          2   -1    0    0  502    0  0.00000000000E+00  0.00000000000E+00  0.14345966069E+04  0.14345966069E+04  0.00000000000E+00 0. -1.
          1   -1    0    0  501    0 -0.00000000000E+00 -0.00000000000E+00 -0.10281730959E+04  0.10281730959E+04  0.00000000000E+00 0. -1.
         25    2    1    2    0    0 -0.81871693074E+02  0.11705812315E+03  0.13707888541E+03  0.23413641551E+03  0.12499464756E+03 0.  0.
          2    1    1    2  501    0  0.57490844127E+02 -0.80327258613E+02 -0.97676342695E+03  0.98174561769E+03  0.00000000000E+00 0. -1.
          1    1    1    2  502    0  0.24380848947E+02 -0.36730864540E+02  0.12461080525E+04  0.12468876696E+04  0.00000000000E+00 0. -1.
         22    1    3    3    0    0 -0.92200059690E+02  0.33025507113E+02  0.10503545950E+03  0.14361052496E+03  0.00000000000E+00 0.  1.
         22    1    3    3    0    0  0.10328366617E+02  0.84032616041E+02  0.32043425907E+02  0.90525890548E+02  0.00000000000E+00 0.  1.
</event>
<event>
 7    1  0.6443388E-006  0.1934044E+03  0.7818608E-02  0.1234811E+00
          2   -1    0    0  502    0  0.00000000000E+00  0.00000000000E+00  0.11231478764E+04  0.11231478764E+04  0.00000000000E+00 0. -1.
          1   -1    0    0  501    0 -0.00000000000E+00 -0.00000000000E+00 -0.13744045130E+04  0.13744045130E+04  0.00000000000E+00 0. -1.
         25    2    1    2    0    0 -0.74372373959E+01 -0.24684486427E+03  0.38326668493E+03  0.47276384565E+03  0.12499840981E+03 0.  0.
          2    1    1    2  501    0  0.58163765564E+02  0.18369110956E+03 -0.13202793129E+04  0.13342649330E+04  0.00000000000E+00 0. -1.
          1    1    1    2  502    0 -0.50726528168E+02  0.63153754713E+02  0.68575599135E+03  0.69052361080E+03  0.00000000000E+00 0. -1.
         22    1    3    3    0    0 -0.30636502885E+02 -0.40409939402E+02  0.20436314757E+02  0.54673590264E+02  0.00000000000E+00 0. -1.
         22    1    3    3    0    0  0.23199265489E+02 -0.20643492487E+03  0.36283037018E+03  0.41809025538E+03  0.00000000000E+00 0. -1.
</event>
<event>
 7    1  0.6443388E-006  0.3703340E+02  0.7818608E-02  0.1537207E+00
          2   -1    0    0  502    0  0.00000000000E+00  0.00000000000E+00  0.11023286990E+04  0.11023286990E+04  0.00000000000E+00 0. -1.
          1   -1    0    0  501    0 -0.00000000000E+00 -0.00000000000E+00 -0.63482334052E+03  0.63482334052E+03  0.00000000000E+00 0. -1.
         25    2    1    2    0    0  0.66269868849E+02 -0.17880208913E+02  0.29919808161E+02  0.14570693848E+03  0.12499567838E+03 0.  0.
          2    1    1    2  501    0 -0.36785051271E+02 -0.20956689202E+01 -0.57602845729E+03  0.57720560932E+03  0.00000000000E+00 0. -1.
          1    1    1    2  502    0 -0.29484817577E+02  0.19975877833E+02  0.10136140076E+04  0.10142394917E+04  0.00000000000E+00 0. -1.
         22    1    3    3    0    0 -0.42853733775E+01 -0.60160880745E+02  0.14248498617E+02  0.61973508129E+02  0.00000000000E+00 0. -1.
         22    1    3    3    0    0  0.70555242226E+02  0.42280671832E+02  0.15671309544E+02  0.83733430355E+02  0.00000000000E+00 0. -1.
</event>
<event>
 7    1  0.6443388E-006  0.9730991E+02  0.7818608E-02  0.1286899E+00
          2   -1    0    0  502    0  0.00000000000E+00  0.00000000000E+00  0.16738642607E+04  0.16738642607E+04  0.00000000000E+00 0. -1.
          1   -1    0    0  501    0 -0.00000000000E+00 -0.00000000000E+00 -0.14316922310E+03  0.14316922310E+03  0.00000000000E+00 0. -1.
         25    2    1    2    0    0 -0.29157143557E+02  0.99714649014E+02  0.75335193189E+03  0.77068633187E+03  0.12500055442E+03 0.  0.
          2    1    1    2  501    0  0.95318005306E+02 -0.15317491108E+02 -0.11353871730E+03  0.14903418398E+03  0.00000000000E+00 0. -1.
          1    1    1    2  502    0 -0.66160861749E+02 -0.84397157907E+02  0.89088182301E+03  0.89731296795E+03  0.00000000000E+00 0. -1.
         22    1    3    3    0    0  0.42503860189E+02  0.57930551521E+02  0.46934271163E+03  0.47481060213E+03  0.00000000000E+00 0. -1.
         22    1    3    3    0    0 -0.71661003746E+02  0.41784097494E+02  0.28400922026E+03  0.29587572975E+03  0.00000000000E+00 0. -1.
</event>
<event>
 7    1  0.6443388E-006  0.7267932E+02  0.7818608E-02  0.1505272E+00
          2   -1    0    0  502    0  0.00000000000E+00  0.00000000000E+00  0.10327631897E+04  0.10327631897E+04  0.00000000000E+00 0. -1.
          1   -1    0    0  501    0 -0.00000000000E+00 -0.00000000000E+00 -0.26626572012E+03  0.26626572012E+03  0.00000000000E+00 0. -1.
         25    2    1    2    0    0  0.23179443280E+02 -0.74232528769E+02 -0.29847578670E+02  0.15021086400E+03  0.12499868316E+03 0.  0.
          2    1    1    2  501    0  0.17520791753E+02  0.14051757435E+02 -0.17415761923E+03  0.17559984729E+03  0.00000000000E+00 0. -1.
          1    1    1    2  502    0 -0.40700235033E+02  0.60180771334E+02  0.97050266744E+03  0.97321819849E+03  0.00000000000E+00 0. -1.
         22    1    3    3    0    0 -0.44400391429E+02 -0.46476331264E+02  0.12911005043E+02  0.65560187446E+02  0.00000000000E+00 0. -1.
         22    1    3    3    0    0  0.67579834709E+02 -0.27756197505E+02 -0.42758583713E+02  0.84650676550E+02  0.00000000000E+00 0. -1.
</event>
<event>
 7    1  0.6443388E-006  0.7071741E+02  0.7818608E-02  0.1437594E+00
          2   -1    0    0  502    0  0.00000000000E+00  0.00000000000E+00  0.30682744092E+03  0.30682744092E+03  0.00000000000E+00 0. -1.
          1   -1    0    0  501    0 -0.00000000000E+00 -0.00000000000E+00 -0.27000645113E+03  0.27000645113E+03  0.00000000000E+00 0. -1.
         25    2    1    2    0    0 -0.37933097619E+02  0.50927930536E+02  0.23346102384E+03  0.27232595193E+03  0.12499920176E+03 0.  0.
          2    1    1    2  501    0 -0.37156883488E+02 -0.47118896780E+01 -0.21176121828E+03  0.21504801664E+03  0.00000000000E+00 0. -1.
          1    1    1    2  502    0  0.75089981106E+02 -0.46216040858E+02  0.15121184240E+02  0.89459923474E+02  0.00000000000E+00 0. -1.
         22    1    3    3    0    0  0.45851154356E+02  0.11032655291E+02  0.86441545156E+02  0.98469226500E+02  0.00000000000E+00 0.  1.
         22    1    3    3    0    0 -0.83784251974E+02  0.39895275245E+02  0.14701947868E+03  0.17385672543E+03  0.00000000000E+00 0.  1.
</event>
<event>
 7    1  0.6443388E-006  0.7069296E+02  0.7818608E-02  0.1510422E+00
          2   -1    0    0  502    0  0.00000000000E+00  0.00000000000E+00  0.88946732670E+03  0.88946732670E+03  0.00000000000E+00 0. -1.
          1   -1    0    0  501    0 -0.00000000000E+00 -0.00000000000E+00 -0.31979440994E+03  0.31979440994E+03  0.00000000000E+00 0. -1.
         25    2    1    2    0    0  0.57068216047E+02 -0.33753135146E+02 -0.48814482611E+02  0.14968188918E+03  0.12500303524E+03 0.  0.
          2    1    1    2  501    0 -0.10557235271E+02 -0.19638428517E+02 -0.21848389389E+03  0.21961861256E+03  0.00000000000E+00 0. -1.
          1    1    1    2  502    0 -0.46510980775E+02  0.53391563663E+02  0.83697129327E+03  0.83996123491E+03  0.00000000000E+00 0. -1.
         22    1    3    3    0    0  0.65105045000E+02  0.32930087767E+02 -0.35790186052E+02  0.81264967744E+02  0.00000000000E+00 0. -1.
         22    1    3    3    0    0 -0.80368289532E+01 -0.66683222913E+02 -0.13024296559E+02  0.68416921434E+02  0.00000000000E+00 0. -1.
</event>
<event>
 7    1  0.6443388E-006  0.4898724E+02  0.7818608E-02  0.1495856E+00
          2   -1    0    0  502    0  0.00000000000E+00  0.00000000000E+00  0.39547190889E+03  0.39547190889E+03  0.00000000000E+00 0. -1.
          1   -1    0    0  501    0 -0.00000000000E+00 -0.00000000000E+00 -0.64050362774E+02  0.64050362774E+02  0.00000000000E+00 0. -1.
         25    2    1    2    0    0  0.15716204048E+02 -0.17053316260E+00  0.48102126512E+02  0.13487191139E+03  0.12501835768E+03 0.  0.
          2    1    1    2  501    0  0.33679781670E+02 -0.11369547064E+02 -0.12756350897E+01  0.35569952750E+02  0.00000000000E+00 0. -1.
          1    1    1    2  502    0 -0.49395985717E+02  0.11540080227E+02  0.28459505470E+03  0.28908040752E+03  0.00000000000E+00 0. -1.
         22    1    3    3    0    0  0.42438438066E+02 -0.34901490001E+02 -0.15994485511E+02  0.57227253967E+02  0.00000000000E+00 0. -1.
         22    1    3    3    0    0 -0.26722234019E+02  0.34730956839E+02  0.64096612024E+02  0.77644657426E+02  0.00000000000E+00 0. -1.
</event>
<event>
 7    1  0.6443388E-006  0.8644556E+02  0.7818608E-02  0.1389246E+00
          2   -1    0    0  502    0  0.00000000000E+00  0.00000000000E+00  0.14165699299E+04  0.14165699299E+04  0.00000000000E+00 0. -1.
          1   -1    0    0  501    0 -0.00000000000E+00 -0.00000000000E+00 -0.54985398966E+02  0.54985398966E+02  0.00000000000E+00 0. -1.
         25    2    1    2    0    0  0.48426433156E+02 -0.45873783827E+02  0.45255443367E+03  0.47421353396E+03  0.12499374738E+03 0.  0.
          2    1    1    2  501    0 -0.26968450374E+02  0.84976164903E+02  0.19587188747E+01  0.89174449798E+02  0.00000000000E+00 0. -1.
          1    1    1    2  502    0 -0.21457982782E+02 -0.39102381076E+02  0.90707137839E+03  0.90816734511E+03  0.00000000000E+00 0. -1.
         22    1    3    3    0    0 -0.74244730892E+01  0.36739201700E+01  0.33403696986E+03  0.33413966799E+03  0.00000000000E+00 0. -1.
         22    1    3    3    0    0  0.55850906245E+02 -0.49547703997E+02  0.11851746381E+03  0.14007386597E+03  0.00000000000E+00 0. -1.
</event>
<event>
 7    1  0.6443388E-006  0.1759704E+03  0.7818608E-02  0.1304857E+00
          2   -1    0    0  502    0  0.00000000000E+00  0.00000000000E+00  0.10002796195E+04  0.10002796195E+04  0.00000000000E+00 0. -1.
          1   -1    0    0  501    0 -0.00000000000E+00 -0.00000000000E+00 -0.82167398522E+02  0.82167398522E+02  0.00000000000E+00 0. -1.
         25    2    1    2    0    0 -0.65310348698E+02 -0.13286767203E+03  0.27065674245E+03  0.33286394634E+03  0.12499629844E+03 0.  0.
          2    1    1    2  501    0  0.86728734169E+02  0.17266223925E+03  0.13635502147E+03  0.23648850727E+03  0.00000000000E+00 0. -1.
          1    1    1    2  502    0 -0.21418385470E+02 -0.39794567216E+02  0.51110045705E+03  0.51309456439E+03  0.00000000000E+00 0. -1.
         22    1    3    3    0    0 -0.62513321500E+02 -0.58652325278E+02  0.48211360420E+02  0.98348085385E+02  0.00000000000E+00 0.  1.
         22    1    3    3    0    0 -0.27970271984E+01 -0.74215346753E+02  0.22244538203E+03  0.23451586096E+03  0.00000000000E+00 0.  1.
</event>
<event>
 7    1  0.6443388E-006  0.6414000E+02  0.7818608E-02  0.1458081E+00
          2   -1    0    0  502    0  0.00000000000E+00  0.00000000000E+00  0.56484249234E+03  0.56484249234E+03  0.00000000000E+00 0. -1.
          1   -1    0    0  501    0 -0.00000000000E+00 -0.00000000000E+00 -0.65276652004E+03  0.65276652004E+03  0.00000000000E+00 0. -1.
         25    2    1    2    0    0 -0.83459226098E+02 -0.88163639052E+01  0.15610772215E+03  0.21688292382E+03  0.12500164413E+03 0.  0.
          2    1    1    2  501    0  0.61193962821E+02 -0.18825047579E+02 -0.61989409276E+03  0.62319159954E+03  0.00000000000E+00 0. -1.
          1    1    1    2  502    0  0.22265263277E+02  0.27641411484E+02  0.37586234291E+03  0.37753448902E+03  0.00000000000E+00 0. -1.
         22    1    3    3    0    0 -0.50298983723E+02 -0.44602998720E+02  0.15401749559E+03  0.16805000507E+03  0.00000000000E+00 0. -1.
         22    1    3    3    0    0 -0.33160242375E+02  0.35786634815E+02  0.20902265620E+01  0.48832918742E+02  0.00000000000E+00 0. -1.
</event>
<event>
 7    1  0.6443388E-006  0.1309482E+03  0.7818608E-02  0.1241229E+00
          2   -1    0    0  502    0  0.00000000000E+00  0.00000000000E+00  0.53796631778E+03  0.53796631778E+03  0.00000000000E+00 0. -1.
          1   -1    0    0  501    0 -0.00000000000E+00 -0.00000000000E+00 -0.99236903141E+03  0.99236903141E+03  0.00000000000E+00 0. -1.
         25    2    1    2    0    0 -0.98924884534E+01 -0.11798186463E+03 -0.67259725073E+03  0.69428263489E+03  0.12499493470E+03 0.  0.
          2    1    1    2  501    0 -0.11671427206E+03  0.84543067055E+02 -0.28324281768E+03  0.31779906428E+03  0.00000000000E+00 0. -1.
          1    1    1    2  502    0  0.12660676051E+03  0.33438797577E+02  0.50143735478E+03  0.51825365002E+03  0.00000000000E+00 0. -1.
         22    1    3    3    0    0  0.48496004069E+02 -0.28299688950E+02 -0.13629722555E+03  0.14740986567E+03  0.00000000000E+00 0. -1.
         22    1    3    3    0    0 -0.58388492523E+02 -0.89682175683E+02 -0.53630002518E+03  0.54687276921E+03  0.00000000000E+00 0. -1.
</event>
<event>
 7    1  0.6443388E-006  0.4753651E+02  0.7818608E-02  0.1546361E+00
          2   -1    0    0  502    0  0.00000000000E+00  0.00000000000E+00  0.25520515533E+04  0.25520515533E+04  0.00000000000E+00 0. -1.
          1   -1    0    0  501    0 -0.00000000000E+00 -0.00000000000E+00 -0.39678242295E+03  0.39678242295E+03  0.00000000000E+00 0. -1.
         25    2    1    2    0    0 -0.24622801173E+02  0.62740021310E+02 -0.21702782949E+03  0.25936141955E+03  0.12499869825E+03 0.  0.
          2    1    1    2  501    0  0.21167307107E+02 -0.15345082868E+02 -0.15728559799E+03  0.15944367593E+03  0.00000000000E+00 0. -1.
          1    1    1    2  502    0  0.34554940663E+01 -0.47394938442E+02  0.25295825579E+04  0.25300288808E+04  0.00000000000E+00 0. -1.
         22    1    3    3    0    0 -0.41215529274E+02 -0.25352196066E+02 -0.10705344181E+03  0.11748145855E+03  0.00000000000E+00 0.  1.
         22    1    3    3    0    0  0.16592728101E+02  0.88092217376E+02 -0.10997438768E+03  0.14187996100E+03  0.00000000000E+00 0.  1.
</event>
<event>
 7    1  0.6443388E-006  0.4611321E+02  0.7818608E-02  0.1503593E+00
          2   -1    0    0  502    0  0.00000000000E+00  0.00000000000E+00  0.49740571190E+03  0.49740571190E+03  0.00000000000E+00 0. -1.
          1   -1    0    0  501    0 -0.00000000000E+00 -0.00000000000E+00 -0.56969166473E+03  0.56969166473E+03  0.00000000000E+00 0. -1.
         25    2    1    2    0    0 -0.33645406757E+02 -0.22044276019E+02 -0.17037705778E+03  0.21510994944E+03  0.12500394005E+03 0.  0.
          2    1    1    2  501    0  0.45886683718E+02 -0.11605095838E+02 -0.37478282664E+03  0.37775975585E+03  0.00000000000E+00 0. -1.
          1    1    1    2  502    0 -0.12241276961E+02  0.33649371857E+02  0.47287393159E+03  0.47422767134E+03  0.00000000000E+00 0. -1.
         22    1    3    3    0    0 -0.60387493256E+02 -0.50854306483E+02 -0.15292525435E+03  0.17210154923E+03  0.00000000000E+00 0.  1.
         22    1    3    3    0    0  0.26742086499E+02  0.28810030463E+02 -0.17451803434E+02  0.43008400211E+02  0.00000000000E+00 0.  1.
</event>
<event>
 7    1  0.6443388E-006  0.2670448E+02  0.7818608E-02  0.1687871E+00
          2   -1    0    0  502    0  0.00000000000E+00  0.00000000000E+00  0.93699074326E+02  0.93699074326E+02  0.00000000000E+00 0. -1.
          1   -1    0    0  501    0 -0.00000000000E+00 -0.00000000000E+00 -0.18808441961E+04  0.18808441961E+04  0.00000000000E+00 0. -1.
         25    2    1    2    0    0  0.15117697474E+02 -0.99276165601E+01 -0.13765047862E+03  0.18681584567E+03  0.12500161432E+03 0.  0.
          2    1    1    2  501    0 -0.25770809071E+02 -0.72358148461E+01 -0.17170284552E+04  0.17172370855E+04  0.00000000000E+00 0. -1.
          1    1    1    2  502    0  0.10653111597E+02  0.17163431406E+02  0.67533812060E+02  0.70490339308E+02  0.00000000000E+00 0. -1.
         22    1    3    3    0    0  0.15567787707E+02  0.56973628152E+02 -0.57746220747E+02  0.82601309490E+02  0.00000000000E+00 0.  1.
         22    1    3    3    0    0 -0.45009023315E+00 -0.66901244712E+02 -0.79904257869E+02  0.10421453618E+03  0.00000000000E+00 0.  1.
</event>
<event>
 7    1  0.6443388E-006  0.4427111E+02  0.7818608E-02  0.1491967E+00
          2   -1    0    0  502    0  0.00000000000E+00  0.00000000000E+00  0.22080630643E+03  0.22080630643E+03  0.00000000000E+00 0. -1.
          1   -1    0    0  501    0 -0.00000000000E+00 -0.00000000000E+00 -0.31102936032E+03  0.31102936032E+03  0.00000000000E+00 0. -1.
         25    2    1    2    0    0  0.87341417772E+01  0.71424549447E+01  0.22041634421E+02  0.12742914207E+03  0.12500021083E+03 0.  0.
          2    1    1    2  501    0  0.54926235628E+01 -0.44963435309E+02 -0.25349438732E+03  0.25750977424E+03  0.00000000000E+00 0. -1.
          1    1    1    2  502    0 -0.14226765340E+02  0.37820980364E+02  0.14122969900E+03  0.14689675044E+03  0.00000000000E+00 0. -1.
         22    1    3    3    0    0  0.60896328751E+02  0.15757122980E+02  0.36361464362E+02  0.72655391200E+02  0.00000000000E+00 0.  1.
         22    1    3    3    0    0 -0.52162186974E+02 -0.86146680358E+01 -0.14319829941E+02  0.54773750874E+02  0.00000000000E+00 0.  1.
</event>
<event>
 7    1  0.6443388E-006  0.5833472E+02  0.7818608E-02  0.1491590E+00
          2   -1    0    0  502    0  0.00000000000E+00  0.00000000000E+00  0.76773652733E+03  0.76773652733E+03  0.00000000000E+00 0. -1.
          1   -1    0    0  501    0 -0.00000000000E+00 -0.00000000000E+00 -0.11522410854E+03  0.11522410854E+03  0.00000000000E+00 0. -1.
         25    2    1    2    0    0  0.32990811831E+02 -0.83866171885E+00  0.81600664580E+02  0.15288186904E+03  0.12500040161E+03 0.  0.
          2    1    1    2  501    0  0.22062644549E+02 -0.21415115684E+02 -0.75200593637E+02  0.81243441259E+02  0.00000000000E+00 0. -1.
          1    1    1    2  502    0 -0.55053456380E+02  0.22253777403E+02  0.64611234784E+03  0.64883532557E+03  0.00000000000E+00 0. -1.
         22    1    3    3    0    0  0.51803266017E+02  0.21973225000E+02 -0.95319964206E+01  0.57072409645E+02  0.00000000000E+00 0. -1.
         22    1    3    3    0    0 -0.18812454186E+02 -0.22811886719E+02  0.91132661001E+02  0.95809459393E+02  0.00000000000E+00 0. -1.
</event>
<event>
 7    1  0.6443388E-006  0.1703385E+03  0.7818608E-02  0.1359974E+00
          2   -1    0    0  502    0  0.00000000000E+00  0.00000000000E+00  0.32544506285E+03  0.32544506285E+03  0.00000000000E+00 0. -1.
          1   -1    0    0  501    0 -0.00000000000E+00 -0.00000000000E+00 -0.10815690018E+04  0.10815690018E+04  0.00000000000E+00 0. -1.
         25    2    1    2    0    0 -0.42557646135E+02 -0.18824175743E+03 -0.45517786832E+02  0.23439810279E+03  0.12499795675E+03 0.  0.
          2    1    1    2  501    0  0.50945059201E+02  0.16069521641E+03 -0.93313080492E+03  0.94823596785E+03  0.00000000000E+00 0. -1.
          1    1    1    2  502    0 -0.83874130656E+01  0.27546541013E+02  0.22252465278E+03  0.22437999402E+03  0.00000000000E+00 0. -1.
         22    1    3    3    0    0 -0.56287016891E+02 -0.19822908321E+03 -0.24708384486E+02  0.20754156684E+03  0.00000000000E+00 0. -1.
         22    1    3    3    0    0  0.13729370756E+02  0.99873257838E+01 -0.20809402345E+02  0.26856535958E+02  0.00000000000E+00 0. -1.
</event>
<event>
 7    1  0.6443388E-006  0.5077007E+02  0.7818608E-02  0.1496244E+00
          2   -1    0    0  502    0  0.00000000000E+00  0.00000000000E+00  0.25158143164E+04  0.25158143164E+04  0.00000000000E+00 0. -1.
          1   -1    0    0  501    0 -0.00000000000E+00 -0.00000000000E+00 -0.18827158640E+03  0.18827158640E+03  0.00000000000E+00 0. -1.
         25    2    1    2    0    0 -0.16571626119E+02 -0.12510901429E+02 -0.28334254851E+02  0.12984094630E+03  0.12499879956E+03 0.  0.
          2    1    1    2  501    0 -0.41567630235E+01 -0.33953520714E+02 -0.10623546523E+03  0.11160687398E+03  0.00000000000E+00 0. -1.
          1    1    1    2  502    0  0.20728389143E+02  0.46464422142E+02  0.24621124501E+04  0.24626380826E+04  0.00000000000E+00 0. -1.
         22    1    3    3    0    0  0.27687721005E+02  0.43027581715E+02  0.49613350981E+01  0.51406201267E+02  0.00000000000E+00 0.  1.
         22    1    3    3    0    0 -0.44259347124E+02 -0.55538483144E+02 -0.33295589949E+02  0.78434745030E+02  0.00000000000E+00 0.  1.
</event>
<event>
 7    1  0.6443388E-006  0.1216627E+03  0.7818608E-02  0.1332210E+00
          2   -1    0    0  502    0  0.00000000000E+00  0.00000000000E+00  0.21855437484E+04  0.21855437484E+04  0.00000000000E+00 0. -1.
          1   -1    0    0  501    0 -0.00000000000E+00 -0.00000000000E+00 -0.25588643068E+04  0.25588643068E+04  0.00000000000E+00 0. -1.
         25    2    1    2    0    0 -0.11082664368E+03 -0.24774477151E+02  0.51323907580E+02  0.17651216304E+03  0.12500432210E+03 0.  0.
          2    1    1    2  501    0  0.13658098768E+02 -0.49307857774E+02 -0.24942058742E+04  0.24947305970E+04  0.00000000000E+00 0. -1.
          1    1    1    2  502    0  0.97168544912E+02  0.74082334925E+02  0.20695614082E+04  0.20731652951E+04  0.00000000000E+00 0. -1.
         22    1    3    3    0    0  0.21039524408E+02 -0.19041366990E+00 -0.15994360725E+02  0.26429480125E+02  0.00000000000E+00 0. -1.
         22    1    3    3    0    0 -0.13186616809E+03 -0.24584063481E+02  0.67318268305E+02  0.15008268291E+03  0.00000000000E+00 0. -1.
</event>
<event>
 7    1  0.6443388E-006  0.7350981E+02  0.7818608E-02  0.1394047E+00
          2   -1    0    0  502    0  0.00000000000E+00  0.00000000000E+00  0.39475473085E+03  0.39475473085E+03  0.00000000000E+00 0. -1.
          1   -1    0    0  501    0 -0.00000000000E+00 -0.00000000000E+00 -0.17372943959E+04  0.17372943959E+04  0.00000000000E+00 0. -1.
         25    2    1    2    0    0 -0.20082453772E+02 -0.25763327213E+02  0.69938322410E+02  0.14691290637E+03  0.12499991655E+03 0.  0.
          2    1    1    2  501    0 -0.47964925526E+02 -0.15709287098E+02 -0.16928790099E+04  0.16936312343E+04  0.00000000000E+00 0. -1.
          1    1    1    2  502    0  0.68047379298E+02  0.41472614311E+02  0.28040102238E+03  0.29150498610E+03  0.00000000000E+00 0. -1.
         22    1    3    3    0    0  0.50851495531E+02 -0.35048475315E+01  0.46408149464E+02  0.68933844305E+02  0.00000000000E+00 0.  1.
         22    1    3    3    0    0 -0.70933949303E+02 -0.22258479681E+02  0.23530172945E+02  0.77979062063E+02  0.00000000000E+00 0.  1.
</event>
<event>
 7    1  0.6443388E-006  0.1158402E+03  0.7818608E-02  0.1389613E+00
          2   -1    0    0  502    0  0.00000000000E+00  0.00000000000E+00  0.17336873533E+04  0.17336873533E+04  0.00000000000E+00 0. -1.
          1   -1    0    0  501    0 -0.00000000000E+00 -0.00000000000E+00 -0.16606297499E+04  0.16606297499E+04  0.00000000000E+00 0. -1.
         25    2    1    2    0    0  0.83151508511E+02 -0.87630584583E+02  0.34428196184E+03  0.38567813784E+03  0.12499705610E+03 0.  0.
          2    1    1    2  501    0 -0.99750379259E+02  0.58892873500E+02 -0.16376843485E+04  0.16417760304E+04  0.00000000000E+00 0. -1.
          1    1    1    2  502    0  0.16598870748E+02  0.28737711083E+02  0.13664599900E+04  0.13668629350E+04  0.00000000000E+00 0. -1.
         22    1    3    3    0    0  0.69375861965E+02 -0.11134486741E+03  0.20259667358E+03  0.24136300849E+03  0.00000000000E+00 0.  1.
         22    1    3    3    0    0  0.13775646547E+02  0.23714282832E+02  0.14168528826E+03  0.14431512935E+03  0.00000000000E+00 0.  1.
</event>
<event>
 7    1  0.6443388E-006  0.1719729E+03  0.7818608E-02  0.1348960E+00
          2   -1    0    0  502    0  0.00000000000E+00  0.00000000000E+00  0.27293586295E+04  0.27293586295E+04  0.00000000000E+00 0. -1.
          1   -1    0    0  501    0 -0.00000000000E+00 -0.00000000000E+00 -0.51438917712E+02  0.51438917712E+02  0.00000000000E+00 0. -1.
         25    2    1    2    0    0  0.17162026226E+03  0.50719135984E+01  0.11325598196E+04  0.11523002661E+04  0.12499967788E+03 0.  0.
          2    1    1    2  501    0 -0.24411467169E+01  0.31216307178E+02 -0.30177847799E+02  0.43487004138E+02  0.00000000000E+00 0. -1.
          1    1    1    2  502    0 -0.16917911555E+03 -0.36288220777E+02  0.15755377400E+04  0.15850102770E+04  0.00000000000E+00 0. -1.
         22    1    3    3    0    0  0.13488450070E+03  0.99292996543E+01  0.10773595465E+04  0.10858158278E+04  0.00000000000E+00 0. -1.
         22    1    3    3    0    0  0.36735761565E+02 -0.48573860559E+01  0.55200273078E+02  0.66484438216E+02  0.00000000000E+00 0. -1.
</event>
<event>
 7    1  0.6443388E-006  0.7476954E+02  0.7818608E-02  0.1396976E+00
          2   -1    0    0  502    0  0.00000000000E+00  0.00000000000E+00  0.58485270654E+03  0.58485270654E+03  0.00000000000E+00 0. -1.
          1   -1    0    0  501    0 -0.00000000000E+00 -0.00000000000E+00 -0.47454678568E+03  0.47454678568E+03  0.00000000000E+00 0. -1.
         25    2    1    2    0    0  0.14998575829E+02 -0.24922318244E+02  0.14585337491E+02  0.12914665784E+03  0.12498019018E+03 0.  0.
          2    1    1    2  501    0  0.33663032073E+02 -0.34882179085E+02 -0.41294325176E+03  0.41577890196E+03  0.00000000000E+00 0. -1.
          1    1    1    2  502    0 -0.48661607903E+02  0.59804497329E+02  0.50866383512E+03  0.51447393243E+03  0.00000000000E+00 0. -1.
         22    1    3    3    0    0  0.62279139956E+02 -0.31664950383E+02 -0.16978204806E+02  0.71900068115E+02  0.00000000000E+00 0. -1.
         22    1    3    3    0    0 -0.47280564127E+02  0.67426321390E+01  0.31563542298E+02  0.57246589721E+02  0.00000000000E+00 0. -1.
</event>
<event>
 7    1  0.6443388E-006  0.1610684E+03  0.7818608E-02  0.1297446E+00
          2   -1    0    0  502    0  0.00000000000E+00  0.00000000000E+00  0.33092917959E+03  0.33092917959E+03  0.00000000000E+00 0. -1.
          1   -1    0    0  501    0 -0.00000000000E+00 -0.00000000000E+00 -0.16888071354E+03  0.16888071354E+03  0.00000000000E+00 0. -1.
         25    2    1    2    0    0  0.52674599170E+02  0.12909241228E+03  0.13191412793E+03  0.22905615671E+03  0.12500368584E+03 0.  0.
          2    1    1    2  501    0  0.59202391705E+01  0.52525379877E+02 -0.41203326707E+02  0.67019988771E+02  0.00000000000E+00 0. -1.
          1    1    1    2  502    0 -0.58594838341E+02 -0.18161779216E+03  0.71337664830E+02  0.20373374765E+03  0.00000000000E+00 0. -1.
         22    1    3    3    0    0  0.51748072812E+01  0.11218023361E+03  0.31403430311E+02  0.11660771363E+03  0.00000000000E+00 0.  1.
         22    1    3    3    0    0  0.47499791889E+02  0.16912178678E+02  0.10051069762E+03  0.11244844309E+03  0.00000000000E+00 0.  1.
</event>
<event>
 7    1  0.6443388E-006  0.4570683E+02  0.7818608E-02  0.1509178E+00
          2   -1    0    0  502    0  0.00000000000E+00  0.00000000000E+00  0.81102330455E+02  0.81102330455E+02  0.00000000000E+00 0. -1.
          1   -1    0    0  501    0 -0.00000000000E+00 -0.00000000000E+00 -0.41681199254E+03  0.41681199254E+03  0.00000000000E+00 0. -1.
         25    2    1    2    0    0 -0.15852175901E+02 -0.25070168736E+02 -0.16790036799E+03  0.21141466268E+03  0.12500328470E+03 0.  0.
          2    1    1    2  501    0  0.47500324802E+02  0.10654537297E+02 -0.21914867499E+03  0.22449040463E+03  0.00000000000E+00 0. -1.
          1    1    1    2  502    0 -0.31648148901E+02  0.14415631439E+02  0.51339380898E+02  0.62009255677E+02  0.00000000000E+00 0. -1.
         22    1    3    3    0    0 -0.20249887585E+02 -0.73729763991E+02 -0.12428671917E+03  0.14592232388E+03  0.00000000000E+00 0.  1.
         22    1    3    3    0    0  0.43977116840E+01  0.48659595255E+02 -0.43613648824E+02  0.65492338805E+02  0.00000000000E+00 0.  1.
</event>
<event>
 7    1  0.6443388E-006  0.1895821E+03  0.7818608E-02  0.1201329E+00
          2   -1    0    0  502    0  0.00000000000E+00  0.00000000000E+00  0.37150027199E+04  0.37150027199E+04  0.00000000000E+00 0. -1.
          1   -1    0    0  501    0 -0.00000000000E+00 -0.00000000000E+00 -0.22899479215E+03  0.22899479215E+03  0.00000000000E+00 0. -1.
         25    2    1    2    0    0  0.11564870498E+02  0.23871220509E+03  0.68425338767E+03  0.73548944688E+03  0.12499905941E+03 0.  0.
          2    1    1    2  501    0 -0.93833373689E+02 -0.70864353515E+02 -0.18320921014E+03  0.21769720553E+03  0.00000000000E+00 0. -1.
          1    1    1    2  502    0  0.82268503191E+02 -0.16784785157E+03  0.29849637502E+04  0.29908108596E+04  0.00000000000E+00 0. -1.
         22    1    3    3    0    0  0.33470844983E+01  0.21421728009E+03  0.67477338109E+03  0.70796847521E+03  0.00000000000E+00 0.  1.
         22    1    3    3    0    0  0.82177859997E+01  0.24494924994E+02  0.94800065828E+01  0.27520971676E+02  0.00000000000E+00 0.  1.
</event>
<event>
 7    1  0.6443388E-006  0.9279750E+02  0.7818608E-02  0.1429262E+00
          2   -1    0    0  502    0  0.00000000000E+00  0.00000000000E+00  0.30120413837E+04  0.30120413837E+04  0.00000000000E+00 0. -1.
          1   -1    0    0  501    0 -0.00000000000E+00 -0.00000000000E+00 -0.52854899707E+03  0.52854899707E+03  0.00000000000E+00 0. -1.
         25    2    1    2    0    0  0.90488301704E+02  0.28271154404E+01 -0.46797176552E+03  0.49276309742E+03  0.12498708546E+03 0.  0.
          2    1    1    2  501    0 -0.37414132731E+01  0.30163107944E+02 -0.42596530257E+02  0.52328535658E+02  0.00000000000E+00 0. -1.
          1    1    1    2  502    0 -0.86746888430E+02 -0.32990223385E+02  0.29940606824E+04  0.29954987477E+04  0.00000000000E+00 0. -1.
         22    1    3    3    0    0  0.43139946467E+02 -0.12864593709E+02 -0.35250785344E+02  0.57176661496E+02  0.00000000000E+00 0. -1.
         22    1    3    3    0    0  0.47348355237E+02  0.15691709149E+02 -0.43272098017E+03  0.43558643592E+03  0.00000000000E+00 0. -1.
</event>
<event>
 7    1  0.6443388E-006  0.1028643E+03  0.7818608E-02  0.1350465E+00
          2   -1    0    0  502    0  0.00000000000E+00  0.00000000000E+00  0.68623691122E+02  0.68623691122E+02  0.00000000000E+00 0. -1.
          1   -1    0    0  501    0 -0.00000000000E+00 -0.00000000000E+00 -0.46100163993E+03  0.46100163993E+03  0.00000000000E+00 0. -1.
         25    2    1    2    0    0 -0.37753767483E+02  0.91490912846E+02 -0.16077965850E+03  0.22643368371E+03  0.12500472166E+03 0.  0.
          2    1    1    2  501    0  0.83662429192E+02 -0.67759205764E+02 -0.22708744920E+03  0.25131538275E+03  0.00000000000E+00 0. -1.
          1    1    1    2  502    0 -0.45908661710E+02 -0.23731707081E+02 -0.45108411168E+01  0.51876264597E+02  0.00000000000E+00 0. -1.
         22    1    3    3    0    0  0.27186157231E+02  0.49671003352E+01  0.53845160168E+01  0.28155856291E+02  0.00000000000E+00 0.  1.
         22    1    3    3    0    0 -0.64939924714E+02  0.86523812510E+02 -0.16616417451E+03  0.19827782742E+03  0.00000000000E+00 0.  1.
</event>
<event>
 7    1  0.6443388E-006  0.3107407E+02  0.7818608E-02  0.1640344E+00
          2   -1    0    0  502    0  0.00000000000E+00  0.00000000000E+00  0.23738527412E+04  0.23738527412E+04  0.00000000000E+00 0. -1.
          1   -1    0    0  501    0 -0.00000000000E+00 -0.00000000000E+00 -0.10007367980E+02  0.10007367980E+02  0.00000000000E+00 0. -1.
         25    2    1    2    0    0 -0.28465010949E+02  0.31118542995E+02  0.21686019590E+04  0.21726108470E+04  0.12499926150E+03 0.  0.
          2    1    1    2  501    0  0.22081676178E+02 -0.48105077267E+01  0.11194739899E+02  0.25220301521E+02  0.00000000000E+00 0. -1.
          1    1    1    2  502    0  0.63833347714E+01 -0.26308035269E+02  0.18404867429E+03  0.18602896063E+03  0.00000000000E+00 0. -1.
         22    1    3    3    0    0 -0.40536586321E+02 -0.26144098247E+02  0.16521206806E+04  0.16528246949E+04  0.00000000000E+00 0.  1.
         22    1    3    3    0    0  0.12071575372E+02  0.57262641242E+02  0.51648127845E+03  0.51978615219E+03  0.00000000000E+00 0.  1.
</event>
<event>
 7    1  0.6443388E-006  0.6881460E+02  0.7818608E-02  0.1422697E+00
          2   -1    0    0  502    0  0.00000000000E+00  0.00000000000E+00  0.57560449167E+03  0.57560449167E+03  0.00000000000E+00 0. -1.
          1   -1    0    0  501    0 -0.00000000000E+00 -0.00000000000E+00 -0.13980787298E+03  0.13980787298E+03  0.00000000000E+00 0. -1.
         25    2    1    2    0    0  0.52905588146E+02  0.94959011466E+02  0.12717843908E+03  0.20884489400E+03  0.12500247704E+03 0.  0.
          2    1    1    2  501    0 -0.36846952751E+02 -0.54972175422E+02 -0.86608599338E+02  0.10899856640E+03  0.00000000000E+00 0. -1.
          1    1    1    2  502    0 -0.16058635394E+02 -0.39986836044E+02  0.39522677895E+03  0.39756890425E+03  0.00000000000E+00 0. -1.
         22    1    3    3    0    0  0.53397109791E+02 -0.11918476528E+02  0.22231586704E+02  0.59055438905E+02  0.00000000000E+00 0. -1.
         22    1    3    3    0    0 -0.49152164575E+00  0.10687748799E+03  0.10494685238E+03  0.14978945509E+03  0.00000000000E+00 0. -1.
</event>
<event>
 7    1  0.6443388E-006  0.7878932E+02  0.7818608E-02  0.1456784E+00
          2   -1    0    0  502    0  0.00000000000E+00  0.00000000000E+00  0.10106617564E+04  0.10106617564E+04  0.00000000000E+00 0. -1.
          1   -1    0    0  501    0 -0.00000000000E+00 -0.00000000000E+00 -0.11820094399E+03  0.11820094399E+03  0.00000000000E+00 0. -1.
         25    2    1    2    0    0  0.31827035029E+02  0.50874607728E+02  0.44006610964E+03  0.46139364607E+03  0.12499891963E+03 0.  0.
          2    1    1    2  501    0  0.27494732922E+02  0.97394072299E+01 -0.10227474896E+03  0.10635290624E+03  0.00000000000E+00 0. -1.
          1    1    1    2  502    0 -0.59321767951E+02 -0.60614014958E+02  0.55466945174E+03  0.56111614810E+03  0.00000000000E+00 0. -1.
         22    1    3    3    0    0  0.18064701537E+02  0.81267878241E+02  0.17016766305E+03  0.18944084834E+03  0.00000000000E+00 0. -1.
         22    1    3    3    0    0  0.13762333491E+02 -0.30393270513E+02  0.26989844659E+03  0.27195279772E+03  0.00000000000E+00 0. -1.
</event>
<event>
 7    1  0.6443388E-006  0.8014590E+02  0.7818608E-02  0.1451029E+00
          2   -1    0    0  502    0  0.00000000000E+00  0.00000000000E+00  0.42432832744E+03  0.42432832744E+03  0.00000000000E+00 0. -1.
          1   -1    0    0  501    0 -0.00000000000E+00 -0.00000000000E+00 -0.22627240608E+03  0.22627240608E+03  0.00000000000E+00 0. -1.
         25    2    1    2    0    0  0.23324721571E+02  0.47728882106E+02 -0.14107368720E+03  0.19582827964E+03  0.12499936425E+03 0.  0.
          2    1    1    2  501    0  0.24076486796E+02  0.17745933803E+02 -0.49495078482E+02  0.57830426048E+02  0.00000000000E+00 0. -1.
          1    1    1    2  502    0 -0.47401208366E+02 -0.65474815909E+02  0.38862468705E+03  0.39694202783E+03  0.00000000000E+00 0. -1.
         22    1    3    3    0    0  0.18501989545E+02  0.86900187203E+02 -0.12466516782E+03  0.15308615294E+03  0.00000000000E+00 0.  1.
         22    1    3    3    0    0  0.48227320253E+01 -0.39171305096E+02 -0.16408519379E+02  0.42742126706E+02  0.00000000000E+00 0.  1.
</event>
<event>
 7    1  0.6443388E-006  0.9678796E+02  0.7818608E-02  0.1379010E+00
          2   -1    0    0  502    0  0.00000000000E+00  0.00000000000E+00  0.35935985601E+03  0.35935985601E+03  0.00000000000E+00 0. -1.
          1   -1    0    0  501    0 -0.00000000000E+00 -0.00000000000E+00 -0.25744283181E+04  0.25744283181E+04  0.00000000000E+00 0. -1.
         25    2    1    2    0    0 -0.94532123305E+02  0.65439282899E+02 -0.44601220013E+02  0.17557702547E+03  0.12497760184E+03 0.  0.
          2    1    1    2  501    0  0.40891142832E+02  0.14189423165E+02 -0.24563015201E+04  0.24566828414E+04  0.00000000000E+00 0. -1.
          1    1    1    2  502    0  0.53640980473E+02 -0.79628706064E+02  0.28583427802E+03  0.30152830730E+03  0.00000000000E+00 0. -1.
         22    1    3    3    0    0 -0.12554170837E+03  0.55398971633E+02 -0.36331646737E+02  0.14194983322E+03  0.00000000000E+00 0.  1.
         22    1    3    3    0    0  0.31009585061E+02  0.10040311266E+02 -0.82695732758E+01  0.33627192243E+02  0.00000000000E+00 0.  1.
</event>
<event>
 7    1  0.6443388E-006  0.2157458E+03  0.7818608E-02  0.1369347E+00
          2   -1    0    0  502    0  0.00000000000E+00  0.00000000000E+00  0.95159598835E+03  0.95159598835E+03  0.00000000000E+00 0. -1.
          1   -1    0    0  501    0 -0.00000000000E+00 -0.00000000000E+00 -0.67192146922E+03  0.67192146922E+03  0.00000000000E+00 0. -1.
         25    2    1    2    0    0 -0.14943963657E+03 -0.13489921163E+03  0.57400786481E+02  0.24382263670E+03  0.12499850240E+03 0.  0.
          2    1    1    2  501    0  0.15219017278E+03  0.15574268307E+03 -0.55807977467E+03  0.59905814986E+03  0.00000000000E+00 0. -1.
          1    1    1    2  502    0 -0.27505362074E+01 -0.20843471432E+02  0.78035350731E+03  0.78063667101E+03  0.00000000000E+00 0. -1.
         22    1    3    3    0    0 -0.31891095010E+02  0.18015182557E+02  0.33201721840E+02  0.49436252656E+02  0.00000000000E+00 0. -1.
         22    1    3    3    0    0 -0.11754854156E+03 -0.15291439419E+03  0.24199064642E+02  0.19438638405E+03  0.00000000000E+00 0. -1.
</event>
<event>
 7    1  0.6443388E-006  0.2416454E+03  0.7818608E-02  0.1279356E+00
          2   -1    0    0  502    0  0.00000000000E+00  0.00000000000E+00  0.82489387016E+03  0.82489387016E+03  0.00000000000E+00 0. -1.
          1   -1    0    0  501    0 -0.00000000000E+00 -0.00000000000E+00 -0.17249139499E+03  0.17249139499E+03  0.00000000000E+00 0. -1.
         25    2    1    2    0    0 -0.84025327960E+02  0.20486966877E+03  0.40988710916E+03  0.48235208876E+03  0.12499703337E+03 0.  0.
          2    1    1    2  501    0  0.60886615244E+02 -0.23962670815E+03 -0.21092269292E+02  0.24813912025E+03  0.00000000000E+00 0. -1.
          1    1    1    2  502    0  0.23138712717E+02  0.34757039386E+02  0.26360763530E+03  0.26689405614E+03  0.00000000000E+00 0. -1.
         22    1    3    3    0    0 -0.98480703793E+02  0.17245222956E+03  0.25370227463E+03  0.32218482995E+03  0.00000000000E+00 0. -1.
         22    1    3    3    0    0  0.14455375833E+02  0.32417439209E+02  0.15618483453E+03  0.16016725880E+03  0.00000000000E+00 0. -1.
</event>
<event>
 7    1  0.6443388E-006  0.8360215E+02  0.7818608E-02  0.1416662E+00
          2   -1    0    0  502    0  0.00000000000E+00  0.00000000000E+00  0.26659624937E+04  0.26659624937E+04  0.00000000000E+00 0. -1.
          1   -1    0    0  501    0 -0.00000000000E+00 -0.00000000000E+00 -0.37017556323E+03  0.37017556323E+03  0.00000000000E+00 0. -1.
         25    2    1    2    0    0 -0.39285556313E+01  0.83730215433E+02  0.32803670404E+03  0.36090776016E+03  0.12498059700E+03 0.  0.
          2    1    1    2  501    0 -0.32628959581E+02 -0.77095500497E+02 -0.34863592029E+03  0.35854618966E+03  0.00000000000E+00 0. -1.
          1    1    1    2  502    0  0.36557515212E+02 -0.66347149361E+01  0.23163861467E+04  0.23166841071E+04  0.00000000000E+00 0. -1.
         22    1    3    3    0    0  0.88250970531E+01  0.69437335758E+02  0.33367650417E+03  0.34093904935E+03  0.00000000000E+00 0. -1.
         22    1    3    3    0    0 -0.12753652684E+02  0.14292879674E+02 -0.56398001330E+01  0.19968710818E+02  0.00000000000E+00 0. -1.
</event>
<event>
 7    1  0.6443388E-006  0.1111542E+03  0.7818608E-02  0.1442914E+00
          2   -1    0    0  502    0  0.00000000000E+00  0.00000000000E+00  0.15393689316E+03  0.15393689316E+03  0.00000000000E+00 0. -1.
          1   -1    0    0  501    0 -0.00000000000E+00 -0.00000000000E+00 -0.16116394001E+04  0.16116394001E+04  0.00000000000E+00 0. -1.
         25    2    1    2    0    0  0.83365613320E+02 -0.60019924166E+02 -0.74021867729E+03  0.75769431943E+03  0.12499909882E+03 0.  0.
          2    1    1    2  501    0  0.18134114157E+02  0.13985395911E+02 -0.84111727841E+03  0.84142897112E+03  0.00000000000E+00 0. -1.
          1    1    1    2  502    0 -0.10149972748E+03  0.46034528255E+02  0.12363344875E+03  0.16645300273E+03  0.00000000000E+00 0. -1.
         22    1    3    3    0    0  0.10799996530E+03 -0.34662349903E+02 -0.66472357075E+03  0.67433144411E+03  0.00000000000E+00 0. -1.
         22    1    3    3    0    0 -0.24634351979E+02 -0.25357574263E+02 -0.75495106537E+02  0.83362875316E+02  0.00000000000E+00 0. -1.
</event>
<event>
 7    1  0.6443388E-006  0.6303934E+02  0.7818608E-02  0.1472214E+00
          2   -1    0    0  502    0  0.00000000000E+00  0.00000000000E+00  0.12812787786E+04  0.12812787786E+04  0.00000000000E+00 0. -1.
          1   -1    0    0  501    0 -0.00000000000E+00 -0.00000000000E+00 -0.73861069091E+03  0.73861069091E+03  0.00000000000E+00 0. -1.
         25    2    1    2    0    0 -0.49892118076E+02 -0.38475035367E+02  0.99358116637E+02  0.17166115137E+03  0.12500385497E+03 0.  0.
          2    1    1    2  501    0  0.25773978983E+02 -0.19983985249E+02 -0.70120727707E+03  0.70196531472E+03  0.00000000000E+00 0. -1.
          1    1    1    2  502    0  0.24118139093E+02  0.58459020616E+02  0.11445172481E+04  0.11462630034E+04  0.00000000000E+00 0. -1.
         22    1    3    3    0    0 -0.95441436442E+01  0.21527237175E+01 -0.29271256318E+02  0.30863106515E+02  0.00000000000E+00 0.  1.
         22    1    3    3    0    0 -0.40347974432E+02 -0.40627759084E+02  0.12862937296E+03  0.14079804486E+03  0.00000000000E+00 0.  1.
</event>
<event>
 7    1  0.6443388E-006  0.1836503E+03  0.7818608E-02  0.1292575E+00
          2   -1    0    0  502    0  0.00000000000E+00  0.00000000000E+00  0.37857328717E+04  0.37857328717E+04  0.00000000000E+00 0. -1.
          1   -1    0    0  501    0 -0.00000000000E+00 -0.00000000000E+00 -0.91048773718E+02  0.91048773718E+02  0.00000000000E+00 0. -1.
         25    2    1    2    0    0 -0.96590035475E+02  0.11592120387E+03  0.42948364850E+03  0.47206820586E+03  0.12499930477E+03 0.  0.
          2    1    1    2  501    0 -0.48350519349E+02  0.38644385113E+01 -0.58333279860E+02  0.75864867663E+02  0.00000000000E+00 0. -1.
          1    1    1    2  502    0  0.14494055482E+03 -0.11978564238E+03  0.33235337294E+04  0.33288485719E+04  0.00000000000E+00 0. -1.
         22    1    3    3    0    0 -0.56620198147E+02  0.13815210726E+03  0.30856218134E+03  0.34278633481E+03  0.00000000000E+00 0.  1.
         22    1    3    3    0    0 -0.39969837328E+02 -0.22230903393E+02  0.12092146716E+03  0.12928187105E+03  0.00000000000E+00 0.  1.
</event>
<event>
 7    1  0.6443388E-006  0.6580323E+02  0.7818608E-02  0.1438222E+00
          2   -1    0    0  502    0  0.00000000000E+00  0.00000000000E+00  0.16926456721E+04  0.16926456721E+04  0.00000000000E+00 0. -1.
          1   -1    0    0  501    0 -0.00000000000E+00 -0.00000000000E+00 -0.11102685030E+02  0.11102685030E+02  0.00000000000E+00 0. -1.
         25    2    1    2    0    0 -0.60966352939E+02  0.33488745351E+02  0.12680980094E+04  0.12761408773E+04  0.12499833979E+03 0.  0.
          2    1    1    2  501    0  0.66641725380E+02  0.61700183737E+01  0.21567527033E+03  0.22582074954E+03  0.00000000000E+00 0. -1.
          1    1    1    2  502    0 -0.56753724407E+01 -0.39658763724E+02  0.19776970733E+03  0.20178673031E+03  0.00000000000E+00 0. -1.
         22    1    3    3    0    0 -0.64940146994E+02 -0.32237723817E+02  0.82463017216E+03  0.82781121903E+03  0.00000000000E+00 0. -1.
         22    1    3    3    0    0  0.39737940551E+01  0.65726469168E+02  0.44346783727E+03  0.44832965827E+03  0.00000000000E+00 0. -1.
</event>
<event>
 7    1  0.6443388E-006  0.3547062E+03  0.7818608E-02  0.1161383E+00
          2   -1    0    0  502    0  0.00000000000E+00  0.00000000000E+00  0.40637362769E+03  0.40637362769E+03  0.00000000000E+00 0. -1.
          1   -1    0    0  501    0 -0.00000000000E+00 -0.00000000000E+00 -0.11220019897E+04  0.11220019897E+04  0.00000000000E+00 0. -1.
         25    2    1    2    0    0  0.14697963263E+03 -0.30492015469E+03  0.20557134537E+03  0.41528835475E+03  0.12500210564E+03 0.  0.
          2    1    1    2  501    0  0.25313247065E+02 -0.95057993137E+02 -0.49161374794E+03  0.50135901279E+03  0.00000000000E+00 0. -1.
          1    1    1    2  502    0 -0.17229287969E+03  0.39997814782E+03 -0.42958595948E+03  0.61172824989E+03  0.00000000000E+00 0. -1.
         22    1    3    3    0    0  0.11104939863E+03 -0.24980271795E+03  0.21633716588E+03  0.34861889818E+03  0.00000000000E+00 0.  1.
         22    1    3    3    0    0  0.35930233999E+02 -0.55117436741E+02 -0.10765820511E+02  0.66669456570E+02  0.00000000000E+00 0.  1.
</event>
<event>
 7    1  0.6443388E-006  0.1013491E+03  0.7818608E-02  0.1310551E+00
          2   -1    0    0  502    0  0.00000000000E+00  0.00000000000E+00  0.22099597085E+04  0.22099597085E+04  0.00000000000E+00 0. -1.
          1   -1    0    0  501    0 -0.00000000000E+00 -0.00000000000E+00 -0.70457530920E+02  0.70457530920E+02  0.00000000000E+00 0. -1.
         25    2    1    2    0    0  0.95479567644E+01 -0.10716459448E+03  0.35796982452E+03  0.39413633294E+03  0.12500255953E+03 0.  0.
          2    1    1    2  501    0 -0.75045301790E+02  0.71660206373E+02  0.57470899579E+00  0.10376566286E+03  0.00000000000E+00 0. -1.
          1    1    1    2  502    0  0.65497345026E+02  0.35504388109E+02  0.17809576441E+04  0.17825152437E+04  0.00000000000E+00 0. -1.
         22    1    3    3    0    0 -0.50744509811E+01 -0.97801833246E+02  0.36306476240E+03  0.37604118170E+03  0.00000000000E+00 0.  1.
         22    1    3    3    0    0  0.14622407746E+02 -0.93627612363E+01 -0.50949378839E+01  0.18095151237E+02  0.00000000000E+00 0.  1.
</event>
<event>
 7    1  0.6443388E-006  0.1225899E+03  0.7818608E-02  0.1276954E+00
          2   -1    0    0  502    0  0.00000000000E+00  0.00000000000E+00  0.24936608092E+04  0.24936608092E+04  0.00000000000E+00 0. -1.
          1   -1    0    0  501    0 -0.00000000000E+00 -0.00000000000E+00 -0.80874888646E+03  0.80874888646E+03  0.00000000000E+00 0. -1.
         25    2    1    2    0    0 -0.88872634725E+02 -0.88957977703E+02  0.63130927867E+03  0.65573529780E+03  0.12500203378E+03 0.  0.
          2    1    1    2  501    0 -0.36750341146E+02  0.75772706635E+02 -0.79214539023E+03  0.79660932075E+03  0.00000000000E+00 0. -1.
          1    1    1    2  502    0  0.12562297587E+03  0.13185271068E+02  0.18457480343E+04  0.18500650772E+04  0.00000000000E+00 0. -1.
         22    1    3    3    0    0 -0.27558034479E+02 -0.81835386651E+02  0.17368108905E+03  0.19396287393E+03  0.00000000000E+00 0. -1.
         22    1    3    3    0    0 -0.61314600246E+02 -0.71225910515E+01  0.45762818962E+03  0.46177242387E+03  0.00000000000E+00 0. -1.
</event>
<event>
 7    1  0.6443388E-006  0.1606569E+03  0.7818608E-02  0.1201493E+00
          2   -1    0    0  502    0  0.00000000000E+00  0.00000000000E+00  0.12552715765E+04  0.12552715765E+04  0.00000000000E+00 0. -1.
          1   -1    0    0  501    0 -0.00000000000E+00 -0.00000000000E+00 -0.14823642246E+03  0.14823642246E+03  0.00000000000E+00 0. -1.
         25    2    1    2    0    0  0.25818301063E+03 -0.87232847842E+02  0.19080152625E+03  0.35538454438E+03  0.12499966095E+03 0.  0.
          2    1    1    2  501    0 -0.13829332547E+03 -0.77358231118E+01  0.21208000642E+02  0.14012375287E+03  0.00000000000E+00 0. -1.
          1    1    1    2  502    0 -0.11988968517E+03  0.94968670954E+02  0.89502562712E+03  0.90799970169E+03  0.00000000000E+00 0. -1.
         22    1    3    3    0    0  0.22485448308E+03 -0.94213663371E+02  0.20496317993E+03  0.31850535012E+03  0.00000000000E+00 0.  1.
         22    1    3    3    0    0  0.33328527553E+02  0.69808155288E+01 -0.14161653675E+02  0.36879194258E+02  0.00000000000E+00 0.  1.
</event>
<event>
 7    1  0.6443388E-006  0.7914314E+02  0.7818608E-02  0.1423166E+00
          2   -1    0    0  502    0  0.00000000000E+00  0.00000000000E+00  0.17048929456E+04  0.17048929456E+04  0.00000000000E+00 0. -1.
          1   -1    0    0  501    0 -0.00000000000E+00 -0.00000000000E+00 -0.14067688155E+03  0.14067688155E+03  0.00000000000E+00 0. -1.
         25    2    1    2    0    0  0.36596794883E+02 -0.26522598046E+02 -0.37267721681E+01  0.13298238960E+03  0.12501061359E+03 0.  0.
          2    1    1    2  501    0  0.37167929374E+02 -0.35069255297E+01 -0.66469320525E+02  0.76235976230E+02  0.00000000000E+00 0. -1.
          1    1    1    2  502    0 -0.73764724257E+02  0.30029523576E+02  0.16344121568E+04  0.16363514613E+04  0.00000000000E+00 0. -1.
         22    1    3    3    0    0  0.22377830230E+02 -0.13012504293E+02 -0.64298774331E+02  0.69313959159E+02  0.00000000000E+00 0. -1.
         22    1    3    3    0    0  0.14218964653E+02 -0.13510093753E+02  0.60572002163E+02  0.63668430443E+02  0.00000000000E+00 0. -1.
</event>
<event>
 7    1  0.6443388E-006  0.6732514E+02  0.7818608E-02  0.1381853E+00
          2   -1    0    0  502    0  0.00000000000E+00  0.00000000000E+00  0.71219366027E+03  0.71219366027E+03  0.00000000000E+00 0. -1.
          1   -1    0    0  501    0 -0.00000000000E+00 -0.00000000000E+00 -0.38612590677E+03  0.38612590677E+03  0.00000000000E+00 0. -1.
         25    2    1    2    0    0  0.17287320104E+02 -0.12483014555E+03  0.29358865774E+03  0.34307480444E+03  0.12499841925E+03 0.  0.
          2    1    1    2  501    0 -0.18847310451E+02  0.64050668608E+02 -0.35591372723E+03  0.36212192766E+03  0.00000000000E+00 0. -1.
          1    1    1    2  502    0  0.15599903470E+01  0.60779476940E+02  0.38839282300E+03  0.39312283493E+03  0.00000000000E+00 0. -1.
         22    1    3    3    0    0 -0.23903815293E+02 -0.96675119674E+02  0.27020576554E+03  0.28797330932E+03  0.00000000000E+00 0. -1.
         22    1    3    3    0    0  0.41191135397E+02 -0.28155025874E+02  0.23382892203E+02  0.55101495125E+02  0.00000000000E+00 0. -1.
</event>
<event>
 7    1  0.6443388E-006  0.7594288E+02  0.7818608E-02  0.1402634E+00
          2   -1    0    0  502    0  0.00000000000E+00  0.00000000000E+00  0.18636660582E+04  0.18636660582E+04  0.00000000000E+00 0. -1.
          1   -1    0    0  501    0 -0.00000000000E+00 -0.00000000000E+00 -0.14352425569E+03  0.14352425569E+03  0.00000000000E+00 0. -1.
         25    2    1    2    0    0 -0.21830067937E+02 -0.24488970942E+02  0.29600762918E+03  0.32298829593E+03  0.12499864485E+03 0.  0.
          2    1    1    2  501    0  0.40723254280E+02  0.66030415666E+02 -0.11809545547E+03  0.14129733131E+03  0.00000000000E+00 0. -1.
          1    1    1    2  502    0 -0.18893186343E+02 -0.41541444724E+02  0.15422296288E+04  0.15429046866E+04  0.00000000000E+00 0. -1.
         22    1    3    3    0    0 -0.30036310300E+02 -0.46147148211E+02  0.45544425397E+02  0.71456517612E+02  0.00000000000E+00 0. -1.
         22    1    3    3    0    0  0.82062423638E+01  0.21658177269E+02  0.25046320378E+03  0.25153177832E+03  0.00000000000E+00 0. -1.
</event>
<event>
 7    1  0.6443388E-006  0.3166248E+02  0.7818608E-02  0.1620831E+00
          2   -1    0    0  502    0  0.00000000000E+00  0.00000000000E+00  0.11149806275E+04  0.11149806275E+04  0.00000000000E+00 0. -1.
          1   -1    0    0  501    0 -0.00000000000E+00 -0.00000000000E+00 -0.17435467953E+03  0.17435467953E+03  0.00000000000E+00 0. -1.
         25    2    1    2    0    0  0.29975474166E+02  0.40272872519E+02  0.10439285216E+02  0.13511111362E+03  0.12500240411E+03 0.  0.
          2    1    1    2  501    0 -0.22960672137E+02 -0.94536230330E+01 -0.11039982257E+03  0.11315778487E+03  0.00000000000E+00 0. -1.
          1    1    1    2  502    0 -0.70148020290E+01 -0.30819249486E+02  0.10405864853E+04  0.10410664086E+04  0.00000000000E+00 0. -1.
         22    1    3    3    0    0  0.24703005362E+02  0.68995630408E+02  0.47946729142E+02  0.87575820434E+02  0.00000000000E+00 0. -1.
         22    1    3    3    0    0  0.52724688040E+01 -0.28722757889E+02 -0.37507443926E+02  0.47535293182E+02  0.00000000000E+00 0. -1.
</event>
<event>
 7    1  0.6443388E-006  0.5437756E+02  0.7818608E-02  0.1423450E+00
          2   -1    0    0  502    0  0.00000000000E+00  0.00000000000E+00  0.35280451388E+03  0.35280451388E+03  0.00000000000E+00 0. -1.
          1   -1    0    0  501    0 -0.00000000000E+00 -0.00000000000E+00 -0.34579343561E+03  0.34579343561E+03  0.00000000000E+00 0. -1.
         25    2    1    2    0    0 -0.44751660660E+02 -0.31360981928E+02 -0.21663816450E+03  0.25601493064E+03  0.12500131229E+03 0.  0.
          2    1    1    2  501    0  0.49048957767E+02 -0.23103180549E+02 -0.10032313640E+03  0.11403634906E+03  0.00000000000E+00 0. -1.
          1    1    1    2  502    0 -0.42972971070E+01  0.54464162477E+02  0.32397237918E+03  0.32854666979E+03  0.00000000000E+00 0. -1.
         22    1    3    3    0    0 -0.29549762564E-01 -0.69289050628E+02 -0.16057854793E+03  0.17488980378E+03  0.00000000000E+00 0. -1.
         22    1    3    3    0    0 -0.44722110897E+02  0.37928068700E+02 -0.56059616573E+02  0.81125126865E+02  0.00000000000E+00 0. -1.
</event>
<event>
 7    1  0.6443388E-006  0.9555158E+02  0.7818608E-02  0.1379384E+00
          2   -1    0    0  502    0  0.00000000000E+00  0.00000000000E+00  0.11015452856E+04  0.11015452856E+04  0.00000000000E+00 0. -1.
          1   -1    0    0  501    0 -0.00000000000E+00 -0.00000000000E+00 -0.47510640859E+03  0.47510640859E+03  0.00000000000E+00 0. -1.
         25    2    1    2    0    0 -0.15492122352E+02 -0.12372942529E+03  0.36599608207E+03  0.40635477705E+03  0.12498838428E+03 0.  0.
          2    1    1    2  501    0 -0.16385833350E+02  0.93824356391E+02 -0.44926217964E+03  0.45924722257E+03  0.00000000000E+00 0. -1.
          1    1    1    2  502    0  0.31877955702E+02  0.29905068897E+02  0.70970497459E+03  0.71104969459E+03  0.00000000000E+00 0. -1.
         22    1    3    3    0    0 -0.33181426891E+00 -0.36215780260E+02  0.74549155630E+01  0.36976595390E+02  0.00000000000E+00 0. -1.
         22    1    3    3    0    0 -0.15160308083E+02 -0.87513645028E+02  0.35854116651E+03  0.36937818166E+03  0.00000000000E+00 0. -1.
</event>
<event>
 7    1  0.6443388E-006  0.6164650E+02  0.7818608E-02  0.1407744E+00
          2   -1    0    0  502    0  0.00000000000E+00  0.00000000000E+00  0.10730635379E+03  0.10730635379E+03  0.00000000000E+00 0. -1.
          1   -1    0    0  501    0 -0.00000000000E+00 -0.00000000000E+00 -0.24077977078E+03  0.24077977078E+03  0.00000000000E+00 0. -1.
         25    2    1    2    0    0 -0.76989585273E+02  0.76814629477E+02 -0.70991161833E+02  0.18026251493E+03  0.12500778251E+03 0.  0.
          2    1    1    2  501    0  0.35905831861E+02 -0.41759960099E+02 -0.91288594362E+02  0.10661486993E+03  0.00000000000E+00 0. -1.
          1    1    1    2  502    0  0.41083753412E+02 -0.35054669377E+02  0.28806339196E+02  0.61208739715E+02  0.00000000000E+00 0. -1.
         22    1    3    3    0    0 -0.11117567507E+03  0.68237410557E+02 -0.56293772405E+02  0.14207520452E+03  0.00000000000E+00 0.  1.
         22    1    3    3    0    0  0.34186089801E+02  0.85772189194E+01 -0.14697389428E+02  0.38187310409E+02  0.00000000000E+00 0.  1.
</event>
<event>
 7    1  0.6443388E-006  0.5135960E+02  0.7818608E-02  0.1462054E+00
          2   -1    0    0  502    0  0.00000000000E+00  0.00000000000E+00  0.58528063564E+02  0.58528063564E+02  0.00000000000E+00 0. -1.
          1   -1    0    0  501    0 -0.00000000000E+00 -0.00000000000E+00 -0.38782366671E+03  0.38782366671E+03  0.00000000000E+00 0. -1.
         25    2    1    2    0    0  0.15102538512E+02 -0.29753886785E+02 -0.25215341481E+03  0.28340776674E+03  0.12500094879E+03 0.  0.
          2    1    1    2  501    0 -0.58118422675E+02  0.31811249817E+02 -0.95415085092E+02  0.11616258060E+03  0.00000000000E+00 0. -1.
          1    1    1    2  502    0  0.43015884163E+02 -0.20573630318E+01  0.18272896761E+02  0.46781382932E+02  0.00000000000E+00 0. -1.
         22    1    3    3    0    0 -0.15490458002E+02  0.31784118993E+02 -0.18124364632E+03  0.18466034724E+03  0.00000000000E+00 0.  1.
         22    1    3    3    0    0  0.30592996514E+02 -0.61538005778E+02 -0.70909768492E+02  0.98747419503E+02  0.00000000000E+00 0.  1.
</event>
<event>
 7    1  0.6443388E-006  0.9159341E+02  0.7818608E-02  0.1349711E+00
          2   -1    0    0  502    0  0.00000000000E+00  0.00000000000E+00  0.17493502217E+04  0.17493502217E+04  0.00000000000E+00 0. -1.
          1   -1    0    0  501    0 -0.00000000000E+00 -0.00000000000E+00 -0.16144584401E+04  0.16144584401E+04  0.00000000000E+00 0. -1.
         25    2    1    2    0    0  0.54667159596E+02 -0.24920612747E+00  0.93299907903E+02  0.16528245162E+03  0.12499942222E+03 0.  0.
          2    1    1    2  501    0 -0.73941287902E+02 -0.54893164582E+02 -0.15765965659E+04  0.15792837950E+04  0.00000000000E+00 0. -1.
          1    1    1    2  502    0  0.19274128306E+02  0.55142370709E+02  0.16181884395E+04  0.16192424151E+04  0.00000000000E+00 0. -1.
         22    1    3    3    0    0  0.87905765286E+02  0.11254373976E+02  0.31277139854E+02  0.93980551081E+02  0.00000000000E+00 0.  1.
         22    1    3    3    0    0 -0.33238605690E+02 -0.11503580103E+02  0.62022768049E+02  0.71301900535E+02  0.00000000000E+00 0.  1.
</event>
<event>
 7    1  0.6443388E-006  0.1884168E+03  0.7818608E-02  0.1175586E+00
          2   -1    0    0  502    0  0.00000000000E+00  0.00000000000E+00  0.96835832183E+03  0.96835832183E+03  0.00000000000E+00 0. -1.
          1   -1    0    0  501    0 -0.00000000000E+00 -0.00000000000E+00 -0.12272987546E+04  0.12272987546E+04  0.00000000000E+00 0. -1.
         25    2    1    2    0    0 -0.24649353823E+03  0.21585472240E+03 -0.11953280637E+03  0.37049906514E+03  0.12501655852E+03 0.  0.
          2    1    1    2  501    0  0.10590410929E+03 -0.14517698209E+03 -0.96658467150E+03  0.98314696951E+03  0.00000000000E+00 0. -1.
          1    1    1    2  502    0  0.14058942894E+03 -0.70677740310E+02  0.82717704510E+03  0.84201104176E+03  0.00000000000E+00 0. -1.
         22    1    3    3    0    0  0.12309196356E+02 -0.17902366933E+01 -0.58632212876E+01  0.13751313617E+02  0.00000000000E+00 0.  1.
         22    1    3    3    0    0 -0.25880273458E+03  0.21764495909E+03 -0.11366958508E+03  0.35674775152E+03  0.00000000000E+00 0.  1.
</event>
<event>
 7    1  0.6443388E-006  0.6938387E+02  0.7818608E-02  0.1468402E+00
          2   -1    0    0  502    0  0.00000000000E+00  0.00000000000E+00  0.98161496737E+03  0.98161496737E+03  0.00000000000E+00 0. -1.
          1   -1    0    0  501    0 -0.00000000000E+00 -0.00000000000E+00 -0.68778006219E+03  0.68778006219E+03  0.00000000000E+00 0. -1.
         25    2    1    2    0    0  0.40441464585E+02  0.24214718662E+02  0.30961610740E+03  0.33720715692E+03  0.12499867221E+03 0.  0.
          2    1    1    2  501    0  0.29969307804E+02 -0.53968614413E+01 -0.67162095632E+03  0.67231093587E+03  0.00000000000E+00 0. -1.
          1    1    1    2  502    0 -0.70410772388E+02 -0.18817857221E+02  0.65583975411E+03  0.65987693677E+03  0.00000000000E+00 0. -1.
         22    1    3    3    0    0  0.41378758700E+02  0.51304847581E+02  0.30191797693E+03  0.30902888838E+03  0.00000000000E+00 0.  1.
         22    1    3    3    0    0 -0.93729411501E+00 -0.27090128918E+02  0.76981304698E+01  0.28178268538E+02  0.00000000000E+00 0.  1.
</event>
<event>
 7    1  0.6443388E-006  0.9923844E+02  0.7818608E-02  0.1373439E+00
          2   -1    0    0  502    0  0.00000000000E+00  0.00000000000E+00  0.15676285423E+04  0.15676285423E+04  0.00000000000E+00 0. -1.
          1   -1    0    0  501    0 -0.00000000000E+00 -0.00000000000E+00 -0.15512895805E+03  0.15512895805E+03  0.00000000000E+00 0. -1.
         25    2    1    2    0    0 -0.79909534929E+02  0.34935968799E+02  0.34508205755E+01  0.15245866670E+03  0.12500272477E+03 0.  0.
          2    1    1    2  501    0  0.72929203083E+02 -0.78569069214E+02 -0.44506904421E+02  0.11607166683E+03  0.00000000000E+00 0. -1.
          1    1    1    2  502    0  0.69803318457E+01  0.43633100414E+02  0.14535556681E+04  0.14542271669E+04  0.00000000000E+00 0. -1.
         22    1    3    3    0    0 -0.11207628749E+03  0.36698755238E+02 -0.81635531206E+01  0.11821394356E+03  0.00000000000E+00 0. -1.
         22    1    3    3    0    0  0.32166752561E+02 -0.17627864390E+01  0.11614373696E+02  0.34244723136E+02  0.00000000000E+00 0. -1.
</event>
<event>
 7    1  0.6443388E-006  0.1168593E+03  0.7818608E-02  0.1434517E+00
          2   -1    0    0  502    0  0.00000000000E+00  0.00000000000E+00  0.15052469241E+03  0.15052469241E+03  0.00000000000E+00 0. -1.
          1   -1    0    0  501    0 -0.00000000000E+00 -0.00000000000E+00 -0.83542152752E+03  0.83542152752E+03  0.00000000000E+00 0. -1.
         25    2    1    2    0    0  0.54332145224E+02 -0.11643338447E+03 -0.96633698254E+02  0.20364574738E+03  0.12499921505E+03 0.  0.
          2    1    1    2  501    0 -0.65129561867E+02  0.95903818889E+02 -0.67890804640E+03  0.68873473687E+03  0.00000000000E+00 0. -1.
          1    1    1    2  502    0  0.10797416643E+02  0.20529565582E+02  0.90644909534E+02  0.93565735681E+02  0.00000000000E+00 0. -1.
         22    1    3    3    0    0  0.36684596940E+02 -0.10992751605E+03 -0.11496786085E+02  0.11645597678E+03  0.00000000000E+00 0. -1.
         22    1    3    3    0    0  0.17647548283E+02 -0.65058684256E+01 -0.85136912169E+02  0.87189770605E+02  0.00000000000E+00 0. -1.
</event>
<event>
 7    1  0.6443388E-006  0.1033695E+03  0.7818608E-02  0.1435170E+00
          2   -1    0    0  502    0  0.00000000000E+00  0.00000000000E+00  0.99661422902E+02  0.99661422902E+02  0.00000000000E+00 0. -1.
          1   -1    0    0  501    0 -0.00000000000E+00 -0.00000000000E+00 -0.82008665987E+03  0.82008665987E+03  0.00000000000E+00 0. -1.
         25    2    1    2    0    0 -0.11835669647E+03 -0.29708674091E+02 -0.35296847109E+03  0.39383076800E+03  0.12500007729E+03 0.  0.
          2    1    1    2  501    0  0.17008131430E+02  0.19789870908E+02 -0.41338406685E+03  0.41420683511E+03  0.00000000000E+00 0. -1.
          1    1    1    2  502    0  0.10134856504E+03  0.99188031836E+01  0.45927300970E+02  0.11171047967E+03  0.00000000000E+00 0. -1.
         22    1    3    3    0    0 -0.10881469104E+03 -0.70434820044E+02 -0.29615978795E+03  0.32328365387E+03  0.00000000000E+00 0.  1.
         22    1    3    3    0    0 -0.95420054328E+01  0.40726145952E+02 -0.56808683139E+02  0.70547114128E+02  0.00000000000E+00 0.  1.
</event>
<event>
 7    1  0.6443388E-006  0.1007013E+03  0.7818608E-02  0.1436220E+00
          2   -1    0    0  502    0  0.00000000000E+00  0.00000000000E+00  0.23088686059E+04  0.23088686059E+04  0.00000000000E+00 0. -1.
          1   -1    0    0  501    0 -0.00000000000E+00 -0.00000000000E+00 -0.19159217099E+03  0.19159217099E+03  0.00000000000E+00 0. -1.
         25    2    1    2    0    0 -0.63763790138E+02  0.10718720094E+03  0.89100481008E+02  0.19778486221E+03  0.12500015610E+03 0.  0.
          2    1    1    2  501    0  0.20637035421E+02 -0.16743662373E+02 -0.13479279541E+03  0.13738753639E+03  0.00000000000E+00 0. -1.
          1    1    1    2  502    0  0.43126754718E+02 -0.90443538562E+02  0.21629687493E+04  0.21652883783E+04  0.00000000000E+00 0. -1.
         22    1    3    3    0    0 -0.82368921388E+02  0.66193500955E+02  0.10602407898E+03  0.14969076158E+03  0.00000000000E+00 0. -1.
         22    1    3    3    0    0  0.18605131249E+02  0.40993699980E+02 -0.16923597971E+02  0.48094100628E+02  0.00000000000E+00 0. -1.
</event>
<event>
 7    1  0.6443388E-006  0.7449821E+02  0.7818608E-02  0.1517805E+00
          2   -1    0    0  502    0  0.00000000000E+00  0.00000000000E+00  0.75327040247E+03  0.75327040247E+03  0.00000000000E+00 0. -1.
          1   -1    0    0  501    0 -0.00000000000E+00 -0.00000000000E+00 -0.51911503667E+02  0.51911503667E+02  0.00000000000E+00 0. -1.
         25    2    1    2    0    0 -0.57887830936E+02  0.13702472455E+02  0.25180955602E+03  0.28735034934E+03  0.12499364800E+03 0.  0.
          2    1    1    2  501    0  0.71571890227E+02 -0.28466344846E+02  0.98278896302E+01  0.77649569697E+02  0.00000000000E+00 0. -1.
          1    1    1    2  502    0 -0.13684059291E+02  0.14763872391E+02  0.43972145315E+03  0.44018198710E+03  0.00000000000E+00 0. -1.
         22    1    3    3    0    0 -0.42926341777E+02  0.51177921332E+02  0.55232662400E+02  0.86674664384E+02  0.00000000000E+00 0. -1.
         22    1    3    3    0    0 -0.14961489159E+02 -0.37475448878E+02  0.19657689362E+03  0.20067568496E+03  0.00000000000E+00 0. -1.
</event>
<event>
 7    1  0.6443388E-006  0.5031084E+02  0.7818608E-02  0.1449512E+00
          2   -1    0    0  502    0  0.00000000000E+00  0.00000000000E+00  0.32820721601E+04  0.32820721601E+04  0.00000000000E+00 0. -1.
          1   -1    0    0  501    0 -0.00000000000E+00 -0.00000000000E+00 -0.25820856073E+02  0.25820856073E+02  0.00000000000E+00 0. -1.
         25    2    1    2    0    0 -0.30629941232E+02  0.36481555105E+02  0.10207548880E+04  0.10294829771E+04  0.12500224644E+03 0.  0.
          2    1    1    2  501    0  0.50515289576E+02  0.74056244209E+01  0.95481860842E+01  0.51940404422E+02  0.00000000000E+00 0. -1.
          1    1    1    2  502    0 -0.19885348345E+02 -0.43887179526E+02  0.22259482300E+04  0.22264696347E+04  0.00000000000E+00 0. -1.
         22    1    3    3    0    0  0.46620833271E+02  0.42229984993E+01  0.48128529238E+03  0.48355647909E+03  0.00000000000E+00 0. -1.
         22    1    3    3    0    0 -0.77250774503E+02  0.32258556606E+02  0.53946959561E+03  0.54592649801E+03  0.00000000000E+00 0. -1.
</event>
<event>
 7    1  0.6443388E-006  0.6553270E+02  0.7818608E-02  0.1419138E+00
          2   -1    0    0  502    0  0.00000000000E+00  0.00000000000E+00  0.70166276986E+03  0.70166276986E+03  0.00000000000E+00 0. -1.
          1   -1    0    0  501    0 -0.00000000000E+00 -0.00000000000E+00 -0.81772233497E+03  0.81772233497E+03  0.00000000000E+00 0. -1.
         25    2    1    2    0    0 -0.10603976513E+03  0.31478684401E+02  0.36410824477E+03  0.40054397634E+03  0.12500129484E+03 0.  0.
          2    1    1    2  501    0  0.64525088491E+02 -0.10525135479E+02 -0.79646497662E+03  0.79914374458E+03  0.00000000000E+00 0. -1.
          1    1    1    2  502    0  0.41514676643E+02 -0.20953548922E+02  0.31629716674E+03  0.31969738391E+03  0.00000000000E+00 0. -1.
         22    1    3    3    0    0 -0.13255726055E+03  0.11119903058E+02  0.30231372846E+03  0.33028573990E+03  0.00000000000E+00 0. -1.
         22    1    3    3    0    0  0.26517495419E+02  0.20358781343E+02  0.61794516314E+02  0.70258236439E+02  0.00000000000E+00 0. -1.
</event>
<event>
 7    1  0.6443388E-006  0.5045092E+02  0.7818608E-02  0.1515060E+00
          2   -1    0    0  502    0  0.00000000000E+00  0.00000000000E+00  0.17826716211E+04  0.17826716211E+04  0.00000000000E+00 0. -1.
          1   -1    0    0  501    0 -0.00000000000E+00 -0.00000000000E+00 -0.23002002515E+03  0.23002002515E+03  0.00000000000E+00 0. -1.
         25    2    1    2    0    0 -0.25542577170E+02  0.37342948203E+01  0.12273902448E+03  0.17707753227E+03  0.12500086438E+03 0.  0.
          2    1    1    2  501    0 -0.22577826976E+02 -0.20175090689E+02 -0.20132246478E+03  0.20358665816E+03  0.00000000000E+00 0. -1.
          1    1    1    2  502    0  0.48120404146E+02  0.16440795868E+02  0.16312350363E+04  0.16320274559E+04  0.00000000000E+00 0. -1.
         22    1    3    3    0    0 -0.62474799815E+02 -0.59397667465E+01  0.12389424306E+03  0.13888183792E+03  0.00000000000E+00 0.  1.
         22    1    3    3    0    0  0.36932222644E+02  0.96740615668E+01 -0.11552185774E+01  0.38195694347E+02  0.00000000000E+00 0.  1.
</event>
<event>
 7    1  0.6443388E-006  0.1609060E+03  0.7818608E-02  0.1410842E+00
          2   -1    0    0  502    0  0.00000000000E+00  0.00000000000E+00  0.31202742111E+04  0.31202742111E+04  0.00000000000E+00 0. -1.
          1   -1    0    0  501    0 -0.00000000000E+00 -0.00000000000E+00 -0.22100468269E+03  0.22100468269E+03  0.00000000000E+00 0. -1.
         25    2    1    2    0    0 -0.52964944686E+02 -0.13081020819E+03 -0.60395997660E+02  0.19796161441E+03  0.12499811324E+03 0.  0.
          2    1    1    2  501    0 -0.56519647892E+01 -0.19389485643E+02 -0.88558417949E+02  0.90832209315E+02  0.00000000000E+00 0. -1.
          1    1    1    2  502    0  0.58616909475E+02  0.15019969383E+03  0.30482239440E+04  0.30524850701E+04  0.00000000000E+00 0. -1.
         22    1    3    3    0    0 -0.88015417668E+02 -0.11683868677E+03 -0.29572836983E+02  0.14923989132E+03  0.00000000000E+00 0.  1.
         22    1    3    3    0    0  0.35050472982E+02 -0.13971521419E+02 -0.30823160677E+02  0.48721723093E+02  0.00000000000E+00 0.  1.
</event>
<event>
 7    1  0.6443388E-006  0.8902494E+02  0.7818608E-02  0.1456390E+00
          2   -1    0    0  502    0  0.00000000000E+00  0.00000000000E+00  0.14161310354E+03  0.14161310354E+03  0.00000000000E+00 0. -1.
          1   -1    0    0  501    0 -0.00000000000E+00 -0.00000000000E+00 -0.11907854668E+04  0.11907854668E+04  0.00000000000E+00 0. -1.
         25    2    1    2    0    0  0.36516479010E+01 -0.68775273988E+02 -0.23359874355E+03  0.27374497237E+03  0.12499825626E+03 0.  0.
          2    1    1    2  501    0  0.99327153020E+01  0.90814525572E+02 -0.93347930985E+03  0.93793899525E+03  0.00000000000E+00 0. -1.
          1    1    1    2  502    0 -0.13584363203E+02 -0.22039251583E+02  0.11790569016E+03  0.12071460270E+03  0.00000000000E+00 0. -1.
         22    1    3    3    0    0  0.17088081214E+02  0.41472618057E+01 -0.18330751450E+03  0.18414898091E+03  0.00000000000E+00 0.  1.
         22    1    3    3    0    0 -0.13436433313E+02 -0.72922535794E+02 -0.50291229051E+02  0.89595991463E+02  0.00000000000E+00 0.  1.
</event>
<event>
 7    1  0.6443388E-006  0.5614434E+02  0.7818608E-02  0.1450893E+00
          2   -1    0    0  502    0  0.00000000000E+00  0.00000000000E+00  0.12852360648E+03  0.12852360648E+03  0.00000000000E+00 0. -1.
          1   -1    0    0  501    0 -0.00000000000E+00 -0.00000000000E+00 -0.16269378420E+04  0.16269378420E+04  0.00000000000E+00 0. -1.
         25    2    1    2    0    0 -0.72201201321E+02 -0.11506887890E+02  0.28659664450E+02  0.14762120736E+03  0.12500089022E+03 0.  0.
          2    1    1    2  501    0  0.33703266389E+02 -0.26281425573E+02 -0.15490146414E+04  0.15496041375E+04  0.00000000000E+00 0. -1.
          1    1    1    2  502    0  0.38497934933E+02  0.37788313463E+02  0.21940741481E+02  0.58236103623E+02  0.00000000000E+00 0. -1.
         22    1    3    3    0    0 -0.33702164672E+02  0.54817598707E+02  0.29822882193E+02  0.70923968684E+02  0.00000000000E+00 0. -1.
         22    1    3    3    0    0 -0.38499036649E+02 -0.66324486598E+02 -0.11632177428E+01  0.76697238678E+02  0.00000000000E+00 0. -1.
</event>
<event>
 7    1  0.6443388E-006  0.1017726E+03  0.7818608E-02  0.1451355E+00
          2   -1    0    0  502    0  0.00000000000E+00  0.00000000000E+00  0.95656839633E+03  0.95656839633E+03  0.00000000000E+00 0. -1.
          1   -1    0    0  501    0 -0.00000000000E+00 -0.00000000000E+00 -0.17063642482E+04  0.17063642482E+04  0.00000000000E+00 0. -1.
         25    2    1    2    0    0  0.72513850030E+02  0.98843505187E+02 -0.14489290243E+03  0.22725990602E+03  0.12499925899E+03 0.  0.
          2    1    1    2  501    0 -0.52827701473E+02 -0.86014165820E+02 -0.15184610690E+04  0.15218124788E+04  0.00000000000E+00 0. -1.
          1    1    1    2  502    0 -0.19686148558E+02 -0.12829339368E+02  0.91355811955E+03  0.91386025966E+03  0.00000000000E+00 0. -1.
         22    1    3    3    0    0 -0.19679792663E+02  0.46362986435E+02 -0.34908363549E+01  0.50487688489E+02  0.00000000000E+00 0.  1.
         22    1    3    3    0    0  0.92193642694E+02  0.52480518752E+02 -0.14140206607E+03  0.17677221753E+03  0.00000000000E+00 0.  1.
</event>
<event>
 7    1  0.6443388E-006  0.1038164E+03  0.7818608E-02  0.1364343E+00
          2   -1    0    0  502    0  0.00000000000E+00  0.00000000000E+00  0.25930348443E+04  0.25930348443E+04  0.00000000000E+00 0. -1.
          1   -1    0    0  501    0 -0.00000000000E+00 -0.00000000000E+00 -0.41055608100E+03  0.41055608100E+03  0.00000000000E+00 0. -1.
         25    2    1    2    0    0 -0.60830938387E+02 -0.12743117408E+03  0.11758254154E+04  0.11908523632E+04  0.12499934432E+03 0.  0.
          2    1    1    2  501    0  0.21474218683E+02  0.40168583458E+02 -0.40012390756E+03  0.40270808108E+03  0.00000000000E+00 0. -1.
          1    1    1    2  502    0  0.39356719704E+02  0.87262590618E+02  0.14067772554E+04  0.14100304810E+04  0.00000000000E+00 0. -1.
         22    1    3    3    0    0  0.27276526437E+02 -0.42677991258E+02  0.16333993911E+03  0.17101273502E+03  0.00000000000E+00 0. -1.
         22    1    3    3    0    0 -0.88107464824E+02 -0.84753182818E+02  0.10124854763E+04  0.10198396282E+04  0.00000000000E+00 0. -1.
</event>
<event>
 7    1  0.6443388E-006  0.1362513E+03  0.7818608E-02  0.1401564E+00
          2   -1    0    0  502    0  0.00000000000E+00  0.00000000000E+00  0.14495622230E+04  0.14495622230E+04  0.00000000000E+00 0. -1.
          1   -1    0    0  501    0 -0.00000000000E+00 -0.00000000000E+00 -0.16127883195E+04  0.16127883195E+04  0.00000000000E+00 0. -1.
         25    2    1    2    0    0  0.14962322388E+03 -0.23944236073E+02  0.16612712924E+03  0.25726175010E+03  0.12499979772E+03 0.  0.
          2    1    1    2  501    0 -0.14530466698E+02  0.21139915142E+02 -0.15634281080E+04  0.15636385386E+04  0.00000000000E+00 0. -1.
          1    1    1    2  502    0 -0.13509275718E+03  0.28043209309E+01  0.12340748823E+04  0.12414502537E+04  0.00000000000E+00 0. -1.
         22    1    3    3    0    0  0.57520533690E+02  0.12145947917E+02  0.14450382396E+03  0.15600477873E+03  0.00000000000E+00 0. -1.
         22    1    3    3    0    0  0.92102690192E+02 -0.36090183990E+02  0.21623305284E+02  0.10125697138E+03  0.00000000000E+00 0. -1.
</event>
<event>
 7    1  0.6443388E-006  0.1183154E+03  0.7818608E-02  0.1315181E+00
          2   -1    0    0  502    0  0.00000000000E+00  0.00000000000E+00  0.20880781188E+04  0.20880781188E+04  0.00000000000E+00 0. -1.
          1   -1    0    0  501    0 -0.00000000000E+00 -0.00000000000E+00 -0.92837215321E+02  0.92837215321E+02  0.00000000000E+00 0. -1.
         25    2    1    2    0    0 -0.96839381854E+02  0.11701533895E+03  0.46140966698E+03  0.50159032040E+03  0.12499405311E+03 0.  0.
          2    1    1    2  501    0  0.36011125042E+02 -0.11024595027E+03 -0.25536696922E+02  0.11875644642E+03  0.00000000000E+00 0. -1.
          1    1    1    2  502    0  0.60828256811E+02 -0.67693886866E+01  0.15593679334E+04  0.15605685673E+04  0.00000000000E+00 0. -1.
         22    1    3    3    0    0 -0.67586023708E+02  0.14261132711E+03  0.36724294922E+03  0.39971645571E+03  0.00000000000E+00 0.  1.
         22    1    3    3    0    0 -0.29253358146E+02 -0.25595988153E+02  0.94166717763E+02  0.10187386469E+03  0.00000000000E+00 0.  1.
</event>
<event>
 7    1  0.6443388E-006  0.1524915E+03  0.7818608E-02  0.1237910E+00
          2   -1    0    0  502    0  0.00000000000E+00  0.00000000000E+00  0.23517057308E+03  0.23517057308E+03  0.00000000000E+00 0. -1.
          1   -1    0    0  501    0 -0.00000000000E+00 -0.00000000000E+00 -0.70749030260E+03  0.70749030260E+03  0.00000000000E+00 0. -1.
         25    2    1    2    0    0  0.23229527250E+03  0.39653046422E+00 -0.24354111043E+03  0.35902401068E+03  0.12499886766E+03 0.  0.
          2    1    1    2  501    0 -0.92132456248E+02 -0.37665711380E+02 -0.36882787605E+03  0.38202237822E+03  0.00000000000E+00 0. -1.
          1    1    1    2  502    0 -0.14016281625E+03  0.37269180916E+02  0.14004925696E+03  0.20161448678E+03  0.00000000000E+00 0. -1.
         22    1    3    3    0    0 -0.59218090320E+01 -0.23615691871E+02 -0.21200929768E+02  0.32283868229E+02  0.00000000000E+00 0.  1.
         22    1    3    3    0    0  0.23821708153E+03  0.24012222335E+02 -0.22234018066E+03  0.32674014245E+03  0.00000000000E+00 0.  1.
</event>
<event>
 7    1  0.6443388E-006  0.2315692E+03  0.7818608E-02  0.1238669E+00
          2   -1    0    0  502    0  0.00000000000E+00  0.00000000000E+00  0.14146541898E+04  0.14146541898E+04  0.00000000000E+00 0. -1.
          1   -1    0    0  501    0 -0.00000000000E+00 -0.00000000000E+00 -0.11899000937E+03  0.11899000937E+03  0.00000000000E+00 0. -1.
         25    2    1    2    0    0  0.26269273979E+03  0.17263484529E+02  0.72290854838E+03  0.77944436012E+03  0.12502494857E+03 0.  0.
          2    1    1    2  501    0 -0.55551809857E+02  0.33826094133E+02 -0.58739581521E+02  0.87638728083E+02  0.00000000000E+00 0. -1.
          1    1    1    2  502    0 -0.20714092994E+03 -0.51089578662E+02  0.63149521358E+03  0.66656111098E+03  0.00000000000E+00 0. -1.
         22    1    3    3    0    0  0.78421509797E+02 -0.16579406820E+02  0.95603872001E+02  0.12475940955E+03  0.00000000000E+00 0. -1.
         22    1    3    3    0    0  0.18427123000E+03  0.33842891349E+02  0.62730467638E+03  0.65468495057E+03  0.00000000000E+00 0. -1.
</event>
<event>
 7    1  0.6443388E-006  0.1690767E+03  0.7818608E-02  0.1396964E+00
          2   -1    0    0  502    0  0.00000000000E+00  0.00000000000E+00  0.33195925913E+03  0.33195925913E+03  0.00000000000E+00 0. -1.
          1   -1    0    0  501    0 -0.00000000000E+00 -0.00000000000E+00 -0.18656248312E+04  0.18656248312E+04  0.00000000000E+00 0. -1.
         25    2    1    2    0    0 -0.85170229264E+02 -0.16954788152E+03 -0.69427616698E+03  0.73050948078E+03  0.12499701355E+03 0.  0.
          2    1    1    2  501    0  0.76420876549E+01  0.20031158791E+02 -0.11305274395E+04  0.11307307108E+04  0.00000000000E+00 0. -1.
          1    1    1    2  502    0  0.77528141609E+02  0.14951672273E+03  0.29113803445E+03  0.33634389874E+03  0.00000000000E+00 0. -1.
         22    1    3    3    0    0 -0.84989542044E+02 -0.41478358451E+02 -0.22489504082E+03  0.24397019462E+03  0.00000000000E+00 0.  1.
         22    1    3    3    0    0 -0.18068721989E+00 -0.12806952307E+03 -0.46938112616E+03  0.48653928616E+03  0.00000000000E+00 0.  1.
</event>
<event>
 7    1  0.1130889E-005  0.6998344E+02  0.7818608E-02  0.1514420E+00
          2   -1    0    0  502    0  0.00000000000E+00  0.00000000000E+00  0.11306141984E+04  0.11306141984E+04  0.00000000000E+00 0. -1.
          1   -1    0    0  501    0 -0.00000000000E+00 -0.00000000000E+00 -0.15264241452E+04  0.15264241452E+04  0.00000000000E+00 0. -1.
         25    2    1    2    0    0  0.27733358165E+02  0.81327309817E+02 -0.10979440908E+04  0.11083722482E+04  0.12499817479E+03 0.  0.
          2    1    1    2  501    0 -0.18352813918E+02 -0.11989656757E+02 -0.42189357077E+03  0.42246273528E+03  0.00000000000E+00 0. -1.
          1    1    1    2  502    0 -0.93805442463E+01 -0.69337653060E+02  0.11240277147E+04  0.11262033601E+04  0.00000000000E+00 0. -1.
         22    1    3    3    0    0 -0.39543500858E+02  0.30317004569E+02 -0.68923788572E+03  0.69103666497E+03  0.00000000000E+00 0.  1.
         22    1    3    3    0    0  0.67276859022E+02  0.51010305249E+02 -0.40870620508E+03  0.41733558328E+03  0.00000000000E+00 0.  1.
</event>
<event>
 7    1  0.6443388E-006  0.4645724E+02  0.7818608E-02  0.1537065E+00
          2   -1    0    0  502    0  0.00000000000E+00  0.00000000000E+00  0.29319966147E+02  0.29319966147E+02  0.00000000000E+00 0. -1.
          1   -1    0    0  501    0 -0.00000000000E+00 -0.00000000000E+00 -0.21379860037E+04  0.21379860037E+04  0.00000000000E+00 0. -1.
         25    2    1    2    0    0  0.32219601314E+02  0.34403792528E+02 -0.77292601471E+03  0.78438578536E+03  0.12499884966E+03 0.  0.
          2    1    1    2  501    0 -0.65202272035E+01 -0.46529424058E+02 -0.13502131534E+04  0.13510303699E+04  0.00000000000E+00 0. -1.
          1    1    1    2  502    0 -0.25699374111E+02  0.12125631530E+02  0.14473130545E+02  0.31889814635E+02  0.00000000000E+00 0. -1.
         22    1    3    3    0    0  0.48796536112E+02  0.38457180726E+02 -0.16641093763E+03  0.17763067542E+03  0.00000000000E+00 0. -1.
         22    1    3    3    0    0 -0.16576934798E+02 -0.40533881984E+01 -0.60651507707E+03  0.60675510994E+03  0.00000000000E+00 0. -1.
</event>
<event>
 7    1  0.6443388E-006  0.8346749E+02  0.7818608E-02  0.1444655E+00
          2   -1    0    0  502    0  0.00000000000E+00  0.00000000000E+00  0.31031607656E+03  0.31031607656E+03  0.00000000000E+00 0. -1.
          1   -1    0    0  501    0 -0.00000000000E+00 -0.00000000000E+00 -0.54881128905E+03  0.54881128905E+03  0.00000000000E+00 0. -1.
         25    2    1    2    0    0  0.41448774628E+02  0.93291502616E+02 -0.16694182145E+02  0.16224700030E+03  0.12499635199E+03 0.  0.
          2    1    1    2  501    0  0.93154653510E+01 -0.28627184297E+02 -0.45171162641E+03  0.45271369209E+03  0.00000000000E+00 0. -1.
          1    1    1    2  502    0 -0.50764239979E+02 -0.64664318319E+02  0.22991059606E+03  0.24416667321E+03  0.00000000000E+00 0. -1.
         22    1    3    3    0    0  0.58086847092E+02  0.81816084316E+02  0.35375178936E+02  0.10639246563E+03  0.00000000000E+00 0.  1.
         22    1    3    3    0    0 -0.16638072464E+02  0.11475418300E+02 -0.52069361080E+02  0.55854534675E+02  0.00000000000E+00 0.  1.
</event>
<event>
 7    1  0.6443388E-006  0.1020802E+03  0.7818608E-02  0.1346263E+00
          2   -1    0    0  502    0  0.00000000000E+00  0.00000000000E+00  0.61092172948E+03  0.61092172948E+03  0.00000000000E+00 0. -1.
          1   -1    0    0  501    0 -0.00000000000E+00 -0.00000000000E+00 -0.11050847103E+04  0.11050847103E+04  0.00000000000E+00 0. -1.
         25    2    1    2    0    0 -0.22631717726E+02  0.93245003725E+02 -0.17475122557E+02  0.15855042357E+03  0.12500412609E+03 0.  0.
          2    1    1    2  501    0 -0.50106133107E+02 -0.20086637010E+02 -0.10114217993E+04  0.10128613694E+04  0.00000000000E+00 0. -1.
          1    1    1    2  502    0  0.72737850832E+02 -0.73158366715E+02  0.53473394106E+03  0.54459464677E+03  0.00000000000E+00 0. -1.
         22    1    3    3    0    0 -0.33777111707E+02  0.10231838333E+03 -0.53109337929E+02  0.12012721015E+03  0.00000000000E+00 0.  1.
         22    1    3    3    0    0  0.11145393981E+02 -0.90733796079E+01  0.35634215371E+02  0.38423213422E+02  0.00000000000E+00 0.  1.
</event>
<event>
 7    1  0.6443388E-006  0.6376202E+02  0.7818608E-02  0.1529374E+00
          2   -1    0    0  502    0  0.00000000000E+00  0.00000000000E+00  0.24459626863E+04  0.24459626863E+04  0.00000000000E+00 0. -1.
          1   -1    0    0  501    0 -0.00000000000E+00 -0.00000000000E+00 -0.10655913483E+02  0.10655913483E+02  0.00000000000E+00 0. -1.
         25    2    1    2    0    0 -0.48891843498E+02  0.36488052572E+02  0.74533825319E+03  0.75821364374E+03  0.12504810092E+03 0.  0.
          2    1    1    2  501    0  0.13385294115E+02  0.17177706308E+02  0.29383424009E+02  0.36573560109E+02  0.00000000000E+00 0. -1.
          1    1    1    2  502    0  0.35506549383E+02 -0.53665758881E+02  0.16605850956E+04  0.16618313959E+04  0.00000000000E+00 0. -1.
         22    1    3    3    0    0  0.29122448753E+02 -0.11088914046E+02  0.39249887935E+03  0.39373398549E+03  0.00000000000E+00 0. -1.
         22    1    3    3    0    0 -0.78014292251E+02  0.47576966619E+02  0.35283937384E+03  0.36447965825E+03  0.00000000000E+00 0. -1.
</event>
<event>
 7    1  0.6443388E-006  0.7847716E+02  0.7818608E-02  0.1370278E+00
          2   -1    0    0  502    0  0.00000000000E+00  0.00000000000E+00  0.22768378895E+04  0.22768378895E+04  0.00000000000E+00 0. -1.
          1   -1    0    0  501    0 -0.00000000000E+00 -0.00000000000E+00 -0.71771851139E+02  0.71771851139E+02  0.00000000000E+00 0. -1.
         25    2    1    2    0    0  0.14028051301E+02 -0.96590495075E+02  0.53767555334E+03  0.56057004203E+03  0.12496904177E+03 0.  0.
          2    1    1    2  501    0  0.40622283959E+02  0.40490134960E+02 -0.45591616301E+02  0.73268113529E+02  0.00000000000E+00 0. -1.
          1    1    1    2  502    0 -0.54650335260E+02  0.56100360114E+02  0.17129821014E+04  0.17147715851E+04  0.00000000000E+00 0. -1.
         22    1    3    3    0    0  0.23548787661E+02 -0.10909458410E+03  0.26632730717E+03  0.28876704837E+03  0.00000000000E+00 0.  1.
         22    1    3    3    0    0 -0.95207363599E+01  0.12504089024E+02  0.27134824617E+03  0.27180299366E+03  0.00000000000E+00 0.  1.
</event>
<event>
 7    1  0.6443388E-006  0.6679484E+02  0.7818608E-02  0.1406471E+00
          2   -1    0    0  502    0  0.00000000000E+00  0.00000000000E+00  0.16401011641E+03  0.16401011641E+03  0.00000000000E+00 0. -1.
          1   -1    0    0  501    0 -0.00000000000E+00 -0.00000000000E+00 -0.41702245356E+03  0.41702245356E+03  0.00000000000E+00 0. -1.
         25    2    1    2    0    0  0.10020464142E+03 -0.12164345875E+02  0.44483584383E+02  0.16671197573E+03  0.12500060839E+03 0.  0.
          2    1    1    2  501    0 -0.42693911709E+02  0.26678269188E+02 -0.33849356803E+03  0.34221688407E+03  0.00000000000E+00 0. -1.
          1    1    1    2  502    0 -0.57510729714E+02 -0.14513923312E+02  0.40997646502E+02  0.72103710174E+02  0.00000000000E+00 0. -1.
         22    1    3    3    0    0  0.84083985685E+02 -0.14908606124E+02  0.86545386658E+02  0.12158325188E+03  0.00000000000E+00 0.  1.
         22    1    3    3    0    0  0.16120655738E+02  0.27442602484E+01 -0.42061802276E+02  0.45128723851E+02  0.00000000000E+00 0.  1.
</event>
<event>
 7    1  0.6443388E-006  0.6187071E+02  0.7818608E-02  0.1524375E+00
          2   -1    0    0  502    0  0.00000000000E+00  0.00000000000E+00  0.64308033288E+03  0.64308033288E+03  0.00000000000E+00 0. -1.
          1   -1    0    0  501    0 -0.00000000000E+00 -0.00000000000E+00 -0.39986769326E+03  0.39986769326E+03  0.00000000000E+00 0. -1.
         25    2    1    2    0    0 -0.70018181001E+02  0.33918230428E+02  0.11094709054E+03  0.18435519918E+03  0.12499836215E+03 0.  0.
          2    1    1    2  501    0  0.60268976993E+02 -0.12867707108E+02 -0.36027418794E+03  0.36550706966E+03  0.00000000000E+00 0. -1.
          1    1    1    2  502    0  0.97492040071E+01 -0.21050523320E+02  0.49253973701E+03  0.49308575730E+03  0.00000000000E+00 0. -1.
         22    1    3    3    0    0  0.11684337416E+02 -0.24642405050E+02  0.71228256165E+02  0.76270809251E+02  0.00000000000E+00 0. -1.
         22    1    3    3    0    0 -0.81702518417E+02  0.58560635478E+02  0.39718834375E+02  0.10808438993E+03  0.00000000000E+00 0. -1.
</event>
<event>
 7    1  0.6443388E-006  0.5684964E+02  0.7818608E-02  0.1499355E+00
          2   -1    0    0  502    0  0.00000000000E+00  0.00000000000E+00  0.77105095228E+02  0.77105095228E+02  0.00000000000E+00 0. -1.
          1   -1    0    0  501    0 -0.00000000000E+00 -0.00000000000E+00 -0.12380998031E+04  0.12380998031E+04  0.00000000000E+00 0. -1.
         25    2    1    2    0    0  0.29230074133E+02  0.68383846750E+02 -0.44615634516E+03  0.46926595984E+03  0.12499723601E+03 0.  0.
          2    1    1    2  501    0 -0.38746355765E+02 -0.40037588072E+02 -0.77592712076E+03  0.77792492265E+03  0.00000000000E+00 0. -1.
          1    1    1    2  502    0  0.95162816320E+01 -0.28346258678E+02  0.61088758022E+02  0.68014015863E+02  0.00000000000E+00 0. -1.
         22    1    3    3    0    0 -0.31229110939E+02  0.27748376871E+01 -0.29107778310E+02  0.42781068855E+02  0.00000000000E+00 0.  1.
         22    1    3    3    0    0  0.60459185072E+02  0.65609009063E+02 -0.41704856685E+03  0.42648489099E+03  0.00000000000E+00 0.  1.
</event>
<event>
 7    1  0.6443388E-006  0.1513757E+03  0.7818608E-02  0.1303607E+00
          2   -1    0    0  502    0  0.00000000000E+00  0.00000000000E+00  0.18519510763E+04  0.18519510763E+04  0.00000000000E+00 0. -1.
          1   -1    0    0  501    0 -0.00000000000E+00 -0.00000000000E+00 -0.88092470041E+02  0.88092470041E+02  0.00000000000E+00 0. -1.
         25    2    1    2    0    0 -0.79371761667E+02 -0.17016695973E+03  0.28510674756E+03  0.36354824585E+03  0.12499919527E+03 0.  0.
          2    1    1    2  501    0  0.39869083659E+02  0.13462293780E+03  0.53495463337E+02  0.15024860669E+03  0.00000000000E+00 0. -1.
          1    1    1    2  502    0  0.39502678008E+02  0.35544021928E+02  0.14252563953E+04  0.14262466938E+04  0.00000000000E+00 0. -1.
         22    1    3    3    0    0 -0.55917060813E+02 -0.16312206879E+03  0.29109503045E+03  0.33833687912E+03  0.00000000000E+00 0. -1.
         22    1    3    3    0    0 -0.23454700853E+02 -0.70448909439E+01 -0.59882828905E+01  0.25211366732E+02  0.00000000000E+00 0. -1.
</event>
<event>
 7    1  0.6443388E-006  0.1560802E+03  0.7818608E-02  0.1213328E+00
          2   -1    0    0  502    0  0.00000000000E+00  0.00000000000E+00  0.11332084041E+04  0.11332084041E+04  0.00000000000E+00 0. -1.
          1   -1    0    0  501    0 -0.00000000000E+00 -0.00000000000E+00 -0.13099419174E+04  0.13099419174E+04  0.00000000000E+00 0. -1.
         25    2    1    2    0    0  0.10323188075E+03  0.19544000533E+03 -0.25911739912E+03  0.36279573842E+03  0.12500121762E+03 0.  0.
          2    1    1    2  501    0  0.14457311132E+02 -0.15163208028E+03 -0.98949218170E+03  0.10011473814E+04  0.00000000000E+00 0. -1.
          1    1    1    2  502    0 -0.11768919188E+03 -0.43807925052E+02  0.10718760674E+04  0.10792072017E+04  0.00000000000E+00 0. -1.
         22    1    3    3    0    0  0.67864392510E+01  0.10930742824E+03 -0.18149750075E+03  0.21197998114E+03  0.00000000000E+00 0.  1.
         22    1    3    3    0    0  0.96445441495E+02  0.86132577097E+02 -0.77619898367E+02  0.15081575728E+03  0.00000000000E+00 0.  1.
</event>
<event>
 7    1  0.6443388E-006  0.1212964E+03  0.7818608E-02  0.1301764E+00
          2   -1    0    0  502    0  0.00000000000E+00  0.00000000000E+00  0.80713808963E+03  0.80713808963E+03  0.00000000000E+00 0. -1.
          1   -1    0    0  501    0 -0.00000000000E+00 -0.00000000000E+00 -0.51608126775E+03  0.51608126775E+03  0.00000000000E+00 0. -1.
         25    2    1    2    0    0 -0.49626012489E+02 -0.58685313313E+02 -0.13239349852E+03  0.19764679559E+03  0.12501803967E+03 0.  0.
          2    1    1    2  501    0 -0.65564673281E+02  0.15833058799E+02 -0.34287904291E+03  0.34945021133E+03  0.00000000000E+00 0. -1.
          1    1    1    2  502    0  0.11519068577E+03  0.42852254514E+02  0.76632936331E+03  0.77612235046E+03  0.00000000000E+00 0. -1.
         22    1    3    3    0    0  0.40236317795E+02 -0.18008349911E+01 -0.32817464838E+02  0.51953732058E+02  0.00000000000E+00 0. -1.
         22    1    3    3    0    0 -0.89862330284E+02 -0.56884478321E+02 -0.99576033685E+02  0.14569306354E+03  0.00000000000E+00 0. -1.
</event>
<event>
 7    1  0.6443388E-006  0.8090244E+02  0.7818608E-02  0.1420541E+00
          2   -1    0    0  502    0  0.00000000000E+00  0.00000000000E+00  0.71124242308E+03  0.71124242308E+03  0.00000000000E+00 0. -1.
          1   -1    0    0  501    0 -0.00000000000E+00 -0.00000000000E+00 -0.21456738676E+04  0.21456738676E+04  0.00000000000E+00 0. -1.
         25    2    1    2    0    0 -0.13131794731E+02  0.61228160564E+02 -0.14030726508E+03  0.19807397842E+03  0.12500336242E+03 0.  0.
          2    1    1    2  501    0  0.50269068995E+02 -0.64297379496E+02 -0.19751311022E+04  0.19768166337E+04  0.00000000000E+00 0. -1.
          1    1    1    2  502    0 -0.37137274263E+02  0.30692189326E+01  0.68100692282E+03  0.68202567853E+03  0.00000000000E+00 0. -1.
         22    1    3    3    0    0 -0.71937947980E+01  0.81180652996E+02 -0.31630894067E+02  0.87421751091E+02  0.00000000000E+00 0. -1.
         22    1    3    3    0    0 -0.59379999333E+01 -0.19952492432E+02 -0.10867637101E+03  0.11065222733E+03  0.00000000000E+00 0. -1.
</event>
<event>
 7    1  0.6443388E-006  0.1343167E+03  0.7818608E-02  0.1254925E+00
          2   -1    0    0  502    0  0.00000000000E+00  0.00000000000E+00  0.12499904968E+04  0.12499904968E+04  0.00000000000E+00 0. -1.
          1   -1    0    0  501    0 -0.00000000000E+00 -0.00000000000E+00 -0.34759975363E+03  0.34759975363E+03  0.00000000000E+00 0. -1.
         25    2    1    2    0    0 -0.35048541046E+02 -0.19508109168E+03  0.41727298737E+03  0.47856985640E+03  0.12500931530E+03 0.  0.
          2    1    1    2  501    0  0.62197517889E+02  0.72130768457E+02 -0.30469501589E+03  0.31923413304E+03  0.00000000000E+00 0. -1.
          1    1    1    2  502    0 -0.27148976844E+02  0.12295032322E+03  0.78981277170E+03  0.79978626098E+03  0.00000000000E+00 0. -1.
         22    1    3    3    0    0  0.15405443852E+02 -0.17362069430E+02  0.11025494375E+01  0.23237572387E+02  0.00000000000E+00 0. -1.
         22    1    3    3    0    0 -0.50453984898E+02 -0.17771902225E+03  0.41617043793E+03  0.45533228402E+03  0.00000000000E+00 0. -1.
</event>
<event>
 7    1  0.6443388E-006  0.1193745E+03  0.7818608E-02  0.1416290E+00
          2   -1    0    0  502    0  0.00000000000E+00  0.00000000000E+00  0.14825254054E+03  0.14825254054E+03  0.00000000000E+00 0. -1.
          1   -1    0    0  501    0 -0.00000000000E+00 -0.00000000000E+00 -0.83279766146E+03  0.83279766146E+03  0.00000000000E+00 0. -1.
         25    2    1    2    0    0  0.11124035943E+03 -0.47364217707E+02 -0.28284500564E+03  0.33202970403E+03  0.12499856183E+03 0.  0.
          2    1    1    2  501    0 -0.13985580251E+02 -0.22031475197E+02 -0.49607928773E+03  0.49676517799E+03  0.00000000000E+00 0. -1.
          1    1    1    2  502    0 -0.97254779183E+02  0.69395692904E+02  0.94379172446E+02  0.15225531997E+03  0.00000000000E+00 0. -1.
         22    1    3    3    0    0 -0.19478777813E+02 -0.61420813012E+01 -0.32982212196E+01  0.20688794334E+02  0.00000000000E+00 0. -1.
         22    1    3    3    0    0  0.13071913725E+03 -0.41222136406E+02 -0.27954678442E+03  0.31134090970E+03  0.00000000000E+00 0. -1.
</event>
<event>
 7    1  0.6443388E-006  0.8180716E+02  0.7818608E-02  0.1463374E+00
          2   -1    0    0  502    0  0.00000000000E+00  0.00000000000E+00  0.19025530948E+03  0.19025530948E+03  0.00000000000E+00 0. -1.
          1   -1    0    0  501    0 -0.00000000000E+00 -0.00000000000E+00 -0.22283924546E+04  0.22283924546E+04  0.00000000000E+00 0. -1.
         25    2    1    2    0    0  0.42575489950E+02  0.63137220342E+02 -0.15738659557E+03  0.21492524989E+03  0.12499336639E+03 0.  0.
          2    1    1    2  501    0 -0.21219741017E+02 -0.79295414008E+02 -0.20402952981E+04  0.20419458718E+04  0.00000000000E+00 0. -1.
          1    1    1    2  502    0 -0.21355748933E+02  0.16158193667E+02  0.15954474852E+03  0.16177664237E+03  0.00000000000E+00 0. -1.
         22    1    3    3    0    0  0.23702990883E+02  0.10115988365E+03 -0.11313550668E+03  0.15360597875E+03  0.00000000000E+00 0. -1.
         22    1    3    3    0    0  0.18872499067E+02 -0.38022663305E+02 -0.44251088893E+02  0.61319271147E+02  0.00000000000E+00 0. -1.
</event>
<event>
 7    1  0.6443388E-006  0.8914461E+02  0.7818608E-02  0.1307974E+00
          2   -1    0    0  502    0  0.00000000000E+00  0.00000000000E+00  0.10307228421E+04  0.10307228421E+04  0.00000000000E+00 0. -1.
          1   -1    0    0  501    0 -0.00000000000E+00 -0.00000000000E+00 -0.93976459426E+02  0.93976459426E+02  0.00000000000E+00 0. -1.
         25    2    1    2    0    0 -0.76990050911E+02 -0.15494097178E+02  0.22781070144E+03  0.27146453870E+03  0.12501097990E+03 0.  0.
          2    1    1    2  501    0  0.64096702029E+02 -0.70249375770E+02 -0.37173646804E+02  0.10210407447E+03  0.00000000000E+00 0. -1.
          1    1    1    2  502    0  0.12893348882E+02  0.85743472948E+02  0.74610932804E+03  0.75113068835E+03  0.00000000000E+00 0. -1.
         22    1    3    3    0    0 -0.49910208015E+02 -0.64374924524E+02  0.18130764838E+03  0.19876524629E+03  0.00000000000E+00 0.  1.
         22    1    3    3    0    0 -0.27079842896E+02  0.48880827346E+02  0.46503053059E+02  0.72699292412E+02  0.00000000000E+00 0.  1.
</event>
<event>
 7    1  0.6443388E-006  0.8370993E+02  0.7818608E-02  0.1370077E+00
          2   -1    0    0  502    0  0.00000000000E+00  0.00000000000E+00  0.25443249513E+04  0.25443249513E+04  0.00000000000E+00 0. -1.
          1   -1    0    0  501    0 -0.00000000000E+00 -0.00000000000E+00 -0.21206896748E+03  0.21206896748E+03  0.00000000000E+00 0. -1.
         25    2    1    2    0    0 -0.12689951635E+03 -0.16083603663E+02  0.58865006777E+03  0.61522016105E+03  0.12499909889E+03 0.  0.
          2    1    1    2  501    0  0.82013092779E+02 -0.13682324035E+02 -0.18969789151E+03  0.20711987694E+03  0.00000000000E+00 0. -1.
          1    1    1    2  502    0  0.44886423569E+02  0.29765927699E+02  0.19333038075E+04  0.19340538808E+04  0.00000000000E+00 0. -1.
         22    1    3    3    0    0 -0.62183997594E+02  0.41256402818E+02  0.41012383866E+03  0.41685789349E+03  0.00000000000E+00 0. -1.
         22    1    3    3    0    0 -0.64715518754E+02 -0.57340006481E+02  0.17852622911E+03  0.19836226756E+03  0.00000000000E+00 0. -1.
</event>
<event>
 7    1  0.6443388E-006  0.6044656E+02  0.7818608E-02  0.1481954E+00
          2   -1    0    0  502    0  0.00000000000E+00  0.00000000000E+00  0.65634918810E+03  0.65634918810E+03  0.00000000000E+00 0. -1.
          1   -1    0    0  501    0 -0.00000000000E+00 -0.00000000000E+00 -0.10932607338E+04  0.10932607338E+04  0.00000000000E+00 0. -1.
         25    2    1    2    0    0  0.58588965396E+02  0.64607228220E+02 -0.53992197446E+03  0.56102289114E+03  0.12499674026E+03 0.  0.
          2    1    1    2  501    0 -0.87516655830E+01 -0.30512276984E+02 -0.54091047509E+03  0.54184105857E+03  0.00000000000E+00 0. -1.
          1    1    1    2  502    0 -0.49837299814E+02 -0.34094951236E+02  0.64392090384E+03  0.64674597220E+03  0.00000000000E+00 0. -1.
         22    1    3    3    0    0 -0.32653965550E+02 -0.74012565777E+01 -0.81842458104E+02  0.88426511938E+02  0.00000000000E+00 0.  1.
         22    1    3    3    0    0  0.91242930947E+02  0.72008484797E+02 -0.45807951635E+03  0.47259637920E+03  0.00000000000E+00 0.  1.
</event>
<event>
 7    1  0.6443388E-006  0.1016083E+03  0.7818608E-02  0.1360569E+00
          2   -1    0    0  502    0  0.00000000000E+00  0.00000000000E+00  0.19187617833E+04  0.19187617833E+04  0.00000000000E+00 0. -1.
          1   -1    0    0  501    0 -0.00000000000E+00 -0.00000000000E+00 -0.68267300292E+03  0.68267300292E+03  0.00000000000E+00 0. -1.
         25    2    1    2    0    0 -0.33791038140E+02  0.45989674882E+02  0.32295564441E+03  0.35096510961E+03  0.12497709971E+03 0.  0.
          2    1    1    2  501    0  0.41252373247E+02 -0.93438559158E+02 -0.66440012327E+03  0.67220536031E+03  0.00000000000E+00 0. -1.
          1    1    1    2  502    0 -0.74613351070E+01  0.47448884275E+02  0.15775332593E+04  0.15782643163E+04  0.00000000000E+00 0. -1.
         22    1    3    3    0    0 -0.35832488511E+02  0.56922501960E+02  0.33066240804E+03  0.33743409216E+03  0.00000000000E+00 0.  1.
         22    1    3    3    0    0  0.20414503710E+01 -0.10932827078E+02 -0.77067636295E+01  0.13531017448E+02  0.00000000000E+00 0.  1.
</event>
<event>
 7    1  0.6443388E-006  0.4449014E+02  0.7818608E-02  0.1551091E+00
          2   -1    0    0  502    0  0.00000000000E+00  0.00000000000E+00  0.53401369764E+03  0.53401369764E+03  0.00000000000E+00 0. -1.
          1   -1    0    0  501    0 -0.00000000000E+00 -0.00000000000E+00 -0.33807742948E+03  0.33807742948E+03  0.00000000000E+00 0. -1.
         25    2    1    2    0    0 -0.50771103695E+02 -0.43161440167E+02  0.37874910866E+02  0.14662961398E+03  0.12500047974E+03 0.  0.
          2    1    1    2  501    0  0.26311915393E+02  0.64758555117E+01 -0.28194871301E+03  0.28324782499E+03  0.00000000000E+00 0. -1.
          1    1    1    2  502    0  0.24459188302E+02  0.36685584655E+02  0.44001007030E+03  0.44221368814E+03  0.00000000000E+00 0. -1.
         22    1    3    3    0    0 -0.31673600877E+02  0.31247943779E+02 -0.21616463093E+02  0.49466377061E+02  0.00000000000E+00 0.  1.
         22    1    3    3    0    0 -0.19097502818E+02 -0.74409383946E+02  0.59491373959E+02  0.97163236919E+02  0.00000000000E+00 0.  1.
</event>
<event>
 7    1  0.6443388E-006  0.4866661E+02  0.7818608E-02  0.1452716E+00
          2   -1    0    0  502    0  0.00000000000E+00  0.00000000000E+00  0.62134678280E+03  0.62134678280E+03  0.00000000000E+00 0. -1.
          1   -1    0    0  501    0 -0.00000000000E+00 -0.00000000000E+00 -0.29159666212E+03  0.29159666212E+03  0.00000000000E+00 0. -1.
         25    2    1    2    0    0  0.56162420757E+02  0.19759823798E+00 -0.17383506368E+03  0.22135443084E+03  0.12499959255E+03 0.  0.
          2    1    1    2  501    0 -0.28164749587E+02  0.39688612325E+02 -0.86630802000E+02  0.99364656306E+02  0.00000000000E+00 0. -1.
          1    1    1    2  502    0 -0.27997671170E+02 -0.39886210563E+02  0.59021598636E+03  0.59222435777E+03  0.00000000000E+00 0. -1.
         22    1    3    3    0    0 -0.35334417655E+02 -0.15258818804E+02 -0.83060853159E+02  0.91544841197E+02  0.00000000000E+00 0. -1.
         22    1    3    3    0    0  0.91496838412E+02  0.15456417042E+02 -0.90774210522E+02  0.12980958964E+03  0.00000000000E+00 0. -1.
</event>
<event>
 7    1  0.6443388E-006  0.1701379E+03  0.7818608E-02  0.1375374E+00
          2   -1    0    0  502    0  0.00000000000E+00  0.00000000000E+00  0.84969827428E+02  0.84969827428E+02  0.00000000000E+00 0. -1.
          1   -1    0    0  501    0 -0.00000000000E+00 -0.00000000000E+00 -0.30282391990E+04  0.30282391990E+04  0.00000000000E+00 0. -1.
         25    2    1    2    0    0  0.20019889349E+02 -0.14808015248E+03 -0.16510088576E+04  0.16624632187E+04  0.12500071323E+03 0.  0.
          2    1    1    2  501    0  0.16440718555E+02 -0.19318072155E+02 -0.12786299096E+04  0.12788815155E+04  0.00000000000E+00 0. -1.
          1    1    1    2  502    0 -0.36460607903E+02  0.16739822464E+03 -0.13630604420E+02  0.17186429215E+03  0.00000000000E+00 0. -1.
         22    1    3    3    0    0 -0.25235735412E+02  0.27496542246E+01 -0.51094000595E+03  0.51157022257E+03  0.00000000000E+00 0.  1.
         22    1    3    3    0    0  0.45255624761E+02 -0.15082980671E+03 -0.11400688516E+04  0.11508929962E+04  0.00000000000E+00 0.  1.
</event>
<event>
 7    1  0.6443388E-006  0.5972157E+02  0.7818608E-02  0.1516349E+00
          2   -1    0    0  502    0  0.00000000000E+00  0.00000000000E+00  0.87820823323E+03  0.87820823323E+03  0.00000000000E+00 0. -1.
          1   -1    0    0  501    0 -0.00000000000E+00 -0.00000000000E+00 -0.36118702655E+03  0.36118702655E+03  0.00000000000E+00 0. -1.
         25    2    1    2    0    0  0.76428224946E+01  0.36052064837E+02 -0.47022914490E+02  0.13854507701E+03  0.12500167904E+03 0.  0.
          2    1    1    2  501    0 -0.51605081395E+01 -0.61287903256E+02 -0.26468308556E+03  0.27173511681E+03  0.00000000000E+00 0. -1.
          1    1    1    2  502    0 -0.24823143551E+01  0.25235838419E+02  0.82872720672E+03  0.82911506595E+03  0.00000000000E+00 0. -1.
         22    1    3    3    0    0  0.24085280645E+02  0.79813783189E+02 -0.33823092066E+02  0.89968562774E+02  0.00000000000E+00 0. -1.
         22    1    3    3    0    0 -0.16442458151E+02 -0.43761718352E+02 -0.13199822424E+02  0.48576514235E+02  0.00000000000E+00 0. -1.
</event>
<event>
 7    1  0.6443388E-006  0.4055419E+02  0.7818608E-02  0.1558953E+00
          2   -1    0    0  502    0  0.00000000000E+00  0.00000000000E+00  0.25175095017E+04  0.25175095017E+04  0.00000000000E+00 0. -1.
          1   -1    0    0  501    0 -0.00000000000E+00 -0.00000000000E+00 -0.44659749094E+03  0.44659749094E+03  0.00000000000E+00 0. -1.
         25    2    1    2    0    0 -0.31486505776E+02  0.58323518203E+02  0.14449564788E+03  0.20222695322E+03  0.12499486202E+03 0.  0.
          2    1    1    2  501    0  0.20542898643E+02 -0.19425055867E+02 -0.41707907863E+03  0.41803624401E+03  0.00000000000E+00 0. -1.
          1    1    1    2  502    0  0.10943607133E+02 -0.38898462336E+02  0.23434954415E+04  0.23438437954E+04  0.00000000000E+00 0. -1.
         22    1    3    3    0    0 -0.15358557245E+02 -0.38060285035E+02  0.25797908073E+02  0.48476825788E+02  0.00000000000E+00 0.  1.
         22    1    3    3    0    0 -0.16127948532E+02  0.96383803238E+02  0.11869773981E+03  0.15375012744E+03  0.00000000000E+00 0.  1.
</event>
<event>
 7    1  0.9053565E-006  0.1045491E+03  0.7818608E-02  0.1297548E+00
          2   -1    0    0  502    0  0.00000000000E+00  0.00000000000E+00  0.10830250217E+04  0.10830250217E+04  0.00000000000E+00 0. -1.
          1   -1    0    0  501    0 -0.00000000000E+00 -0.00000000000E+00 -0.25232257605E+04  0.25232257605E+04  0.00000000000E+00 0. -1.
         25    2    1    2    0    0 -0.48300503796E+02 -0.78492837851E+02 -0.14756898942E+04  0.14838392593E+04  0.12499687720E+03 0.  0.
          2    1    1    2  501    0 -0.16488991910E+02  0.12769844699E+03 -0.10379439393E+04  0.10458998047E+04  0.00000000000E+00 0. -1.
          1    1    1    2  502    0  0.64789495706E+02 -0.49205609143E+02  0.10734330947E+04  0.10765117182E+04  0.00000000000E+00 0. -1.
         22    1    3    3    0    0 -0.40043399075E+02 -0.57145390031E+02 -0.30319597047E+03  0.31112194703E+03  0.00000000000E+00 0. -1.
         22    1    3    3    0    0 -0.82571047216E+01 -0.21347447820E+02 -0.11724939237E+04  0.11727173122E+04  0.00000000000E+00 0. -1.
</event>
<event>
 7    1  0.6443388E-006  0.8795419E+02  0.7818608E-02  0.1470692E+00
          2   -1    0    0  502    0  0.00000000000E+00  0.00000000000E+00  0.37998442604E+03  0.37998442604E+03  0.00000000000E+00 0. -1.
          1   -1    0    0  501    0 -0.00000000000E+00 -0.00000000000E+00 -0.24587388502E+03  0.24587388502E+03  0.00000000000E+00 0. -1.
         25    2    1    2    0    0  0.99803808862E+02 -0.54110515296E+01  0.56081285041E+02  0.16958293632E+03  0.12499272786E+03 0.  0.
          2    1    1    2  501    0 -0.85975209530E+02 -0.13751295132E+02 -0.17853017102E+03  0.19862994925E+03  0.00000000000E+00 0. -1.
          1    1    1    2  502    0 -0.13828599332E+02  0.19162346661E+02  0.25655942700E+03  0.25764542548E+03  0.00000000000E+00 0. -1.
         22    1    3    3    0    0  0.65525160673E+02  0.54969399391E+02  0.96841530059E+01  0.86075341243E+02  0.00000000000E+00 0. -1.
         22    1    3    3    0    0  0.34278648189E+02 -0.60380450921E+02  0.46397132035E+02  0.83507595081E+02  0.00000000000E+00 0. -1.
</event>
<event>
 7    1  0.6443388E-006  0.3055551E+03  0.7818608E-02  0.1232725E+00
          2   -1    0    0  502    0  0.00000000000E+00  0.00000000000E+00  0.30704652938E+04  0.30704652938E+04  0.00000000000E+00 0. -1.
          1   -1    0    0  501    0 -0.00000000000E+00 -0.00000000000E+00 -0.14992100992E+03  0.14992100992E+03  0.00000000000E+00 0. -1.
         25    2    1    2    0    0  0.25462313000E+03  0.78140414105E+02  0.20173450515E+04  0.20386868692E+04  0.12499692441E+03 0.  0.
          2    1    1    2  501    0 -0.30334195513E+03 -0.58897929946E+02  0.33942138524E+02  0.31086552826E+03  0.00000000000E+00 0. -1.
          1    1    1    2  502    0  0.48718825132E+02 -0.19242484159E+02  0.86925709381E+03  0.87083390624E+03  0.00000000000E+00 0. -1.
         22    1    3    3    0    0  0.10683385544E+03  0.62650766553E+02  0.54666977514E+03  0.56052335747E+03  0.00000000000E+00 0. -1.
         22    1    3    3    0    0  0.14778927455E+03  0.15489647551E+02  0.14706752764E+04  0.14781635117E+04  0.00000000000E+00 0. -1.
</event>
<event>
 7    1  0.6443388E-006  0.1705090E+03  0.7818608E-02  0.1297427E+00
          2   -1    0    0  502    0  0.00000000000E+00  0.00000000000E+00  0.87628122743E+03  0.87628122743E+03  0.00000000000E+00 0. -1.
          1   -1    0    0  501    0 -0.00000000000E+00 -0.00000000000E+00 -0.10173752983E+04  0.10173752983E+04  0.00000000000E+00 0. -1.
         25    2    1    2    0    0  0.16422153152E+03 -0.70542943910E+02  0.15561748748E+03  0.26793160139E+03  0.12500208903E+03 0.  0.
          2    1    1    2  501    0 -0.16918055578E+03  0.20849683569E+02 -0.95270439592E+03  0.96783388852E+03  0.00000000000E+00 0. -1.
          1    1    1    2  502    0  0.49590242581E+01  0.49693260341E+02  0.65599283758E+03  0.65789103582E+03  0.00000000000E+00 0. -1.
         22    1    3    3    0    0  0.12450924025E+03 -0.10009790922E+03  0.14813299977E+03  0.21786584854E+03  0.00000000000E+00 0.  1.
         22    1    3    3    0    0  0.39712291275E+02  0.29554965307E+02  0.74844877087E+01  0.50065752854E+02  0.00000000000E+00 0.  1.
</event>
<event>
 7    1  0.6443388E-006  0.6007525E+02  0.7818608E-02  0.1452170E+00
          2   -1    0    0  502    0  0.00000000000E+00  0.00000000000E+00  0.16163969919E+03  0.16163969919E+03  0.00000000000E+00 0. -1.
          1   -1    0    0  501    0 -0.00000000000E+00 -0.00000000000E+00 -0.24527886221E+03  0.24527886221E+03  0.00000000000E+00 0. -1.
         25    2    1    2    0    0 -0.15331839100E+02 -0.37285164900E+02 -0.45593116242E+02  0.13902541383E+03  0.12499633847E+03 0.  0.
          2    1    1    2  501    0  0.32091884213E+02 -0.23148311768E+02 -0.14149232076E+03  0.14692110197E+03  0.00000000000E+00 0. -1.
          1    1    1    2  502    0 -0.16760045113E+02  0.60433476668E+02  0.10344627399E+03  0.12097204560E+03  0.00000000000E+00 0. -1.
         22    1    3    3    0    0 -0.27785622263E+01  0.10889757989E+02 -0.78531530419E+02  0.79331636230E+02  0.00000000000E+00 0. -1.
         22    1    3    3    0    0 -0.12553276874E+02 -0.48174922889E+02  0.32938414177E+02  0.59693777600E+02  0.00000000000E+00 0. -1.
</event>
<event>
 7    1  0.6443388E-006  0.6971690E+02  0.7818608E-02  0.1453670E+00
          2   -1    0    0  502    0  0.00000000000E+00  0.00000000000E+00  0.75881547529E+03  0.75881547529E+03  0.00000000000E+00 0. -1.
          1   -1    0    0  501    0 -0.00000000000E+00 -0.00000000000E+00 -0.13513302542E+04  0.13513302542E+04  0.00000000000E+00 0. -1.
         25    2    1    2    0    0  0.90745862779E+02 -0.89291954250E+01  0.23128798498E+03  0.27826981094E+03  0.12500165415E+03 0.  0.
          2    1    1    2  501    0 -0.24298353482E+02  0.23385481007E+02 -0.13253302586E+04  0.13257592485E+04  0.00000000000E+00 0. -1.
          1    1    1    2  502    0 -0.66447509297E+02 -0.14456285582E+02  0.50152749472E+03  0.50611667000E+03  0.00000000000E+00 0. -1.
         22    1    3    3    0    0  0.93674066948E+02 -0.24433766955E+02  0.24101714080E+03  0.25973275101E+03  0.00000000000E+00 0. -1.
         22    1    3    3    0    0 -0.29282041688E+01  0.15504571530E+02 -0.97291558185E+01  0.18537059932E+02  0.00000000000E+00 0. -1.
</event>
<event>
 7    1  0.6443388E-006  0.9288410E+02  0.7818608E-02  0.1435076E+00
          2   -1    0    0  502    0  0.00000000000E+00  0.00000000000E+00  0.13600335226E+04  0.13600335226E+04  0.00000000000E+00 0. -1.
          1   -1    0    0  501    0 -0.00000000000E+00 -0.00000000000E+00 -0.17008423886E+02  0.17008423886E+02  0.00000000000E+00 0. -1.
         25    2    1    2    0    0 -0.39521959579E+02  0.68107649162E+02  0.86119378418E+03  0.87377515768E+03  0.12501061999E+03 0.  0.
          2    1    1    2  501    0 -0.11434514337E+02  0.26716379391E+02  0.46586536934E+02  0.54907362615E+02  0.00000000000E+00 0. -1.
          1    1    1    2  502    0  0.50956473916E+02 -0.94824028553E+02  0.43524477764E+03  0.44835942622E+03  0.00000000000E+00 0. -1.
         22    1    3    3    0    0 -0.79965531465E+02  0.51620287500E+02  0.71156711946E+03  0.71790452415E+03  0.00000000000E+00 0.  1.
         22    1    3    3    0    0  0.40443571886E+02  0.16487361662E+02  0.14962666472E+03  0.15587063353E+03  0.00000000000E+00 0.  1.
</event>
<event>
 7    1  0.6443388E-006  0.6932540E+02  0.7818608E-02  0.1481016E+00
          2   -1    0    0  502    0  0.00000000000E+00  0.00000000000E+00  0.55148923903E+03  0.55148923903E+03  0.00000000000E+00 0. -1.
          1   -1    0    0  501    0 -0.00000000000E+00 -0.00000000000E+00 -0.43581624517E+02  0.43581624517E+02  0.00000000000E+00 0. -1.
         25    2    1    2    0    0 -0.14564916562E+02 -0.62267930159E+02  0.23866424751E+03  0.27690179155E+03  0.12499818879E+03 0.  0.
          2    1    1    2  501    0 -0.27516231469E+02  0.43680730280E+01 -0.10226862409E+02  0.29678473191E+02  0.00000000000E+00 0. -1.
          1    1    1    2  502    0  0.42081148031E+02  0.57899857131E+02  0.27947022941E+03  0.28849059881E+03  0.00000000000E+00 0. -1.
         22    1    3    3    0    0 -0.55758852320E+02  0.51457479384E+00  0.15374474044E+03  0.16354436588E+03  0.00000000000E+00 0.  1.
         22    1    3    3    0    0  0.41193935759E+02 -0.62782504953E+02  0.84919507071E+02  0.11335742566E+03  0.00000000000E+00 0.  1.
</event>
<event>
 7    1  0.6443388E-006  0.6178923E+02  0.7818608E-02  0.1512937E+00
          2   -1    0    0  502    0  0.00000000000E+00  0.00000000000E+00  0.53228407019E+03  0.53228407019E+03  0.00000000000E+00 0. -1.
          1   -1    0    0  501    0 -0.00000000000E+00 -0.00000000000E+00 -0.13316167528E+04  0.13316167528E+04  0.00000000000E+00 0. -1.
         25    2    1    2    0    0 -0.81015035668E+02 -0.15014453182E+02 -0.88346262829E+03  0.89605628987E+03  0.12498715625E+03 0.  0.
          2    1    1    2  501    0  0.23743449535E+02 -0.80744552585E+01 -0.43968637102E+03  0.44040101395E+03  0.00000000000E+00 0. -1.
          1    1    1    2  502    0  0.57271586133E+02  0.23088908441E+02  0.52381631670E+03  0.52744351917E+03  0.00000000000E+00 0. -1.
         22    1    3    3    0    0  0.13668661729E+02 -0.18730770208E+02 -0.33005046853E+02  0.40336177109E+02  0.00000000000E+00 0. -1.
         22    1    3    3    0    0 -0.94683697397E+02  0.37163170254E+01 -0.85045758143E+03  0.85572011276E+03  0.00000000000E+00 0. -1.
</event>
<event>
 7    1  0.6443388E-006  0.9239993E+02  0.7818608E-02  0.1420237E+00
          2   -1    0    0  502    0  0.00000000000E+00  0.00000000000E+00  0.77805580848E+03  0.77805580848E+03  0.00000000000E+00 0. -1.
          1   -1    0    0  501    0 -0.00000000000E+00 -0.00000000000E+00 -0.10057850082E+04  0.10057850082E+04  0.00000000000E+00 0. -1.
         25    2    1    2    0    0 -0.33624768041E+02  0.11874644592E+03  0.30615105528E+02  0.17830605573E+03  0.12499768550E+03 0.  0.
          2    1    1    2  501    0  0.46206463266E+01 -0.32375299299E+02 -0.92856942387E+03  0.92914513684E+03  0.00000000000E+00 0. -1.
          1    1    1    2  502    0  0.29004121715E+02 -0.86371146619E+02  0.67022511859E+03  0.67638962413E+03  0.00000000000E+00 0. -1.
         22    1    3    3    0    0 -0.35807232630E+02 -0.14188282120E+02  0.23594471482E+02  0.45168178430E+02  0.00000000000E+00 0.  1.
         22    1    3    3    0    0  0.21824645890E+01  0.13293472804E+03  0.70206340457E+01  0.13313787730E+03  0.00000000000E+00 0.  1.
</event>
<event>
 7    1  0.6443388E-006  0.8876679E+02  0.7818608E-02  0.1371559E+00
          2   -1    0    0  502    0  0.00000000000E+00  0.00000000000E+00  0.86055338539E+03  0.86055338539E+03  0.00000000000E+00 0. -1.
          1   -1    0    0  501    0 -0.00000000000E+00 -0.00000000000E+00 -0.91927376010E+02  0.91927376010E+02  0.00000000000E+00 0. -1.
         25    2    1    2    0    0  0.15830242238E+00 -0.60787939106E+02  0.59269299120E+02  0.15110837958E+03  0.12500277581E+03 0.  0.
          2    1    1    2  501    0  0.27225945550E+02  0.10282831992E+03  0.17623046372E+02  0.10782155282E+03  0.00000000000E+00 0. -1.
          1    1    1    2  502    0 -0.27384247972E+02 -0.42040380814E+02  0.69173366388E+03  0.69355082900E+03  0.00000000000E+00 0. -1.
         22    1    3    3    0    0 -0.15117025538E+02 -0.45088731831E+02 -0.31952918564E+02  0.57293168912E+02  0.00000000000E+00 0. -1.
         22    1    3    3    0    0  0.15275327961E+02 -0.15699207275E+02  0.91222217684E+02  0.93815210667E+02  0.00000000000E+00 0. -1.
</event>
<event>
 7    1  0.6443388E-006  0.1497228E+03  0.7818608E-02  0.1347792E+00
          2   -1    0    0  502    0  0.00000000000E+00  0.00000000000E+00  0.10734869607E+04  0.10734869607E+04  0.00000000000E+00 0. -1.
          1   -1    0    0  501    0 -0.00000000000E+00 -0.00000000000E+00 -0.66134555166E+03  0.66134555166E+03  0.00000000000E+00 0. -1.
         25    2    1    2    0    0 -0.13203016980E+03 -0.12729103105E+03  0.21050530536E+03  0.30589511508E+03  0.12499746206E+03 0.  0.
          2    1    1    2  501    0  0.11316864726E+03  0.96245936082E+02 -0.60424405898E+03  0.62223894586E+03  0.00000000000E+00 0. -1.
          1    1    1    2  502    0  0.18861522538E+02  0.31045094969E+02  0.80588016269E+03  0.80669845145E+03  0.00000000000E+00 0. -1.
         22    1    3    3    0    0 -0.75440074664E+02 -0.78561480405E+02  0.33775433431E+02  0.11403460427E+03  0.00000000000E+00 0. -1.
         22    1    3    3    0    0 -0.56590095135E+02 -0.48729550647E+02  0.17672987193E+03  0.19186051080E+03  0.00000000000E+00 0. -1.
</event>
<event>
 7    1  0.6443388E-006  0.1009866E+03  0.7818608E-02  0.1419209E+00
          2   -1    0    0  502    0  0.00000000000E+00  0.00000000000E+00  0.34754271814E+03  0.34754271814E+03  0.00000000000E+00 0. -1.
          1   -1    0    0  501    0 -0.00000000000E+00 -0.00000000000E+00 -0.16100766621E+04  0.16100766621E+04  0.00000000000E+00 0. -1.
         25    2    1    2    0    0  0.12282582331E+03  0.38666493373E+02  0.15138746506E+03  0.23478682207E+03  0.12500162661E+03 0.  0.
          2    1    1    2  501    0 -0.98612846729E+02 -0.20683843708E+02 -0.15652692197E+04  0.15685088603E+04  0.00000000000E+00 0. -1.
          1    1    1    2  502    0 -0.24212976586E+02 -0.17982649665E+02  0.15134781064E+03  0.15432369782E+03  0.00000000000E+00 0. -1.
         22    1    3    3    0    0  0.31872480227E+02  0.74773697430E+02  0.61729799790E+02  0.10206629711E+03  0.00000000000E+00 0.  1.
         22    1    3    3    0    0  0.90953343088E+02 -0.36107204057E+02  0.89657665274E+02  0.13272052496E+03  0.00000000000E+00 0.  1.
</event>
<event>
 7    1  0.6443388E-006  0.8419434E+02  0.7818608E-02  0.1471470E+00
          2   -1    0    0  502    0  0.00000000000E+00  0.00000000000E+00  0.23767301104E+03  0.23767301104E+03  0.00000000000E+00 0. -1.
          1   -1    0    0  501    0 -0.00000000000E+00 -0.00000000000E+00 -0.28275142262E+03  0.28275142262E+03  0.00000000000E+00 0. -1.
         25    2    1    2    0    0 -0.78921918835E+02  0.70225294838E+02 -0.36877507541E+02  0.16776495830E+03  0.12499947745E+03 0.  0.
          2    1    1    2  501    0  0.61902892497E+02 -0.52532932947E+02 -0.17032583642E+03  0.18868642690E+03  0.00000000000E+00 0. -1.
          1    1    1    2  502    0  0.17019026338E+02 -0.17692361891E+02  0.16212493238E+03  0.16397304847E+03  0.00000000000E+00 0. -1.
         22    1    3    3    0    0  0.22146300598E+02  0.18499337585E+02  0.25248814611E+02  0.38343014494E+02  0.00000000000E+00 0. -1.
         22    1    3    3    0    0 -0.10106821943E+03  0.51725957253E+02 -0.62126322152E+02  0.12942194380E+03  0.00000000000E+00 0. -1.
</event>
<event>
 7    1  0.6443388E-006  0.3445487E+02  0.7818608E-02  0.1576046E+00
          2   -1    0    0  502    0  0.00000000000E+00  0.00000000000E+00  0.21732495707E+04  0.21732495707E+04  0.00000000000E+00 0. -1.
          1   -1    0    0  501    0 -0.00000000000E+00 -0.00000000000E+00 -0.28366452936E+03  0.28366452936E+03  0.00000000000E+00 0. -1.
         25    2    1    2    0    0  0.16784762016E+02  0.12991158834E+01  0.18412117963E+04  0.18455268131E+04  0.12499969214E+03 0.  0.
          2    1    1    2  501    0 -0.19423002443E+02  0.28476592803E+02 -0.27976992387E+03  0.28188540165E+03  0.00000000000E+00 0. -1.
          1    1    1    2  502    0  0.26382404270E+01 -0.29775708687E+02  0.32814316890E+03  0.32950188533E+03  0.00000000000E+00 0. -1.
         22    1    3    3    0    0 -0.71037327190E+01 -0.52854960311E+02  0.12989462800E+04  0.13000405948E+04  0.00000000000E+00 0. -1.
         22    1    3    3    0    0  0.23888494735E+02  0.54154076194E+02  0.54226551634E+03  0.54548621830E+03  0.00000000000E+00 0. -1.
</event>
<event>
 7    1  0.6443388E-006  0.5992448E+02  0.7818608E-02  0.1479675E+00
          2   -1    0    0  502    0  0.00000000000E+00  0.00000000000E+00  0.23970612707E+04  0.23970612707E+04  0.00000000000E+00 0. -1.
          1   -1    0    0  501    0 -0.00000000000E+00 -0.00000000000E+00 -0.92397323473E+01  0.92397323473E+01  0.00000000000E+00 0. -1.
         25    2    1    2    0    0 -0.30572817413E+02 -0.23421309075E+02  0.96762332505E+03  0.97642295561E+03  0.12499453662E+03 0.  0.
          2    1    1    2  501    0  0.62794988004E+02  0.18897551843E+02  0.22818911385E+03  0.23742493480E+03  0.00000000000E+00 0. -1.
          1    1    1    2  502    0 -0.32222170592E+02  0.45237572317E+01  0.11920090995E+04  0.11924531126E+04  0.00000000000E+00 0. -1.
         22    1    3    3    0    0 -0.67681430165E+02 -0.16080092076E+02  0.30986590809E+03  0.31757869316E+03  0.00000000000E+00 0. -1.
         22    1    3    3    0    0  0.37108612752E+02 -0.73412169989E+01  0.65775741695E+03  0.65884426245E+03  0.00000000000E+00 0. -1.
</event>
<event>
 7    1  0.6443388E-006  0.8419811E+02  0.7818608E-02  0.1363285E+00
          2   -1    0    0  502    0  0.00000000000E+00  0.00000000000E+00  0.10675787936E+03  0.10675787936E+03  0.00000000000E+00 0. -1.
          1   -1    0    0  501    0 -0.00000000000E+00 -0.00000000000E+00 -0.12654289364E+04  0.12654289364E+04  0.00000000000E+00 0. -1.
         25    2    1    2    0    0  0.12797043479E+02  0.98566613356E+02 -0.57939813362E+03  0.60100458410E+03  0.12500068513E+03 0.  0.
          2    1    1    2  501    0  0.43703934493E+02 -0.36059227413E+02 -0.65526924356E+03  0.65771428700E+03  0.00000000000E+00 0. -1.
          1    1    1    2  502    0 -0.56500977971E+02 -0.62507385944E+02  0.75996320089E+02  0.11346794471E+03  0.00000000000E+00 0. -1.
         22    1    3    3    0    0 -0.71071098432E+01  0.10228702678E+02  0.19842737658E+01  0.12612482356E+02  0.00000000000E+00 0. -1.
         22    1    3    3    0    0  0.19904153322E+02  0.88337910678E+02 -0.58138240738E+03  0.58839210175E+03  0.00000000000E+00 0. -1.
</event>
<event>
 7    1  0.6443388E-006  0.7602618E+02  0.7818608E-02  0.1504635E+00
          2   -1    0    0  502    0  0.00000000000E+00  0.00000000000E+00  0.27778893318E+03  0.27778893318E+03  0.00000000000E+00 0. -1.
          1   -1    0    0  501    0 -0.00000000000E+00 -0.00000000000E+00 -0.94567391139E+03  0.94567391139E+03  0.00000000000E+00 0. -1.
         25    2    1    2    0    0 -0.90159957336E+02 -0.64800110467E+01  0.60415187789E+02  0.16566869606E+03  0.12500125395E+03 0.  0.
          2    1    1    2  501    0  0.75292105010E+02 -0.91394694563E+01 -0.89072290236E+03  0.89394615037E+03  0.00000000000E+00 0. -1.
          1    1    1    2  502    0  0.14867852327E+02  0.15619480503E+02  0.16242273637E+03  0.16384799813E+03  0.00000000000E+00 0. -1.
         22    1    3    3    0    0 -0.66798216239E+02 -0.63594406193E+02  0.41423683640E+02  0.10110475636E+03  0.00000000000E+00 0.  1.
         22    1    3    3    0    0 -0.23361741098E+02  0.57114395147E+02  0.18991504150E+02  0.64563939703E+02  0.00000000000E+00 0.  1.
</event>
<event>
 7    1  0.6443388E-006  0.2188898E+03  0.7818608E-02  0.1281280E+00
          2   -1    0    0  502    0  0.00000000000E+00  0.00000000000E+00  0.41228610057E+03  0.41228610057E+03  0.00000000000E+00 0. -1.
          1   -1    0    0  501    0 -0.00000000000E+00 -0.00000000000E+00 -0.44413017086E+03  0.44413017086E+03  0.00000000000E+00 0. -1.
         25    2    1    2    0    0  0.95956965234E+02  0.18425449375E+03  0.99193406991E+02  0.26195799543E+03  0.12500080693E+03 0.  0.
          2    1    1    2  501    0 -0.61070770559E+02 -0.21308855918E+03 -0.32604857239E+03  0.39426392763E+03  0.00000000000E+00 0. -1.
          1    1    1    2  502    0 -0.34886194675E+02  0.28834065436E+02  0.19501109510E+03  0.20019434838E+03  0.00000000000E+00 0. -1.
         22    1    3    3    0    0  0.17556119885E+02 -0.34326337582E+01 -0.19494822411E+02  0.26458428161E+02  0.00000000000E+00 0.  1.
         22    1    3    3    0    0  0.78400845350E+02  0.18768712751E+03  0.11868822940E+03  0.23549956727E+03  0.00000000000E+00 0.  1.
</event>
<event>
 7    1  0.6443388E-006  0.2898646E+03  0.7818608E-02  0.1258958E+00
          2   -1    0    0  502    0  0.00000000000E+00  0.00000000000E+00  0.52871629406E+03  0.52871629406E+03  0.00000000000E+00 0. -1.
          1   -1    0    0  501    0 -0.00000000000E+00 -0.00000000000E+00 -0.53943124340E+03  0.53943124340E+03  0.00000000000E+00 0. -1.
         25    2    1    2    0    0 -0.26561254464E+03  0.14619961178E+03  0.28114254272E+03  0.43196042652E+03  0.12499732157E+03 0.  0.
          2    1    1    2  501    0  0.15922573221E+02 -0.39307963312E+02 -0.35484560864E+03  0.35737102609E+03  0.00000000000E+00 0. -1.
          1    1    1    2  502    0  0.24968997142E+03 -0.10689164847E+03  0.62988116584E+02  0.27881608485E+03  0.00000000000E+00 0. -1.
         22    1    3    3    0    0 -0.10908671953E+03  0.50096446411E+01  0.53141195308E+02  0.12144544272E+03  0.00000000000E+00 0. -1.
         22    1    3    3    0    0 -0.15652582511E+03  0.14118996714E+03  0.22800134741E+03  0.31051498381E+03  0.00000000000E+00 0. -1.
</event>
<event>
 7    1  0.6443388E-006  0.1292038E+03  0.7818608E-02  0.1407868E+00
          2   -1    0    0  502    0  0.00000000000E+00  0.00000000000E+00  0.58814751019E+03  0.58814751019E+03  0.00000000000E+00 0. -1.
          1   -1    0    0  501    0 -0.00000000000E+00 -0.00000000000E+00 -0.59002049637E+02  0.59002049637E+02  0.00000000000E+00 0. -1.
         25    2    1    2    0    0  0.12650526511E+03 -0.74377765442E+01  0.26493474357E+03  0.31917463110E+03  0.12499249645E+03 0.  0.
          2    1    1    2  501    0 -0.12994082647E+03 -0.18075028799E+02  0.10877259246E+03  0.17041948809E+03  0.00000000000E+00 0. -1.
          1    1    1    2  502    0  0.34355613613E+01  0.25512805343E+02  0.15543812453E+03  0.15755544064E+03  0.00000000000E+00 0. -1.
         22    1    3    3    0    0  0.35184339554E+02 -0.50184716210E+02  0.41431576556E+02  0.73979855548E+02  0.00000000000E+00 0.  1.
         22    1    3    3    0    0  0.91320925554E+02  0.42746939666E+02  0.22350316701E+03  0.24519477555E+03  0.00000000000E+00 0.  1.
</event>
<event>
 7    1  0.6443388E-006  0.1079847E+03  0.7818608E-02  0.1315285E+00
          2   -1    0    0  502    0  0.00000000000E+00  0.00000000000E+00  0.95884607653E+03  0.95884607653E+03  0.00000000000E+00 0. -1.
          1   -1    0    0  501    0 -0.00000000000E+00 -0.00000000000E+00 -0.16814316395E+03  0.16814316395E+03  0.00000000000E+00 0. -1.
         25    2    1    2    0    0  0.45689872944E+02  0.12711167074E+03  0.17330270705E+03  0.25278788996E+03  0.12499179057E+03 0.  0.
          2    1    1    2  501    0 -0.63373901978E+02 -0.21732221515E+02 -0.11551526605E+03  0.13353770102E+03  0.00000000000E+00 0. -1.
          1    1    1    2  502    0  0.17684029034E+02 -0.10537944923E+03  0.73291547159E+03  0.74066364950E+03  0.00000000000E+00 0. -1.
         22    1    3    3    0    0  0.15181009885E+02  0.14342354448E+03  0.16079738016E+03  0.21600132786E+03  0.00000000000E+00 0.  1.
         22    1    3    3    0    0  0.30508863059E+02 -0.16311873740E+02  0.12505326891E+02  0.36786562094E+02  0.00000000000E+00 0.  1.
</event>
<event>
 7    1  0.6443388E-006  0.4796175E+02  0.7818608E-02  0.1482572E+00
          2   -1    0    0  502    0  0.00000000000E+00  0.00000000000E+00  0.62065454712E+03  0.62065454712E+03  0.00000000000E+00 0. -1.
          1   -1    0    0  501    0 -0.00000000000E+00 -0.00000000000E+00 -0.18117870833E+03  0.18117870833E+03  0.00000000000E+00 0. -1.
         25    2    1    2    0    0 -0.69576474846E+02  0.19368317795E+02  0.19449414401E+03  0.24221802308E+03  0.12500232424E+03 0.  0.
          2    1    1    2  501    0  0.32800326912E+02 -0.34667863243E+02 -0.15267914348E+03  0.15996450557E+03  0.00000000000E+00 0. -1.
          1    1    1    2  502    0  0.36776147934E+02  0.15299545448E+02  0.39766083826E+03  0.39965072680E+03  0.00000000000E+00 0. -1.
         22    1    3    3    0    0 -0.22730616299E+02  0.25693174975E+02 -0.72053056198E+01  0.35053339166E+02  0.00000000000E+00 0. -1.
         22    1    3    3    0    0 -0.46845858547E+02 -0.63248571797E+01  0.20169944963E+03  0.20716468392E+03  0.00000000000E+00 0. -1.
</event>
<event>
 7    1  0.6443388E-006  0.5118478E+02  0.7818608E-02  0.1532256E+00
          2   -1    0    0  502    0  0.00000000000E+00  0.00000000000E+00  0.63272190111E+03  0.63272190111E+03  0.00000000000E+00 0. -1.
          1   -1    0    0  501    0 -0.00000000000E+00 -0.00000000000E+00 -0.15888597161E+03  0.15888597161E+03  0.00000000000E+00 0. -1.
         25    2    1    2    0    0  0.41200030591E+02 -0.39529704166E+02  0.28842617911E+03  0.31949155221E+03  0.12500060442E+03 0.  0.
          2    1    1    2  501    0 -0.49200998752E+02  0.14142690144E+02 -0.13821895247E+03  0.14739481939E+03  0.00000000000E+00 0. -1.
          1    1    1    2  502    0  0.80009681610E+01  0.25387014022E+02  0.32362870286E+03  0.32472150112E+03  0.00000000000E+00 0. -1.
         22    1    3    3    0    0  0.18950975539E+01  0.42511548688E+02  0.13020569260E+03  0.13698301191E+03  0.00000000000E+00 0. -1.
         22    1    3    3    0    0  0.39304933037E+02 -0.82041252854E+02  0.15822048651E+03  0.18250854030E+03  0.00000000000E+00 0. -1.
</event>
<event>
 7    1  0.6443388E-006  0.5745772E+02  0.7818608E-02  0.1414659E+00
          2   -1    0    0  502    0  0.00000000000E+00  0.00000000000E+00  0.30851951777E+04  0.30851951777E+04  0.00000000000E+00 0. -1.
          1   -1    0    0  501    0 -0.00000000000E+00 -0.00000000000E+00 -0.93757416036E+02  0.93757416036E+02  0.00000000000E+00 0. -1.
         25    2    1    2    0    0 -0.33371963721E+02 -0.91483840454E+02  0.49684055507E+03  0.52149104008E+03  0.12497754475E+03 0.  0.
          2    1    1    2  501    0  0.42881527998E+02  0.37408161947E+02 -0.71161096766E+02  0.91115847780E+02  0.00000000000E+00 0. -1.
          1    1    1    2  502    0 -0.95095642773E+01  0.54075678506E+02  0.25657583033E+04  0.25663457059E+04  0.00000000000E+00 0. -1.
         22    1    3    3    0    0 -0.69335400874E+01 -0.10461184380E+03  0.47014113058E+03  0.48168910565E+03  0.00000000000E+00 0. -1.
         22    1    3    3    0    0 -0.26438423634E+02  0.13128003346E+02  0.26699424496E+02  0.39801934432E+02  0.00000000000E+00 0. -1.
</event>
<event>
 7    1  0.6443388E-006  0.9617231E+02  0.7818608E-02  0.1378163E+00
          2   -1    0    0  502    0  0.00000000000E+00  0.00000000000E+00  0.40360515898E+04  0.40360515898E+04  0.00000000000E+00 0. -1.
          1   -1    0    0  501    0 -0.00000000000E+00 -0.00000000000E+00 -0.21748437444E+02  0.21748437444E+02  0.00000000000E+00 0. -1.
         25    2    1    2    0    0 -0.95994214897E+02  0.29131025875E+02  0.14139249624E+04  0.14229800569E+04  0.12499974831E+03 0.  0.
          2    1    1    2  501    0  0.95514592026E+02  0.14729187428E+02  0.12010811693E+03  0.15416207707E+03  0.00000000000E+00 0. -1.
          1    1    1    2  502    0  0.47962287197E+00 -0.43860213303E+02  0.24802700730E+04  0.24806578933E+04  0.00000000000E+00 0. -1.
         22    1    3    3    0    0 -0.87413678269E+02 -0.32240915468E+02  0.10154520922E+04  0.10197174017E+04  0.00000000000E+00 0.  1.
         22    1    3    3    0    0 -0.85805366283E+01  0.61371941342E+02  0.39847287019E+03  0.40326265519E+03  0.00000000000E+00 0.  1.
</event>
<event>
 7    1  0.6443388E-006  0.5653424E+02  0.7818608E-02  0.1432775E+00
          2   -1    0    0  502    0  0.00000000000E+00  0.00000000000E+00  0.16895179108E+04  0.16895179108E+04  0.00000000000E+00 0. -1.
          1   -1    0    0  501    0 -0.00000000000E+00 -0.00000000000E+00 -0.34192889402E+03  0.34192889402E+03  0.00000000000E+00 0. -1.
         25    2    1    2    0    0  0.95945960803E+01 -0.91097790765E+02  0.90527883716E+03  0.91844751143E+03  0.12500077796E+03 0.  0.
          2    1    1    2  501    0 -0.25979492473E+02  0.41050790896E+02 -0.33268685288E+03  0.33621517447E+03  0.00000000000E+00 0. -1.
          1    1    1    2  502    0  0.16384896393E+02  0.50046999869E+02  0.77499703249E+03  0.77678411891E+03  0.00000000000E+00 0. -1.
         22    1    3    3    0    0  0.26607274302E+02 -0.45715665036E+02  0.11386701534E+03  0.12555304162E+03  0.00000000000E+00 0.  1.
         22    1    3    3    0    0 -0.17012678222E+02 -0.45382125728E+02  0.79141182181E+03  0.79289446981E+03  0.00000000000E+00 0.  1.
</event>
<event>
 7    1  0.6443388E-006  0.1271225E+03  0.7818608E-02  0.1345349E+00
          2   -1    0    0  502    0  0.00000000000E+00  0.00000000000E+00  0.10632834303E+03  0.10632834303E+03  0.00000000000E+00 0. -1.
          1   -1    0    0  501    0 -0.00000000000E+00 -0.00000000000E+00 -0.17515383406E+04  0.17515383406E+04  0.00000000000E+00 0. -1.
         25    2    1    2    0    0  0.60598597307E+02  0.15286446267E+03 -0.30019318851E+03  0.36439114348E+03  0.12500088430E+03 0.  0.
          2    1    1    2  501    0 -0.22518549422E+02 -0.37439401642E+02 -0.13689082790E+04  0.13696052972E+04  0.00000000000E+00 0. -1.
          1    1    1    2  502    0 -0.38080047885E+02 -0.11542506103E+03  0.23891469901E+02  0.12387024297E+03  0.00000000000E+00 0. -1.
         22    1    3    3    0    0  0.72701085016E+02  0.56434001902E+02 -0.21970316326E+03  0.23820101654E+03  0.00000000000E+00 0.  1.
         22    1    3    3    0    0 -0.12102487709E+02  0.96430460768E+02 -0.80490025244E+02  0.12619012694E+03  0.00000000000E+00 0.  1.
</event>
<event>
 7    1  0.6443388E-006  0.1442144E+03  0.7818608E-02  0.1300393E+00
          2   -1    0    0  502    0  0.00000000000E+00  0.00000000000E+00  0.22195821167E+03  0.22195821167E+03  0.00000000000E+00 0. -1.
          1   -1    0    0  501    0 -0.00000000000E+00 -0.00000000000E+00 -0.25929713089E+04  0.25929713089E+04  0.00000000000E+00 0. -1.
         25    2    1    2    0    0 -0.16345548307E+03 -0.91321077416E+02 -0.92922642322E+03  0.95610926196E+03  0.12500376425E+03 0.  0.
          2    1    1    2  501    0  0.10646558171E+03  0.84062484448E+02 -0.16434981839E+04  0.16490869298E+04  0.00000000000E+00 0. -1.
          1    1    1    2  502    0  0.56989901364E+02  0.72585929682E+01  0.20171150987E+03  0.20973332888E+03  0.00000000000E+00 0. -1.
         22    1    3    3    0    0 -0.21411061538E+02  0.23863851012E+02 -0.61876349473E+02  0.69689307396E+02  0.00000000000E+00 0. -1.
         22    1    3    3    0    0 -0.14204442153E+03 -0.11518492843E+03 -0.86735007375E+03  0.88641995457E+03  0.00000000000E+00 0. -1.
</event>
<event>
 7    1  0.6443388E-006  0.1869858E+03  0.7818608E-02  0.1308499E+00
          2   -1    0    0  502    0  0.00000000000E+00  0.00000000000E+00  0.28926269145E+03  0.28926269145E+03  0.00000000000E+00 0. -1.
          1   -1    0    0  501    0 -0.00000000000E+00 -0.00000000000E+00 -0.10983535774E+04  0.10983535774E+04  0.00000000000E+00 0. -1.
         25    2    1    2    0    0  0.12683842918E+03  0.83841459934E+02 -0.17245115856E+03  0.26168224686E+03  0.12498327372E+03 0.  0.
          2    1    1    2  501    0  0.33024304758E+02  0.24534571648E+02 -0.84258901842E+03  0.84359279506E+03  0.00000000000E+00 0. -1.
          1    1    1    2  502    0 -0.15986273394E+03 -0.10837603158E+03  0.20594929106E+03  0.28234122690E+03  0.00000000000E+00 0. -1.
         22    1    3    3    0    0 -0.15641041780E+02 -0.12413925151E+02 -0.28587918630E+01  0.20172268502E+02  0.00000000000E+00 0. -1.
         22    1    3    3    0    0  0.14247947096E+03  0.96255385085E+02 -0.16959236670E+03  0.24150997835E+03  0.00000000000E+00 0. -1.
</event>
<event>
 7    1  0.6443388E-006  0.8620894E+02  0.7818608E-02  0.1424294E+00
          2   -1    0    0  502    0  0.00000000000E+00  0.00000000000E+00  0.67105088714E+03  0.67105088714E+03  0.00000000000E+00 0. -1.
          1   -1    0    0  501    0 -0.00000000000E+00 -0.00000000000E+00 -0.68324436027E+03  0.68324436027E+03  0.00000000000E+00 0. -1.
         25    2    1    2    0    0  0.39899521244E+01  0.11241286283E+03 -0.23648065343E+03  0.29017330812E+03  0.12499951141E+03 0.  0.
          2    1    1    2  501    0  0.17422401818E+02 -0.29172002869E+02 -0.41635528181E+03  0.41773947208E+03  0.00000000000E+00 0. -1.
          1    1    1    2  502    0 -0.21412353942E+02 -0.83240859958E+02  0.64064246211E+03  0.64638246722E+03  0.00000000000E+00 0. -1.
         22    1    3    3    0    0 -0.46476898580E+02  0.81187514018E+02 -0.80971645122E+02  0.12372518680E+03  0.00000000000E+00 0.  1.
         22    1    3    3    0    0  0.50466850705E+02  0.31225348809E+02 -0.15550900830E+03  0.16644812132E+03  0.00000000000E+00 0.  1.
</event>
<event>
 7    1  0.6443388E-006  0.1362362E+03  0.7818608E-02  0.1372132E+00
          2   -1    0    0  502    0  0.00000000000E+00  0.00000000000E+00  0.17882854660E+04  0.17882854660E+04  0.00000000000E+00 0. -1.
          1   -1    0    0  501    0 -0.00000000000E+00 -0.00000000000E+00 -0.95776988562E+02  0.95776988562E+02  0.00000000000E+00 0. -1.
         25    2    1    2    0    0 -0.10762598952E+03 -0.12514540632E+03  0.38242562266E+03  0.43487849031E+03  0.12500087251E+03 0.  0.
          2    1    1    2  501    0  0.18664328717E+02  0.26650530293E+02 -0.62360481240E+02  0.70338023514E+02  0.00000000000E+00 0. -1.
          1    1    1    2  502    0  0.88961660803E+02  0.98494876027E+02  0.13724433360E+04  0.13788459408E+04  0.00000000000E+00 0. -1.
         22    1    3    3    0    0 -0.86861439838E+02 -0.14455166368E+03  0.26537241036E+03  0.31442425063E+03  0.00000000000E+00 0. -1.
         22    1    3    3    0    0 -0.20764549683E+02  0.19406257361E+02  0.11705321230E+03  0.12045423969E+03  0.00000000000E+00 0. -1.
</event>
<event>
 7    1  0.6443388E-006  0.1006861E+03  0.7818608E-02  0.1289209E+00
          2   -1    0    0  502    0  0.00000000000E+00  0.00000000000E+00  0.29129892822E+04  0.29129892822E+04  0.00000000000E+00 0. -1.
          1   -1    0    0  501    0 -0.00000000000E+00 -0.00000000000E+00 -0.12216675402E+03  0.12216675402E+03  0.00000000000E+00 0. -1.
         25    2    1    2    0    0  0.74136703433E+02 -0.23365054210E+02  0.74378673679E+03  0.75821231754E+03  0.12500012831E+03 0.  0.
          2    1    1    2  501    0 -0.91093919522E+01  0.10027317423E+03 -0.91491875397E+02  0.13604577816E+03  0.00000000000E+00 0. -1.
          1    1    1    2  502    0 -0.65027311481E+02 -0.76908120022E+02  0.21385276667E+04  0.21408979405E+04  0.00000000000E+00 0. -1.
         22    1    3    3    0    0  0.52007798379E+02 -0.60894835129E+02  0.25012775290E+03  0.26263450803E+03  0.00000000000E+00 0.  1.
         22    1    3    3    0    0  0.22128905054E+02  0.37529780919E+02  0.49365898389E+03  0.49557780950E+03  0.00000000000E+00 0.  1.
</event>
<event>
 7    1  0.6443388E-006  0.4217037E+03  0.7818608E-02  0.1269938E+00
          2   -1    0    0  502    0  0.00000000000E+00  0.00000000000E+00  0.65206920167E+03  0.65206920167E+03  0.00000000000E+00 0. -1.
          1   -1    0    0  501    0 -0.00000000000E+00 -0.00000000000E+00 -0.94988943625E+03  0.94988943625E+03  0.00000000000E+00 0. -1.
         25    2    1    2    0    0 -0.22098984237E+03  0.37731146452E+03 -0.16721604832E+02  0.45508793585E+03  0.12499986240E+03 0.  0.
          2    1    1    2  501    0 -0.59937296040E+00 -0.26183049774E+02 -0.61408107777E+03  0.61463931002E+03  0.00000000000E+00 0. -1.
          1    1    1    2  502    0  0.22158921533E+03 -0.35112841475E+03  0.33298244802E+03  0.53223139205E+03  0.00000000000E+00 0. -1.
         22    1    3    3    0    0 -0.87975391782E+02  0.51315242240E+02  0.78045059382E+01  0.10214614020E+03  0.00000000000E+00 0.  1.
         22    1    3    3    0    0 -0.13301445059E+03  0.32599622228E+03 -0.24526110770E+02  0.35294179565E+03  0.00000000000E+00 0.  1.
</event>
<event>
 7    1  0.6443388E-006  0.1339720E+03  0.7818608E-02  0.1294181E+00
          2   -1    0    0  502    0  0.00000000000E+00  0.00000000000E+00  0.30773019596E+03  0.30773019596E+03  0.00000000000E+00 0. -1.
          1   -1    0    0  501    0 -0.00000000000E+00 -0.00000000000E+00 -0.52526697944E+03  0.52526697944E+03  0.00000000000E+00 0. -1.
         25    2    1    2    0    0  0.31099257771E+02 -0.16074098123E+03 -0.25226572407E+02  0.20752458266E+03  0.12500098229E+03 0.  0.
          2    1    1    2  501    0  0.40482615911E+02  0.51495942441E+02 -0.38618896735E+03  0.39170472653E+03  0.00000000000E+00 0. -1.
          1    1    1    2  502    0 -0.71581873682E+02  0.10924503879E+03  0.19387875628E+03  0.23376786622E+03  0.00000000000E+00 0. -1.
         22    1    3    3    0    0 -0.48372605396E+02 -0.49854145967E+02 -0.11515573333E+02  0.70412735014E+02  0.00000000000E+00 0. -1.
         22    1    3    3    0    0  0.79471863167E+02 -0.11088683527E+03 -0.13710999074E+02  0.13711184765E+03  0.00000000000E+00 0. -1.
</event>
<event>
 7    1  0.6443388E-006  0.8878725E+02  0.7818608E-02  0.1376995E+00
          2   -1    0    0  502    0  0.00000000000E+00  0.00000000000E+00  0.20570737877E+03  0.20570737877E+03  0.00000000000E+00 0. -1.
          1   -1    0    0  501    0 -0.00000000000E+00 -0.00000000000E+00 -0.15283626017E+03  0.15283626017E+03  0.00000000000E+00 0. -1.
         25    2    1    2    0    0  0.82486976855E+02 -0.20954533718E+02  0.10710237649E+03  0.18530910318E+03  0.12500140335E+03 0.  0.
          2    1    1    2  501    0 -0.93506977262E+01 -0.47047353086E+02 -0.55505797384E+02  0.73360633337E+02  0.00000000000E+00 0. -1.
          1    1    1    2  502    0 -0.73136279129E+02  0.68001886804E+02  0.12745394978E+01  0.99873902420E+02  0.00000000000E+00 0. -1.
         22    1    3    3    0    0 -0.10432062098E+01  0.44681897577E+02  0.26504445746E+02  0.51961965846E+02  0.00000000000E+00 0.  1.
         22    1    3    3    0    0  0.83530183065E+02 -0.65636431295E+02  0.80597930744E+02  0.13334713734E+03  0.00000000000E+00 0.  1.
</event>
<event>
 7    1  0.6443388E-006  0.8571436E+02  0.7818608E-02  0.1419688E+00
          2   -1    0    0  502    0  0.00000000000E+00  0.00000000000E+00  0.13158879405E+04  0.13158879405E+04  0.00000000000E+00 0. -1.
          1   -1    0    0  501    0 -0.00000000000E+00 -0.00000000000E+00 -0.16433975687E+03  0.16433975687E+03  0.00000000000E+00 0. -1.
         25    2    1    2    0    0  0.25845702786E+02 -0.56998793108E+02  0.78883072599E+02  0.16051233595E+03  0.12499923233E+03 0.  0.
          2    1    1    2  501    0 -0.19537399012E+02 -0.29524255843E+02 -0.11937931862E+03  0.12451832538E+03  0.00000000000E+00 0. -1.
          1    1    1    2  502    0 -0.63083037736E+01  0.86523048951E+02  0.11920444297E+04  0.11951970361E+04  0.00000000000E+00 0. -1.
         22    1    3    3    0    0  0.90465401599E+01 -0.71510426787E+01 -0.34039097997E+02  0.35939358546E+02  0.00000000000E+00 0. -1.
         22    1    3    3    0    0  0.16799162626E+02 -0.49847750429E+02  0.11292217060E+03  0.12457297741E+03  0.00000000000E+00 0. -1.
</event>
<event>
 7    1  0.6443388E-006  0.4760669E+02  0.7818608E-02  0.1552843E+00
          2   -1    0    0  502    0  0.00000000000E+00  0.00000000000E+00  0.27209855151E+03  0.27209855151E+03  0.00000000000E+00 0. -1.
          1   -1    0    0  501    0 -0.00000000000E+00 -0.00000000000E+00 -0.10803831419E+03  0.10803831419E+03  0.00000000000E+00 0. -1.
         25    2    1    2    0    0  0.32717011877E+02  0.40541473037E+02  0.22306461384E+02  0.13724825304E+03  0.12500196335E+03 0.  0.
          2    1    1    2  501    0  0.11352379665E+02 -0.22319425078E+02 -0.44263644182E+02  0.50855712129E+02  0.00000000000E+00 0. -1.
          1    1    1    2  502    0 -0.44069391542E+02 -0.18222047959E+02  0.18601742012E+03  0.19203290054E+03  0.00000000000E+00 0. -1.
         22    1    3    3    0    0  0.78590110799E+02  0.76213781340E+01  0.12676539741E+02  0.79969904213E+02  0.00000000000E+00 0.  1.
         22    1    3    3    0    0 -0.45873098922E+02  0.32920094903E+02  0.96299216436E+01  0.57278348824E+02  0.00000000000E+00 0.  1.
</event>
<event>
 7    1  0.6443388E-006  0.2597462E+03  0.7818608E-02  0.1136887E+00
          2   -1    0    0  502    0  0.00000000000E+00  0.00000000000E+00  0.17729902034E+04  0.17729902034E+04  0.00000000000E+00 0. -1.
          1   -1    0    0  501    0 -0.00000000000E+00 -0.00000000000E+00 -0.85638368033E+03  0.85638368033E+03  0.00000000000E+00 0. -1.
         25    2    1    2    0    0  0.15273918732E+03  0.84001459711E+02  0.37301361702E+03  0.43029077428E+03  0.12500194949E+03 0.  0.
          2    1    1    2  501    0  0.17096381582E+03 -0.55194081553E+02 -0.79836844245E+03  0.81833195151E+03  0.00000000000E+00 0. -1.
          1    1    1    2  502    0 -0.32370300314E+03 -0.28807378158E+02  0.13419613485E+04  0.13807511579E+04  0.00000000000E+00 0. -1.
         22    1    3    3    0    0  0.79051969699E+02  0.40289214144E+02  0.63423590781E+02  0.10906413965E+03  0.00000000000E+00 0.  1.
         22    1    3    3    0    0  0.73687217617E+02  0.43712245567E+02  0.30959002624E+03  0.32122663463E+03  0.00000000000E+00 0.  1.
</event>
<event>
 7    1  0.6443388E-006  0.6128715E+02  0.7818608E-02  0.1517860E+00
          2   -1    0    0  502    0  0.00000000000E+00  0.00000000000E+00  0.14273064381E+04  0.14273064381E+04  0.00000000000E+00 0. -1.
          1   -1    0    0  501    0 -0.00000000000E+00 -0.00000000000E+00 -0.28894913536E+03  0.28894913536E+03  0.00000000000E+00 0. -1.
         25    2    1    2    0    0 -0.42924787335E+02 -0.68285372936E+02  0.81003917037E+01  0.14898626138E+03  0.12500344079E+03 0.  0.
          2    1    1    2  501    0  0.21576139752E+02  0.56345910964E+02 -0.21422774500E+03  0.22256216708E+03  0.00000000000E+00 0. -1.
          1    1    1    2  502    0  0.21348647583E+02  0.11939461972E+02  0.13444846561E+04  0.13447071450E+04  0.00000000000E+00 0. -1.
         22    1    3    3    0    0 -0.84988856203E+02 -0.64077564585E+02  0.76057947524E+01  0.10670936264E+03  0.00000000000E+00 0.  1.
         22    1    3    3    0    0  0.42064068868E+02 -0.42078083505E+01  0.49459695127E+00  0.42276898739E+02  0.00000000000E+00 0.  1.
</event>
<event>
 7    1  0.6443388E-006  0.4816937E+02  0.7818608E-02  0.1480686E+00
          2   -1    0    0  502    0  0.00000000000E+00  0.00000000000E+00  0.13060655405E+03  0.13060655405E+03  0.00000000000E+00 0. -1.
          1   -1    0    0  501    0 -0.00000000000E+00 -0.00000000000E+00 -0.22059855951E+03  0.22059855951E+03  0.00000000000E+00 0. -1.
         25    2    1    2    0    0 -0.28069339851E+02  0.77271005037E+02 -0.81886687567E+02  0.17056606048E+03  0.12501462045E+03 0.  0.
          2    1    1    2  501    0  0.23614072222E+02 -0.37328264280E+02 -0.83917615596E+02  0.94832430784E+02  0.00000000000E+00 0. -1.
          1    1    1    2  502    0  0.44552676288E+01 -0.39942740756E+02  0.75812297696E+02  0.85806622301E+02  0.00000000000E+00 0. -1.
         22    1    3    3    0    0 -0.74138810354E+02  0.52855468141E+02 -0.75021520372E+02  0.11797665969E+03  0.00000000000E+00 0.  1.
         22    1    3    3    0    0  0.46069470503E+02  0.24415536896E+02 -0.68651671949E+01  0.52589400785E+02  0.00000000000E+00 0.  1.
</event>
<event>
 7    1  0.6443388E-006  0.3640055E+02  0.7818608E-02  0.1594224E+00
          2   -1    0    0  502    0  0.00000000000E+00  0.00000000000E+00  0.47366392058E+03  0.47366392058E+03  0.00000000000E+00 0. -1.
          1   -1    0    0  501    0 -0.00000000000E+00 -0.00000000000E+00 -0.15833088635E+04  0.15833088635E+04  0.00000000000E+00 0. -1.
         25    2    1    2    0    0 -0.25044900281E+02  0.21841534026E+01 -0.81092990937E+03  0.82089330156E+03  0.12500590818E+03 0.  0.
          2    1    1    2  501    0  0.30657557274E+02  0.22495041618E+02 -0.76658397588E+03  0.76752648475E+03  0.00000000000E+00 0. -1.
          1    1    1    2  502    0 -0.56126569925E+01 -0.24679195020E+02  0.46786894229E+03  0.46855299780E+03  0.00000000000E+00 0. -1.
         22    1    3    3    0    0  0.26646428900E+02  0.36201360725E+02 -0.58245145784E+03  0.58418342276E+03  0.00000000000E+00 0. -1.
         22    1    3    3    0    0 -0.51691329181E+02 -0.34017207322E+02 -0.22847845153E+03  0.23670987880E+03  0.00000000000E+00 0. -1.
</event>
<event>
 7    1  0.6443388E-006  0.9366818E+02  0.7818608E-02  0.1310768E+00
          2   -1    0    0  502    0  0.00000000000E+00  0.00000000000E+00  0.94004418660E+03  0.94004418660E+03  0.00000000000E+00 0. -1.
          1   -1    0    0  501    0 -0.00000000000E+00 -0.00000000000E+00 -0.53012185483E+03  0.53012185483E+03  0.00000000000E+00 0. -1.
         25    2    1    2    0    0  0.14335120289E+03 -0.38061821817E+02  0.13341496882E+03  0.23541610380E+03  0.12499167322E+03 0.  0.
          2    1    1    2  501    0 -0.90063403376E+02 -0.22212681776E+02 -0.47245678894E+03  0.48147714097E+03  0.00000000000E+00 0. -1.
          1    1    1    2  502    0 -0.53287799518E+02  0.60274503594E+02  0.74896415190E+03  0.75327279666E+03  0.00000000000E+00 0. -1.
         22    1    3    3    0    0  0.50567477586E+02  0.15589551362E+02  0.11510349436E+03  0.12668432545E+03  0.00000000000E+00 0. -1.
         22    1    3    3    0    0  0.92783725308E+02 -0.53651373179E+02  0.18311474452E+02  0.10873177835E+03  0.00000000000E+00 0. -1.
</event>
<event>
 7    1  0.6443388E-006  0.1204120E+03  0.7818608E-02  0.1286118E+00
          2   -1    0    0  502    0  0.00000000000E+00  0.00000000000E+00  0.99575234021E+03  0.99575234021E+03  0.00000000000E+00 0. -1.
          1   -1    0    0  501    0 -0.00000000000E+00 -0.00000000000E+00 -0.39463627756E+02  0.39463627756E+02  0.00000000000E+00 0. -1.
         25    2    1    2    0    0 -0.12445081435E+03  0.93267585706E+02  0.51749771625E+03  0.55463088010E+03  0.12499871637E+03 0.  0.
          2    1    1    2  501    0  0.78415581007E+02  0.53044457453E+01  0.11739475977E+03  0.14127515745E+03  0.00000000000E+00 0. -1.
          1    1    1    2  502    0  0.46035233346E+02 -0.98572031451E+02  0.32139623643E+03  0.33930993043E+03  0.00000000000E+00 0. -1.
         22    1    3    3    0    0 -0.22563224407E+02  0.72119876654E+02  0.10598966701E+03  0.13016983221E+03  0.00000000000E+00 0.  1.
         22    1    3    3    0    0 -0.10188758995E+03  0.21147709051E+02  0.41150804924E+03  0.42446104789E+03  0.00000000000E+00 0.  1.
</event>
<event>
 7    1  0.6443388E-006  0.2170914E+03  0.7818608E-02  0.1353064E+00
          2   -1    0    0  502    0  0.00000000000E+00  0.00000000000E+00  0.11119327977E+04  0.11119327977E+04  0.00000000000E+00 0. -1.
          1   -1    0    0  501    0 -0.00000000000E+00 -0.00000000000E+00 -0.41093617762E+03  0.41093617762E+03  0.00000000000E+00 0. -1.
         25    2    1    2    0    0 -0.11972836914E+03 -0.17351278529E+03  0.85601076575E+02  0.25960251815E+03  0.12499741632E+03 0.  0.
          2    1    1    2  501    0  0.10453815421E+03  0.19203171712E+03 -0.28686494967E+03  0.36068809991E+03  0.00000000000E+00 0. -1.
          1    1    1    2  502    0  0.15190214934E+02 -0.18518931838E+02  0.90226049314E+03  0.90257835723E+03  0.00000000000E+00 0. -1.
         22    1    3    3    0    0 -0.61935803580E+02 -0.90385291430E+02 -0.22110552933E+02  0.11177844704E+03  0.00000000000E+00 0.  1.
         22    1    3    3    0    0 -0.57792565560E+02 -0.83127493856E+02  0.10771162951E+03  0.14782407111E+03  0.00000000000E+00 0.  1.
</event>
<event>
 7    1  0.6443388E-006  0.1688587E+03  0.7818608E-02  0.1322811E+00
          2   -1    0    0  502    0  0.00000000000E+00  0.00000000000E+00  0.21980841869E+03  0.21980841869E+03  0.00000000000E+00 0. -1.
          1   -1    0    0  501    0 -0.00000000000E+00 -0.00000000000E+00 -0.36095590883E+03  0.36095590883E+03  0.00000000000E+00 0. -1.
         25    2    1    2    0    0 -0.14896416786E+03 -0.49353716824E+02 -0.12915684970E+03  0.23859961508E+03  0.12498868677E+03 0.  0.
          2    1    1    2  501    0  0.15731638593E+03  0.88527304803E+02 -0.12678046956E+03  0.22058743491E+03  0.00000000000E+00 0. -1.
          1    1    1    2  502    0 -0.83522180715E+01 -0.39173587980E+02  0.11478982912E+03  0.12157727753E+03  0.00000000000E+00 0. -1.
         22    1    3    3    0    0 -0.10562167843E+03 -0.40020799396E+01 -0.13949975250E+03  0.17502038894E+03  0.00000000000E+00 0.  1.
         22    1    3    3    0    0 -0.43342489433E+02 -0.45351636884E+02  0.10342902798E+02  0.63579226141E+02  0.00000000000E+00 0.  1.
</event>
<event>
 7    1  0.6443388E-006  0.1421741E+03  0.7818608E-02  0.1377056E+00
          2   -1    0    0  502    0  0.00000000000E+00  0.00000000000E+00  0.10074252025E+04  0.10074252025E+04  0.00000000000E+00 0. -1.
          1   -1    0    0  501    0 -0.00000000000E+00 -0.00000000000E+00 -0.31754609971E+03  0.31754609971E+03  0.00000000000E+00 0. -1.
         25    2    1    2    0    0 -0.11743108793E+03 -0.33001029485E+02 -0.13973257439E+03  0.22366775836E+03  0.12499178142E+03 0.  0.
          2    1    1    2  501    0 -0.11950324104E+02 -0.27452259900E+02 -0.12883899190E+03  0.13227215373E+03  0.00000000000E+00 0. -1.
          1    1    1    2  502    0  0.12938141203E+03  0.60453289385E+02  0.95845066904E+03  0.96903139008E+03  0.00000000000E+00 0. -1.
         22    1    3    3    0    0  0.11595768029E+01 -0.35254981429E+02  0.59851525107E+01  0.35778211030E+02  0.00000000000E+00 0.  1.
         22    1    3    3    0    0 -0.11859066473E+03  0.22539519443E+01 -0.14571772690E+03  0.18788954733E+03  0.00000000000E+00 0.  1.
</event>
<event>
 7    1  0.6443388E-006  0.1486073E+03  0.7818608E-02  0.1387053E+00
          2   -1    0    0  502    0  0.00000000000E+00  0.00000000000E+00  0.58043181960E+02  0.58043181960E+02  0.00000000000E+00 0. -1.
          1   -1    0    0  501    0 -0.00000000000E+00 -0.00000000000E+00 -0.10160909619E+04  0.10160909619E+04  0.00000000000E+00 0. -1.
         25    2    1    2    0    0 -0.64951391332E+02  0.12711768481E+03 -0.22498502802E+03  0.29431473532E+03  0.12500124626E+03 0.  0.
          2    1    1    2  501    0  0.90395007026E+02 -0.12004493823E+03 -0.73783577296E+03  0.75298318199E+03  0.00000000000E+00 0. -1.
          1    1    1    2  502    0 -0.25443615694E+02 -0.70727465763E+01  0.47730210760E+01  0.26836226521E+02  0.00000000000E+00 0. -1.
         22    1    3    3    0    0 -0.61682309619E+02 -0.82650145915E+00 -0.76960048715E+02  0.98631838281E+02  0.00000000000E+00 0.  1.
         22    1    3    3    0    0 -0.32690817133E+01  0.12794418627E+03 -0.14802497931E+03  0.19568289704E+03  0.00000000000E+00 0.  1.
</event>
<event>
 7    1  0.6443388E-006  0.1901224E+03  0.7818608E-02  0.1368392E+00
          2   -1    0    0  502    0  0.00000000000E+00  0.00000000000E+00  0.24353554916E+04  0.24353554916E+04  0.00000000000E+00 0. -1.
          1   -1    0    0  501    0 -0.00000000000E+00 -0.00000000000E+00 -0.74237605559E+02  0.74237605559E+02  0.00000000000E+00 0. -1.
         25    2    1    2    0    0  0.32731415197E+02  0.20044893224E+03  0.56179152932E+03  0.61031582876E+03  0.12499827374E+03 0.  0.
          2    1    1    2  501    0  0.14899423907E+02 -0.18875551646E+02 -0.42005374296E+02  0.48401763939E+02  0.00000000000E+00 0. -1.
          1    1    1    2  502    0 -0.47630839104E+02 -0.18157338059E+03  0.18413317310E+04  0.18508755045E+04  0.00000000000E+00 0. -1.
         22    1    3    3    0    0  0.79759407215E+02  0.10456487995E+03  0.32172147492E+03  0.34756306562E+03  0.00000000000E+00 0. -1.
         22    1    3    3    0    0 -0.47027992018E+02  0.95884052285E+02  0.24007005440E+03  0.26275276314E+03  0.00000000000E+00 0. -1.
</event>
<event>
 7    1  0.6443388E-006  0.6670136E+02  0.7818608E-02  0.1461147E+00
          2   -1    0    0  502    0  0.00000000000E+00  0.00000000000E+00  0.45594437968E+03  0.45594437968E+03  0.00000000000E+00 0. -1.
          1   -1    0    0  501    0 -0.00000000000E+00 -0.00000000000E+00 -0.42089280408E+02  0.42089280408E+02  0.00000000000E+00 0. -1.
         25    2    1    2    0    0 -0.30891850856E+02  0.40490386017E+02  0.13032803751E+03  0.18762784245E+03  0.12500012837E+03 0.  0.
          2    1    1    2  501    0  0.34954425421E+02 -0.73620624001E+02  0.13109647171E+03  0.15436350938E+03  0.00000000000E+00 0. -1.
          1    1    1    2  502    0 -0.40625745654E+01  0.33130237984E+02  0.15243059006E+03  0.15604230826E+03  0.00000000000E+00 0. -1.
         22    1    3    3    0    0  0.35974953873E+02  0.55721092443E+02  0.61005291758E+02  0.90114832695E+02  0.00000000000E+00 0.  1.
         22    1    3    3    0    0 -0.66866804729E+02 -0.15230706426E+02  0.69322745753E+02  0.97513009756E+02  0.00000000000E+00 0.  1.
</event>
<event>
 7    1  0.6443388E-006  0.1812569E+03  0.7818608E-02  0.1259019E+00
          2   -1    0    0  502    0  0.00000000000E+00  0.00000000000E+00  0.18636763390E+03  0.18636763390E+03  0.00000000000E+00 0. -1.
          1   -1    0    0  501    0 -0.00000000000E+00 -0.00000000000E+00 -0.34266865710E+04  0.34266865710E+04  0.00000000000E+00 0. -1.
         25    2    1    2    0    0  0.21086736272E+03 -0.41299315709E+02 -0.27383800217E+03  0.36984192492E+03  0.12500047943E+03 0.  0.
          2    1    1    2  501    0 -0.54326979690E+02 -0.40533495426E+02 -0.30479407965E+04  0.30486943900E+04  0.00000000000E+00 0. -1.
          1    1    1    2  502    0 -0.15654038303E+03  0.81832811135E+02  0.81459861496E+02  0.19451789001E+03  0.00000000000E+00 0. -1.
         22    1    3    3    0    0  0.22495043963E+03 -0.24356818041E+02 -0.25437638790E+03  0.34044573958E+03  0.00000000000E+00 0. -1.
         22    1    3    3    0    0 -0.14083076914E+02 -0.16942497668E+02 -0.19461614261E+02  0.29396185335E+02  0.00000000000E+00 0. -1.
</event>
<event>
 7    1  0.6443388E-006  0.6843130E+02  0.7818608E-02  0.1365997E+00
          2   -1    0    0  502    0  0.00000000000E+00  0.00000000000E+00  0.77181968096E+03  0.77181968096E+03  0.00000000000E+00 0. -1.
          1   -1    0    0  501    0 -0.00000000000E+00 -0.00000000000E+00 -0.23183965286E+03  0.23183965286E+03  0.00000000000E+00 0. -1.
         25    2    1    2    0    0  0.41589323695E+02 -0.67053937435E+02  0.35925878935E+02  0.15212139351E+03  0.12499738884E+03 0.  0.
          2    1    1    2  501    0  0.27093211345E+02  0.62839485578E+02 -0.16517034748E+03  0.17878502939E+03  0.00000000000E+00 0. -1.
          1    1    1    2  502    0 -0.68682535040E+02  0.42144518564E+01  0.66922449665E+03  0.67275291091E+03  0.00000000000E+00 0. -1.
         22    1    3    3    0    0 -0.13374294539E+02  0.21469261824E+02 -0.21454933436E+02  0.33167983454E+02  0.00000000000E+00 0. -1.
         22    1    3    3    0    0  0.54963618234E+02 -0.88523199259E+02  0.57380812371E+02  0.11895341006E+03  0.00000000000E+00 0. -1.
</event>
<event>
 7    1  0.6443388E-006  0.6670282E+02  0.7818608E-02  0.1426541E+00
          2   -1    0    0  502    0  0.00000000000E+00  0.00000000000E+00  0.78604033341E+03  0.78604033341E+03  0.00000000000E+00 0. -1.
          1   -1    0    0  501    0 -0.00000000000E+00 -0.00000000000E+00 -0.87849605305E+03  0.87849605305E+03  0.00000000000E+00 0. -1.
         25    2    1    2    0    0 -0.47114840708E+02 -0.92337272728E+02 -0.10366937199E+02  0.16272297140E+03  0.12500124753E+03 0.  0.
          2    1    1    2  501    0  0.14050981775E+02  0.64582652906E+02 -0.78991338855E+03  0.79267364695E+03  0.00000000000E+00 0. -1.
          1    1    1    2  502    0  0.33063858933E+02  0.27754619822E+02  0.70782460611E+03  0.70913976810E+03  0.00000000000E+00 0. -1.
         22    1    3    3    0    0 -0.41103988751E+02 -0.33188336206E+02 -0.63767184219E+02  0.82808558341E+02  0.00000000000E+00 0. -1.
         22    1    3    3    0    0 -0.60108519572E+01 -0.59148936522E+02  0.53400247020E+02  0.79914413060E+02  0.00000000000E+00 0. -1.
</event>
<event>
 7    1  0.6443388E-006  0.5166270E+02  0.7818608E-02  0.1483088E+00
          2   -1    0    0  502    0  0.00000000000E+00  0.00000000000E+00  0.22262620495E+04  0.22262620495E+04  0.00000000000E+00 0. -1.
          1   -1    0    0  501    0 -0.00000000000E+00 -0.00000000000E+00 -0.16000170505E+03  0.16000170505E+03  0.00000000000E+00 0. -1.
         25    2    1    2    0    0  0.41004220170E+02  0.53445942077E+02  0.22753009293E+03  0.26820292592E+03  0.12500020595E+03 0.  0.
          2    1    1    2  501    0 -0.48544780252E+02 -0.17381527975E+02 -0.13472838692E+03  0.14425828034E+03  0.00000000000E+00 0. -1.
          1    1    1    2  502    0  0.75405600826E+01 -0.36064414102E+02  0.19734586384E+04  0.19738025483E+04  0.00000000000E+00 0. -1.
         22    1    3    3    0    0 -0.14759017189E+01  0.41663116650E+02  0.21946221174E+03  0.22338678555E+03  0.00000000000E+00 0.  1.
         22    1    3    3    0    0  0.42480121889E+02  0.11782825427E+02  0.80678811838E+01  0.44816140368E+02  0.00000000000E+00 0.  1.
</event>
<event>
 7    1  0.6443388E-006  0.3363982E+02  0.7818608E-02  0.1596186E+00
          2   -1    0    0  502    0  0.00000000000E+00  0.00000000000E+00  0.15865352063E+04  0.15865352063E+04  0.00000000000E+00 0. -1.
          1   -1    0    0  501    0 -0.00000000000E+00 -0.00000000000E+00 -0.29236207664E+02  0.29236207664E+02  0.00000000000E+00 0. -1.
         25    2    1    2    0    0  0.33236205816E+02 -0.20655867244E+02  0.11391420338E+04  0.11466477449E+04  0.12500066976E+03 0.  0.
          2    1    1    2  501    0 -0.24094040536E+02 -0.12324355628E+02 -0.17432576240E+02  0.32191726350E+02  0.00000000000E+00 0. -1.
          1    1    1    2  502    0 -0.91421652800E+01  0.32980222873E+02  0.43558954107E+03  0.43693194273E+03  0.00000000000E+00 0. -1.
         22    1    3    3    0    0  0.36802671653E+02 -0.70662603030E+02  0.62215465319E+03  0.62723524501E+03  0.00000000000E+00 0. -1.
         22    1    3    3    0    0 -0.35664658370E+01  0.50006735786E+02  0.51698738060E+03  0.51941249986E+03  0.00000000000E+00 0. -1.
</event>
<event>
 7    1  0.6443388E-006  0.6011888E+02  0.7818608E-02  0.1438738E+00
          2   -1    0    0  502    0  0.00000000000E+00  0.00000000000E+00  0.32532486833E+04  0.32532486833E+04  0.00000000000E+00 0. -1.
          1   -1    0    0  501    0 -0.00000000000E+00 -0.00000000000E+00 -0.29487804165E+03  0.29487804165E+03  0.00000000000E+00 0. -1.
         25    2    1    2    0    0 -0.19679416847E+02 -0.51139211863E+00  0.56178930992E+03  0.57586441173E+03  0.12500020392E+03 0.  0.
          2    1    1    2  501    0 -0.40497962515E+02  0.16370579693E+02 -0.28582027270E+03  0.28913890975E+03  0.00000000000E+00 0. -1.
          1    1    1    2  502    0  0.60177379362E+02 -0.15859187575E+02  0.26824016044E+04  0.26831234035E+04  0.00000000000E+00 0. -1.
         22    1    3    3    0    0 -0.20056830076E+02  0.12738076381E+02  0.56210389790E+03  0.56260583632E+03  0.00000000000E+00 0.  1.
         22    1    3    3    0    0  0.37741322887E+00 -0.13249468500E+02 -0.31458797922E+00  0.13258575408E+02  0.00000000000E+00 0.  1.
</event>
<event>
 7    1  0.6443388E-006  0.7972742E+02  0.7818608E-02  0.1503638E+00
          2   -1    0    0  502    0  0.00000000000E+00  0.00000000000E+00  0.12064887822E+04  0.12064887822E+04  0.00000000000E+00 0. -1.
          1   -1    0    0  501    0 -0.00000000000E+00 -0.00000000000E+00 -0.94600522773E+03  0.94600522773E+03  0.00000000000E+00 0. -1.
         25    2    1    2    0    0 -0.41358937850E+02  0.89074010826E+02  0.78929863352E+03  0.80514790560E+03  0.12500430340E+03 0.  0.
          2    1    1    2  501    0  0.40930369298E+02 -0.68374643944E+02 -0.93612480173E+03  0.93951052760E+03  0.00000000000E+00 0. -1.
          1    1    1    2  502    0  0.42856855225E+00 -0.20699366882E+02  0.40730972262E+03  0.40783557668E+03  0.00000000000E+00 0. -1.
         22    1    3    3    0    0 -0.39974620595E+01  0.11374510193E+03  0.59071919336E+03  0.60158382069E+03  0.00000000000E+00 0. -1.
         22    1    3    3    0    0 -0.37361475791E+02 -0.24671091102E+02  0.19857944017E+03  0.20356408491E+03  0.00000000000E+00 0. -1.
</event>
<event>
 7    1  0.6443388E-006  0.8612238E+02  0.7818608E-02  0.1392229E+00
          2   -1    0    0  502    0  0.00000000000E+00  0.00000000000E+00  0.21495339412E+04  0.21495339412E+04  0.00000000000E+00 0. -1.
          1   -1    0    0  501    0 -0.00000000000E+00 -0.00000000000E+00 -0.21230029760E+04  0.21230029760E+04  0.00000000000E+00 0. -1.
         25    2    1    2    0    0  0.29857171281E+01 -0.12960397204E+03  0.13200380021E+04  0.13322658342E+04  0.12500328761E+03 0.  0.
          2    1    1    2  501    0 -0.50865247740E+01  0.85943310314E+02 -0.21154327186E+04  0.21171839108E+04  0.00000000000E+00 0. -1.
          1    1    1    2  502    0  0.21008076459E+01  0.43660661721E+02  0.82192568177E+03  0.82308717225E+03  0.00000000000E+00 0. -1.
         22    1    3    3    0    0  0.36040705969E+02 -0.79363959632E+01  0.61043307322E+03  0.61154759074E+03  0.00000000000E+00 0. -1.
         22    1    3    3    0    0 -0.33054988841E+02 -0.12166757607E+03  0.70960492884E+03  0.72071824342E+03  0.00000000000E+00 0. -1.
</event>
<event>
 7    1  0.6443388E-006  0.1751597E+03  0.7818608E-02  0.1218082E+00
          2   -1    0    0  502    0  0.00000000000E+00  0.00000000000E+00  0.19646549303E+03  0.19646549303E+03  0.00000000000E+00 0. -1.
          1   -1    0    0  501    0 -0.00000000000E+00 -0.00000000000E+00 -0.31906118121E+04  0.31906118121E+04  0.00000000000E+00 0. -1.
         25    2    1    2    0    0  0.50231735156E+02  0.18700761437E+03 -0.10397959822E+04  0.10650334050E+04  0.12500157674E+03 0.  0.
          2    1    1    2  501    0  0.80439792080E+02 -0.69664651210E+02 -0.20945929178E+04  0.20972942605E+04  0.00000000000E+00 0. -1.
          1    1    1    2  502    0 -0.13067152724E+03 -0.11734296316E+03  0.14024258088E+03  0.22474963966E+03  0.00000000000E+00 0. -1.
         22    1    3    3    0    0  0.31335781125E+01  0.20296635259E+01  0.30755570799E+01  0.48371372905E+01  0.00000000000E+00 0.  1.
         22    1    3    3    0    0  0.47098157043E+02  0.18497795085E+03 -0.10428715393E+04  0.10601962678E+04  0.00000000000E+00 0.  1.
</event>
<event>
 7    1  0.6443388E-006  0.6966191E+02  0.7818608E-02  0.1387835E+00
          2   -1    0    0  502    0  0.00000000000E+00  0.00000000000E+00  0.47843372212E+02  0.47843372212E+02  0.00000000000E+00 0. -1.
          1   -1    0    0  501    0 -0.00000000000E+00 -0.00000000000E+00 -0.12177768467E+04  0.12177768467E+04  0.00000000000E+00 0. -1.
         25    2    1    2    0    0  0.14770568444E+02 -0.26280841288E+02 -0.48355281723E+03  0.50035725114E+03  0.12500079762E+03 0.  0.
          2    1    1    2  501    0 -0.34521534966E+02 -0.44070693859E+02 -0.68984179591E+03  0.69210957646E+03  0.00000000000E+00 0. -1.
          1    1    1    2  502    0  0.19750966522E+02  0.70351535147E+02  0.34611386822E+01  0.73153391289E+02  0.00000000000E+00 0. -1.
         22    1    3    3    0    0 -0.30424624758E+01 -0.19878165439E+02 -0.40905304607E+01  0.20521463851E+02  0.00000000000E+00 0. -1.
         22    1    3    3    0    0  0.17813030920E+02 -0.64026758492E+01 -0.47946228677E+03  0.47983578729E+03  0.00000000000E+00 0. -1.
</event>
<event>
 7    1  0.6443388E-006  0.1000863E+03  0.7818608E-02  0.1398389E+00
          2   -1    0    0  502    0  0.00000000000E+00  0.00000000000E+00  0.71827337769E+03  0.71827337769E+03  0.00000000000E+00 0. -1.
          1   -1    0    0  501    0 -0.00000000000E+00 -0.00000000000E+00 -0.71819420151E+03  0.71819420151E+03  0.00000000000E+00 0. -1.
         25    2    1    2    0    0  0.44420016213E+02  0.59918598769E+02 -0.17821446402E+02  0.14665609847E+03  0.12500812353E+03 0.  0.
          2    1    1    2  501    0 -0.82472923858E+01  0.34847512286E+02 -0.63151112299E+03  0.63252562431E+03  0.00000000000E+00 0. -1.
          1    1    1    2  502    0 -0.36172723827E+02 -0.94766111055E+02  0.64941174558E+03  0.65728585642E+03  0.00000000000E+00 0. -1.
         22    1    3    3    0    0  0.55840351277E+02  0.11237111545E+02 -0.58904782942E+02  0.81940166952E+02  0.00000000000E+00 0. -1.
         22    1    3    3    0    0 -0.11420335065E+02  0.48681487224E+02  0.41083336540E+02  0.64715931520E+02  0.00000000000E+00 0. -1.
</event>
<event>
 7    1  0.6443388E-006  0.4976045E+02  0.7818608E-02  0.1455543E+00
          2   -1    0    0  502    0  0.00000000000E+00  0.00000000000E+00  0.22295965157E+03  0.22295965157E+03  0.00000000000E+00 0. -1.
          1   -1    0    0  501    0 -0.00000000000E+00 -0.00000000000E+00 -0.28549001431E+03  0.28549001431E+03  0.00000000000E+00 0. -1.
         25    2    1    2    0    0 -0.15069514581E+02  0.25364654527E+02 -0.13304099366E+03  0.18491617040E+03  0.12499451233E+03 0.  0.
          2    1    1    2  501    0 -0.22150872157E+02 -0.53413076144E+02 -0.11689754011E+03  0.13041722556E+03  0.00000000000E+00 0. -1.
          1    1    1    2  502    0  0.37220386738E+02  0.28048421616E+02  0.18740817102E+03  0.19311626992E+03  0.00000000000E+00 0. -1.
         22    1    3    3    0    0 -0.18430144550E+02  0.17502457867E+02  0.19562507277E+02  0.32073321475E+02  0.00000000000E+00 0.  1.
         22    1    3    3    0    0  0.33606299683E+01  0.78621966602E+01 -0.15260350094E+03  0.15284284893E+03  0.00000000000E+00 0.  1.
</event>
<event>
 7    1  0.6443388E-006  0.7455688E+02  0.7818608E-02  0.1481416E+00
          2   -1    0    0  502    0  0.00000000000E+00  0.00000000000E+00  0.23707363626E+04  0.23707363626E+04  0.00000000000E+00 0. -1.
          1   -1    0    0  501    0 -0.00000000000E+00 -0.00000000000E+00 -0.21254103643E+02  0.21254103643E+02  0.00000000000E+00 0. -1.
         25    2    1    2    0    0  0.93735112556E+01  0.54568515971E+02  0.97806693004E+03  0.98757456356E+03  0.12499205290E+03 0.  0.
          2    1    1    2  501    0 -0.75714465955E+01  0.24698291257E+02 -0.44967560458E+01  0.26221235850E+02  0.00000000000E+00 0. -1.
          1    1    1    2  502    0 -0.18020646601E+01 -0.79266807227E+02  0.13759120850E+04  0.13781946669E+04  0.00000000000E+00 0. -1.
         22    1    3    3    0    0  0.18938905457E+02  0.85963759172E+02  0.45240573429E+03  0.46088978992E+03  0.00000000000E+00 0. -1.
         22    1    3    3    0    0 -0.95653942012E+01 -0.31395243202E+02  0.52566119575E+03  0.52668477364E+03  0.00000000000E+00 0. -1.
</event>
<event>
 7    1  0.6443388E-006  0.1047949E+03  0.7818608E-02  0.1369418E+00
          2   -1    0    0  502    0  0.00000000000E+00  0.00000000000E+00  0.21334069340E+04  0.21334069340E+04  0.00000000000E+00 0. -1.
          1   -1    0    0  501    0 -0.00000000000E+00 -0.00000000000E+00 -0.36027753373E+02  0.36027753373E+02  0.00000000000E+00 0. -1.
         25    2    1    2    0    0 -0.87513064081E+02 -0.16623540330E+02  0.81547274758E+03  0.82979340712E+03  0.12500567180E+03 0.  0.
          2    1    1    2  501    0 -0.22318337984E+02  0.37055933189E+02 -0.87708615055E+01  0.44138174027E+02  0.00000000000E+00 0. -1.
          1    1    1    2  502    0  0.10983140207E+03 -0.20432392859E+02  0.12906772945E+04  0.12955031062E+04  0.00000000000E+00 0. -1.
         22    1    3    3    0    0  0.24136552085E+02 -0.16136746697E+02  0.34645521674E+03  0.34766964916E+03  0.00000000000E+00 0. -1.
         22    1    3    3    0    0 -0.11164961617E+03 -0.48679363296E+00  0.46901753084E+03  0.48212375796E+03  0.00000000000E+00 0. -1.
</event>
<event>
 7    1  0.6443388E-006  0.8734140E+02  0.7818608E-02  0.1382927E+00
          2   -1    0    0  502    0  0.00000000000E+00  0.00000000000E+00  0.10405396106E+03  0.10405396106E+03  0.00000000000E+00 0. -1.
          1   -1    0    0  501    0 -0.00000000000E+00 -0.00000000000E+00 -0.49389620672E+03  0.49389620672E+03  0.00000000000E+00 0. -1.
         25    2    1    2    0    0  0.29758472363E+02 -0.10155329852E+03 -0.12719354766E+03  0.20736943546E+03  0.12500098031E+03 0.  0.
          2    1    1    2  501    0  0.27185089762E+02  0.37674867898E+02 -0.29534183101E+03  0.29897361409E+03  0.00000000000E+00 0. -1.
          1    1    1    2  502    0 -0.56943562125E+02  0.63878430625E+02  0.32693133007E+02  0.91607118241E+02  0.00000000000E+00 0. -1.
         22    1    3    3    0    0 -0.48437708713E+02 -0.25680859692E+02 -0.42730426138E+02  0.69509765486E+02  0.00000000000E+00 0.  1.
         22    1    3    3    0    0  0.78196181076E+02 -0.75872438831E+02 -0.84463121520E+02  0.13785966998E+03  0.00000000000E+00 0.  1.
</event>
<event>
 7    1  0.6443388E-006  0.7717881E+02  0.7818608E-02  0.1378387E+00
          2   -1    0    0  502    0  0.00000000000E+00  0.00000000000E+00  0.13433751472E+04  0.13433751472E+04  0.00000000000E+00 0. -1.
          1   -1    0    0  501    0 -0.00000000000E+00 -0.00000000000E+00 -0.50029995297E+02  0.50029995297E+02  0.00000000000E+00 0. -1.
         25    2    1    2    0    0 -0.37003623351E+02 -0.95530851382E+02  0.86521588112E+03  0.88018081912E+03  0.12499736670E+03 0.  0.
          2    1    1    2  501    0 -0.18727376416E+02  0.51242405582E+02 -0.21021747415E+02  0.58467192694E+02  0.00000000000E+00 0. -1.
          1    1    1    2  502    0  0.55730999766E+02  0.44288445800E+02  0.44915101822E+03  0.45475713071E+03  0.00000000000E+00 0. -1.
         22    1    3    3    0    0 -0.61788454534E+02 -0.84288353965E+02  0.37731062517E+03  0.39151711021E+03  0.00000000000E+00 0.  1.
         22    1    3    3    0    0  0.24784831184E+02 -0.11242497417E+02  0.48790525596E+03  0.48866370890E+03  0.00000000000E+00 0.  1.
</event>
<event>
 7    1  0.6443388E-006  0.1078193E+03  0.7818608E-02  0.1414215E+00
          2   -1    0    0  502    0  0.00000000000E+00  0.00000000000E+00  0.30540894690E+04  0.30540894690E+04  0.00000000000E+00 0. -1.
          1   -1    0    0  501    0 -0.00000000000E+00 -0.00000000000E+00 -0.95096326843E+03  0.95096326843E+03  0.00000000000E+00 0. -1.
         25    2    1    2    0    0 -0.12320928072E+03 -0.44906177643E+02  0.20501379737E+01  0.18118071235E+03  0.12500062326E+03 0.  0.
          2    1    1    2  501    0  0.28653448168E+02 -0.64038651200E+01 -0.86017075392E+03  0.86067168856E+03  0.00000000000E+00 0. -1.
          1    1    1    2  502    0  0.94555832551E+02  0.51310042764E+02  0.29612468165E+04  0.29632003365E+04  0.00000000000E+00 0. -1.
         22    1    3    3    0    0 -0.14376168487E+03 -0.25937779766E+02 -0.17398594347E+02  0.14711526617E+03  0.00000000000E+00 0. -1.
         22    1    3    3    0    0  0.20552404151E+02 -0.18968397877E+02  0.19448732320E+02  0.34065446178E+02  0.00000000000E+00 0. -1.
</event>
<event>
 7    1  0.6443388E-006  0.8881687E+02  0.7818608E-02  0.1310612E+00
          2   -1    0    0  502    0  0.00000000000E+00  0.00000000000E+00  0.89743464558E+03  0.89743464558E+03  0.00000000000E+00 0. -1.
          1   -1    0    0  501    0 -0.00000000000E+00 -0.00000000000E+00 -0.31136539986E+03  0.31136539986E+03  0.00000000000E+00 0. -1.
         25    2    1    2    0    0  0.72874854383E+02 -0.68905783134E+01  0.11323007825E+03  0.18385627135E+03  0.12499541361E+03 0.  0.
          2    1    1    2  501    0 -0.34316633764E+02 -0.77728598836E+02 -0.26653220570E+03  0.27974771332E+03  0.00000000000E+00 0. -1.
          1    1    1    2  502    0 -0.38558220619E+02  0.84619177150E+02  0.73937137317E+03  0.74519606076E+03  0.00000000000E+00 0. -1.
         22    1    3    3    0    0  0.22798596086E+01 -0.46020389734E+02  0.16025575019E+01  0.46104687632E+02  0.00000000000E+00 0.  1.
         22    1    3    3    0    0  0.70594994775E+02  0.39129811420E+02  0.11162752075E+03  0.13775158372E+03  0.00000000000E+00 0.  1.
</event>
<event>
 7    1  0.6443388E-006  0.9579890E+02  0.7818608E-02  0.1313703E+00
          2   -1    0    0  502    0  0.00000000000E+00  0.00000000000E+00  0.51150521946E+03  0.51150521946E+03  0.00000000000E+00 0. -1.
          1   -1    0    0  501    0 -0.00000000000E+00 -0.00000000000E+00 -0.40849626132E+03  0.40849626132E+03  0.00000000000E+00 0. -1.
         25    2    1    2    0    0 -0.16112378843E+03  0.45031868345E+02 -0.12265876371E+02  0.20919832933E+03  0.12499897963E+03 0.  0.
          2    1    1    2  501    0  0.76116502081E+02 -0.86157727051E+01 -0.28750911166E+03  0.29753897680E+03  0.00000000000E+00 0. -1.
          1    1    1    2  502    0  0.85007286349E+02 -0.36416095640E+02  0.40278394617E+03  0.41326417465E+03  0.00000000000E+00 0. -1.
         22    1    3    3    0    0  0.10841618952E+02  0.17471262212E+02  0.23686555130E+02  0.31366201535E+02  0.00000000000E+00 0. -1.
         22    1    3    3    0    0 -0.17196540738E+03  0.27560606132E+02 -0.35952431501E+02  0.17783212780E+03  0.00000000000E+00 0. -1.
</event>
<event>
 7    1  0.6443388E-006  0.1360742E+03  0.7818608E-02  0.1369901E+00
          2   -1    0    0  502    0  0.00000000000E+00  0.00000000000E+00  0.24584590034E+03  0.24584590034E+03  0.00000000000E+00 0. -1.
          1   -1    0    0  501    0 -0.00000000000E+00 -0.00000000000E+00 -0.28170387545E+03  0.28170387545E+03  0.00000000000E+00 0. -1.
         25    2    1    2    0    0 -0.51549834993E+02 -0.10020117589E+03  0.24244404889E+02  0.17003171787E+03  0.12500133109E+03 0.  0.
          2    1    1    2  501    0  0.79788157574E+02  0.11762533089E+03 -0.18214891989E+03  0.23104133304E+03  0.00000000000E+00 0. -1.
          1    1    1    2  502    0 -0.28238322581E+02 -0.17424154995E+02  0.12204653988E+03  0.12647672488E+03  0.00000000000E+00 0. -1.
         22    1    3    3    0    0 -0.40585370182E+02  0.65259220471E+01  0.44789386852E+02  0.60793495589E+02  0.00000000000E+00 0.  1.
         22    1    3    3    0    0 -0.10964464812E+02 -0.10672709794E+03 -0.20544981962E+02  0.10923822228E+03  0.00000000000E+00 0.  1.
</event>
<event>
 7    1  0.6443388E-006  0.1428585E+03  0.7818608E-02  0.1221053E+00
          2   -1    0    0  502    0  0.00000000000E+00  0.00000000000E+00  0.68498535084E+03  0.68498535084E+03  0.00000000000E+00 0. -1.
          1   -1    0    0  501    0 -0.00000000000E+00 -0.00000000000E+00 -0.37599460405E+03  0.37599460405E+03  0.00000000000E+00 0. -1.
         25    2    1    2    0    0  0.82825372492E+02 -0.71817331133E+02  0.37321771539E+03  0.40857520271E+03  0.12499784721E+03 0.  0.
          2    1    1    2  501    0  0.99414498330E+02 -0.78165867033E+02 -0.29583112217E+03  0.32172845397E+03  0.00000000000E+00 0. -1.
          1    1    1    2  502    0 -0.18223987082E+03  0.14998319817E+03  0.23160415357E+03  0.33067629822E+03  0.00000000000E+00 0. -1.
         22    1    3    3    0    0 -0.79840936411E+01  0.21002568462E+02  0.13678067874E+02  0.26304812754E+02  0.00000000000E+00 0. -1.
         22    1    3    3    0    0  0.90809466133E+02 -0.92819899595E+02  0.35953964751E+03  0.38227038995E+03  0.00000000000E+00 0. -1.
</event>
<event>
 7    1  0.6443388E-006  0.3257891E+03  0.7818608E-02  0.1214583E+00
          2   -1    0    0  502    0  0.00000000000E+00  0.00000000000E+00  0.31262040722E+04  0.31262040722E+04  0.00000000000E+00 0. -1.
          1   -1    0    0  501    0 -0.00000000000E+00 -0.00000000000E+00 -0.44797534284E+03  0.44797534284E+03  0.00000000000E+00 0. -1.
         25    2    1    2    0    0 -0.75867101013E+02  0.25922393905E+03  0.16583479264E+04  0.16848430496E+04  0.12500155687E+03 0.  0.
          2    1    1    2  501    0  0.10647740672E+03 -0.31009030053E+03 -0.37218851964E+03  0.49600174070E+03  0.00000000000E+00 0. -1.
          1    1    1    2  502    0 -0.30610305705E+02  0.50866361481E+02  0.13920693226E+04  0.13933346247E+04  0.00000000000E+00 0. -1.
         22    1    3    3    0    0 -0.10429100515E+03  0.21134975218E+03  0.14570292089E+04  0.14759672920E+04  0.00000000000E+00 0. -1.
         22    1    3    3    0    0  0.28423904136E+02  0.47874186868E+02  0.20131871747E+03  0.20887575756E+03  0.00000000000E+00 0. -1.
</event>
<event>
 7    1  0.6443388E-006  0.2661002E+02  0.7818608E-02  0.1672689E+00
          2   -1    0    0  502    0  0.00000000000E+00  0.00000000000E+00  0.70521897453E+02  0.70521897453E+02  0.00000000000E+00 0. -1.
          1   -1    0    0  501    0 -0.00000000000E+00 -0.00000000000E+00 -0.13469169013E+04  0.13469169013E+04  0.00000000000E+00 0. -1.
         25    2    1    2    0    0  0.18052700264E+02 -0.44167250583E+02 -0.56834363003E+03  0.58387783975E+03  0.12498881531E+03 0.  0.
          2    1    1    2  501    0 -0.72255408114E+01  0.24995810530E+02 -0.76864802683E+03  0.76908828370E+03  0.00000000000E+00 0. -1.
          1    1    1    2  502    0 -0.10827159452E+02  0.19171440054E+02  0.60596653041E+02  0.64472675261E+02  0.00000000000E+00 0. -1.
         22    1    3    3    0    0  0.59497648940E+02  0.13174079783E+02 -0.31500174666E+03  0.32084205929E+03  0.00000000000E+00 0.  1.
         22    1    3    3    0    0 -0.41444948676E+02 -0.57341330366E+02 -0.25334188337E+03  0.26303578047E+03  0.00000000000E+00 0.  1.
</event>
<event>
 7    1  0.6443388E-006  0.1527051E+03  0.7818608E-02  0.1295209E+00
          2   -1    0    0  502    0  0.00000000000E+00  0.00000000000E+00  0.67266410964E+03  0.67266410964E+03  0.00000000000E+00 0. -1.
          1   -1    0    0  501    0 -0.00000000000E+00 -0.00000000000E+00 -0.48649267850E+03  0.48649267850E+03  0.00000000000E+00 0. -1.
         25    2    1    2    0    0 -0.14377935929E+02 -0.19895280141E+03  0.26820149612E+02  0.23692482389E+03  0.12500043808E+03 0.  0.
          2    1    1    2  501    0  0.30981388740E+02  0.14450694141E+03 -0.36552810272E+03  0.39427515322E+03  0.00000000000E+00 0. -1.
          1    1    1    2  502    0 -0.16603452811E+02  0.54445859997E+02  0.52487938425E+03  0.52795681104E+03  0.00000000000E+00 0. -1.
         22    1    3    3    0    0 -0.58455722688E+02 -0.10578633388E+03 -0.22051210231E+02  0.12285794978E+03  0.00000000000E+00 0. -1.
         22    1    3    3    0    0  0.44077786759E+02 -0.93166467527E+02  0.48871359843E+02  0.11406687411E+03  0.00000000000E+00 0. -1.
</event>
<event>
 7    1  0.6443388E-006  0.9379308E+02  0.7818608E-02  0.1349027E+00
          2   -1    0    0  502    0  0.00000000000E+00  0.00000000000E+00  0.46001177979E+03  0.46001177979E+03  0.00000000000E+00 0. -1.
          1   -1    0    0  501    0 -0.00000000000E+00 -0.00000000000E+00 -0.49774442309E+03  0.49774442309E+03  0.00000000000E+00 0. -1.
         25    2    1    2    0    0  0.49561105719E+02 -0.93285694267E+01 -0.57345142550E+02  0.14648417106E+03  0.12500328632E+03 0.  0.
          2    1    1    2  501    0 -0.84081457070E+02  0.55160611525E+02 -0.38739805160E+03  0.40023697340E+03  0.00000000000E+00 0. -1.
          1    1    1    2  502    0  0.34520351351E+02 -0.45832042098E+02  0.40701055086E+03  0.41103505842E+03  0.00000000000E+00 0. -1.
         22    1    3    3    0    0  0.63395990633E+02  0.43697890899E+02 -0.18146601812E+02  0.79106614481E+02  0.00000000000E+00 0. -1.
         22    1    3    3    0    0 -0.13834884914E+02 -0.53026460325E+02 -0.39198540738E+02  0.67377556584E+02  0.00000000000E+00 0. -1.
</event>
<event>
 7    1  0.6443388E-006  0.7330709E+02  0.7818608E-02  0.1441126E+00
          2   -1    0    0  502    0  0.00000000000E+00  0.00000000000E+00  0.28415949173E+03  0.28415949173E+03  0.00000000000E+00 0. -1.
          1   -1    0    0  501    0 -0.00000000000E+00 -0.00000000000E+00 -0.84350152234E+03  0.84350152234E+03  0.00000000000E+00 0. -1.
         25    2    1    2    0    0 -0.32680030311E+02 -0.61282904989E+02 -0.65874605242E+02  0.15744060523E+03  0.12499800692E+03 0.  0.
          2    1    1    2  501    0  0.61391402766E+02  0.40937121855E+02 -0.72867173599E+03  0.73239828721E+03  0.00000000000E+00 0. -1.
          1    1    1    2  502    0 -0.28711372454E+02  0.20345783134E+02  0.23520431062E+03  0.23782212163E+03  0.00000000000E+00 0. -1.
         22    1    3    3    0    0  0.35295137482E+02 -0.61971109933E+02 -0.51474889568E+02  0.87953564181E+02  0.00000000000E+00 0. -1.
         22    1    3    3    0    0 -0.67975167793E+02  0.68820494376E+00 -0.14399715674E+02  0.69487041051E+02  0.00000000000E+00 0. -1.
</event>
<event>
 7    1  0.6443388E-006  0.2066821E+03  0.7818608E-02  0.1242599E+00
          2   -1    0    0  502    0  0.00000000000E+00  0.00000000000E+00  0.10928622847E+04  0.10928622847E+04  0.00000000000E+00 0. -1.
          1   -1    0    0  501    0 -0.00000000000E+00 -0.00000000000E+00 -0.77577142633E+03  0.77577142633E+03  0.00000000000E+00 0. -1.
         25    2    1    2    0    0 -0.11504022439E+03  0.10177402310E+03  0.16352799316E+03  0.25682834081E+03  0.12500874807E+03 0.  0.
          2    1    1    2  501    0 -0.42863099954E+02  0.55371907356E+02 -0.71332347522E+03  0.71675217039E+03  0.00000000000E+00 0. -1.
          1    1    1    2  502    0  0.15790332434E+03 -0.15714593046E+03  0.86688634043E+03  0.89505319983E+03  0.00000000000E+00 0. -1.
         22    1    3    3    0    0 -0.12196551213E+03  0.88874729671E+02  0.17993266242E+03  0.23484051339E+03  0.00000000000E+00 0. -1.
         22    1    3    3    0    0  0.69252877486E+01  0.12899293430E+02 -0.16404669258E+02  0.21987827425E+02  0.00000000000E+00 0. -1.
</event>
<event>
 7    1  0.6443388E-006  0.7614408E+02  0.7818608E-02  0.1396778E+00
          2   -1    0    0  502    0  0.00000000000E+00  0.00000000000E+00  0.15183862124E+03  0.15183862124E+03  0.00000000000E+00 0. -1.
          1   -1    0    0  501    0 -0.00000000000E+00 -0.00000000000E+00 -0.27492325493E+04  0.27492325493E+04  0.00000000000E+00 0. -1.
         25    2    1    2    0    0  0.43290468350E+02 -0.11230005304E+03 -0.12206339027E+03  0.21215601058E+03  0.12500134006E+03 0.  0.
          2    1    1    2  501    0 -0.14115345962E+02  0.45539161918E+02 -0.25694494534E+04  0.25698917394E+04  0.00000000000E+00 0. -1.
          1    1    1    2  502    0 -0.29175122389E+02  0.66760891120E+02  0.94118915693E+02  0.11902342056E+03  0.00000000000E+00 0. -1.
         22    1    3    3    0    0  0.50194840648E+02 -0.31026717226E+02  0.70569690206E+01  0.59430463748E+02  0.00000000000E+00 0.  1.
         22    1    3    3    0    0 -0.69043722980E+01 -0.81273335812E+02 -0.12912035929E+03  0.15272554683E+03  0.00000000000E+00 0.  1.
</event>
<event>
 7    1  0.6443388E-006  0.1026383E+03  0.7818608E-02  0.1284231E+00
          2   -1    0    0  502    0  0.00000000000E+00  0.00000000000E+00  0.34907363336E+03  0.34907363336E+03  0.00000000000E+00 0. -1.
          1   -1    0    0  501    0 -0.00000000000E+00 -0.00000000000E+00 -0.26546261008E+04  0.26546261008E+04  0.00000000000E+00 0. -1.
         25    2    1    2    0    0  0.10887207882E+03  0.69384298575E+02 -0.55254415774E+03  0.58103158378E+03  0.12500137861E+03 0.  0.
          2    1    1    2  501    0 -0.89132174312E+01 -0.93437459820E+02 -0.20788619437E+04  0.20809798138E+04  0.00000000000E+00 0. -1.
          1    1    1    2  502    0 -0.99958861384E+02  0.24053161245E+02  0.32585363404E+03  0.34168833658E+03  0.00000000000E+00 0. -1.
         22    1    3    3    0    0  0.92847759071E+02 -0.14306165703E+02 -0.31228770344E+03  0.32611191708E+03  0.00000000000E+00 0.  1.
         22    1    3    3    0    0  0.16024319745E+02  0.83690464279E+02 -0.24025645431E+03  0.25491966670E+03  0.00000000000E+00 0.  1.
</event>
<event>
 7    1  0.6443388E-006  0.9476702E+02  0.7818608E-02  0.1310897E+00
          2   -1    0    0  502    0  0.00000000000E+00  0.00000000000E+00  0.88723103683E+03  0.88723103683E+03  0.00000000000E+00 0. -1.
          1   -1    0    0  501    0 -0.00000000000E+00 -0.00000000000E+00 -0.11442896495E+03  0.11442896495E+03  0.00000000000E+00 0. -1.
         25    2    1    2    0    0 -0.86623113992E+01  0.23814119380E+02  0.18746127096E+03  0.22673246595E+03  0.12499494024E+03 0.  0.
          2    1    1    2  501    0  0.40872015862E+02 -0.96416967010E+02 -0.62686634173E+02  0.12205067518E+03  0.00000000000E+00 0. -1.
          1    1    1    2  502    0 -0.32209704463E+02  0.72602847631E+02  0.64802743509E+03  0.65287686065E+03  0.00000000000E+00 0. -1.
         22    1    3    3    0    0  0.56496156691E+02 -0.35757120620E+01  0.90423467163E+02  0.10668179250E+03  0.00000000000E+00 0.  1.
         22    1    3    3    0    0 -0.65158468090E+02  0.27389831442E+02  0.97037803794E+02  0.12005067345E+03  0.00000000000E+00 0.  1.
</event>
<event>
 7    1  0.6443388E-006  0.2411064E+02  0.7818608E-02  0.1690194E+00
          2   -1    0    0  502    0  0.00000000000E+00  0.00000000000E+00  0.98104843062E+03  0.98104843062E+03  0.00000000000E+00 0. -1.
          1   -1    0    0  501    0 -0.00000000000E+00 -0.00000000000E+00 -0.13892048854E+03  0.13892048854E+03  0.00000000000E+00 0. -1.
         25    2    1    2    0    0  0.24643449355E+02  0.35022395886E+02  0.17788666560E+03  0.22159065573E+03  0.12499954039E+03 0.  0.
          2    1    1    2  501    0 -0.18681805566E+02 -0.11799447510E+02 -0.11584003684E+03  0.11792858413E+03  0.00000000000E+00 0. -1.
          1    1    1    2  502    0 -0.59616437884E+01 -0.23222948376E+02  0.78008131332E+03  0.78044967930E+03  0.00000000000E+00 0. -1.
         22    1    3    3    0    0  0.52920767176E+01  0.70196886318E+01  0.18631645941E+03  0.18652373884E+03  0.00000000000E+00 0.  1.
         22    1    3    3    0    0  0.19351372637E+02  0.28002707254E+02 -0.84297938034E+01  0.35066916889E+02  0.00000000000E+00 0.  1.
</event>
<event>
 7    1  0.6964527E-006  0.1209537E+03  0.7818608E-02  0.1252639E+00
          2   -1    0    0  502    0  0.00000000000E+00  0.00000000000E+00  0.12442400376E+04  0.12442400376E+04  0.00000000000E+00 0. -1.
          1   -1    0    0  501    0 -0.00000000000E+00 -0.00000000000E+00 -0.90404054552E+03  0.90404054552E+03  0.00000000000E+00 0. -1.
         25    2    1    2    0    0  0.86992860396E+02 -0.65260369763E+02 -0.19808043291E+03  0.25823921449E+03  0.12499984152E+03 0.  0.
          2    1    1    2  501    0 -0.12661598617E+03 -0.35416899133E+02 -0.66704075661E+03  0.67987449994E+03  0.00000000000E+00 0. -1.
          1    1    1    2  502    0  0.39623125773E+02  0.10067726890E+03  0.12053206816E+04  0.12101668686E+04  0.00000000000E+00 0. -1.
         22    1    3    3    0    0 -0.18132880156E+02 -0.38200079139E+01 -0.10051595092E+03  0.10220983413E+03  0.00000000000E+00 0.  1.
         22    1    3    3    0    0  0.10512574055E+03 -0.61440361849E+02 -0.97564481982E+02  0.15602938036E+03  0.00000000000E+00 0.  1.
</event>
<event>
 7    1  0.6443388E-006  0.1055999E+03  0.7818608E-02  0.1413942E+00
          2   -1    0    0  502    0  0.00000000000E+00  0.00000000000E+00  0.67809497885E+03  0.67809497885E+03  0.00000000000E+00 0. -1.
          1   -1    0    0  501    0 -0.00000000000E+00 -0.00000000000E+00 -0.45700872030E+03  0.45700872030E+03  0.00000000000E+00 0. -1.
         25    2    1    2    0    0  0.10924931014E+02 -0.12788803260E+03 -0.42440561967E+02  0.18412470490E+03  0.12500401055E+03 0.  0.
          2    1    1    2  501    0  0.14554538847E+02  0.26279691729E+02 -0.33853833984E+03  0.33986859864E+03  0.00000000000E+00 0. -1.
          1    1    1    2  502    0 -0.25479469862E+02  0.10160834088E+03  0.60206516035E+03  0.61111039562E+03  0.00000000000E+00 0. -1.
         22    1    3    3    0    0 -0.89068011918E+01 -0.31933012794E+02 -0.74080308137E+02  0.81159968379E+02  0.00000000000E+00 0.  1.
         22    1    3    3    0    0  0.19831732206E+02 -0.95955019811E+02  0.31639746170E+02  0.10296473652E+03  0.00000000000E+00 0.  1.
</event>
<event>
 7    1  0.1063324E-005  0.9895370E+02  0.7818608E-02  0.1352608E+00
          2   -1    0    0  502    0  0.00000000000E+00  0.00000000000E+00  0.17158658703E+04  0.17158658703E+04  0.00000000000E+00 0. -1.
          1   -1    0    0  501    0 -0.00000000000E+00 -0.00000000000E+00 -0.78079404886E+03  0.78079404886E+03  0.00000000000E+00 0. -1.
         25    2    1    2    0    0 -0.57464306991E+02 -0.54508692240E+02 -0.84647066947E+02  0.17048265968E+03  0.12500346876E+03 0.  0.
          2    1    1    2  501    0  0.32431006652E+02 -0.41604058773E+02 -0.65068677466E+03  0.65282152738E+03  0.00000000000E+00 0. -1.
          1    1    1    2  502    0  0.25033300339E+02  0.96112751013E+02  0.16704056630E+04  0.16733557321E+04  0.00000000000E+00 0. -1.
         22    1    3    3    0    0 -0.25967397271E+02  0.39393767329E+02 -0.39934351196E+02  0.61813647610E+02  0.00000000000E+00 0. -1.
         22    1    3    3    0    0 -0.31496909720E+02 -0.93902459569E+02 -0.44712715751E+02  0.10866901207E+03  0.00000000000E+00 0. -1.
</event>
<event>
 7    1  0.6443388E-006  0.5475763E+02  0.7818608E-02  0.1478251E+00
          2   -1    0    0  502    0  0.00000000000E+00  0.00000000000E+00  0.11946117683E+03  0.11946117683E+03  0.00000000000E+00 0. -1.
          1   -1    0    0  501    0 -0.00000000000E+00 -0.00000000000E+00 -0.46638942938E+03  0.46638942938E+03  0.00000000000E+00 0. -1.
         25    2    1    2    0    0 -0.12805985368E+02  0.71302565024E+00 -0.33713425517E+03  0.35978861196E+03  0.12499535037E+03 0.  0.
          2    1    1    2  501    0  0.10121495575E+02 -0.55404817076E+02 -0.10332650338E+03  0.11767966999E+03  0.00000000000E+00 0. -1.
          1    1    1    2  502    0  0.26844897930E+01  0.54691791426E+02  0.93532506002E+02  0.10838232427E+03  0.00000000000E+00 0. -1.
         22    1    3    3    0    0 -0.35029513212E+02  0.55673452407E+01 -0.17872700737E+02  0.39717698329E+02  0.00000000000E+00 0. -1.
         22    1    3    3    0    0  0.22223527844E+02 -0.48543195904E+01 -0.31926155444E+03  0.32007091363E+03  0.00000000000E+00 0. -1.
</event>
<event>
 7    1  0.6443388E-006  0.6878709E+02  0.7818608E-02  0.1364496E+00
          2   -1    0    0  502    0  0.00000000000E+00  0.00000000000E+00  0.14207418111E+04  0.14207418111E+04  0.00000000000E+00 0. -1.
          1   -1    0    0  501    0 -0.00000000000E+00 -0.00000000000E+00 -0.83858823696E+03  0.83858823696E+03  0.00000000000E+00 0. -1.
         25    2    1    2    0    0  0.48281701219E+00 -0.31812705831E+01  0.17539743938E+03  0.21540559600E+03  0.12499982182E+03 0.  0.
          2    1    1    2  501    0 -0.69112298331E+02  0.50783250389E+01 -0.81615293675E+03  0.81908968699E+03  0.00000000000E+00 0. -1.
          1    1    1    2  502    0  0.68629481319E+02 -0.18970544558E+01  0.12229090715E+04  0.12248347650E+04  0.00000000000E+00 0. -1.
         22    1    3    3    0    0  0.55385843729E+02 -0.17981550155E+02  0.13067579685E+03  0.14306324376E+03  0.00000000000E+00 0.  1.
         22    1    3    3    0    0 -0.54903026716E+02  0.14800279572E+02  0.44721642525E+02  0.72342352244E+02  0.00000000000E+00 0.  1.
</event>
<event>
 7    1  0.6443388E-006  0.1602181E+03  0.7818608E-02  0.1327656E+00
          2   -1    0    0  502    0  0.00000000000E+00  0.00000000000E+00  0.39610729538E+03  0.39610729538E+03  0.00000000000E+00 0. -1.
          1   -1    0    0  501    0 -0.00000000000E+00 -0.00000000000E+00 -0.19705779654E+04  0.19705779654E+04  0.00000000000E+00 0. -1.
         25    2    1    2    0    0  0.11751252311E+03  0.15745655182E+03 -0.18336583330E+03  0.29639429965E+03  0.12499917298E+03 0.  0.
          2    1    1    2  501    0 -0.85436091013E+02 -0.13282897468E+03 -0.17258754856E+04  0.17330865686E+04  0.00000000000E+00 0. -1.
          1    1    1    2  502    0 -0.32076432096E+02 -0.24627577140E+02  0.33477064888E+03  0.33720439262E+03  0.00000000000E+00 0. -1.
         22    1    3    3    0    0  0.12099998496E+03  0.15374486821E+03 -0.11318614855E+03  0.22603005350E+03  0.00000000000E+00 0. -1.
         22    1    3    3    0    0 -0.34874618507E+01  0.37116836106E+01 -0.70179684746E+02  0.70364246151E+02  0.00000000000E+00 0. -1.
</event>
<event>
 7    1  0.6443388E-006  0.9953059E+02  0.7818608E-02  0.1308556E+00
          2   -1    0    0  502    0  0.00000000000E+00  0.00000000000E+00  0.10665823191E+04  0.10665823191E+04  0.00000000000E+00 0. -1.
          1   -1    0    0  501    0 -0.00000000000E+00 -0.00000000000E+00 -0.15136716548E+03  0.15136716548E+03  0.00000000000E+00 0. -1.
         25    2    1    2    0    0  0.26540964783E+02  0.15319707761E+03  0.44806314042E+03  0.49047021974E+03  0.12500676482E+03 0.  0.
          2    1    1    2  501    0 -0.44076249301E+02 -0.63440940488E+02 -0.11480787228E+03  0.13837744115E+03  0.00000000000E+00 0. -1.
          1    1    1    2  502    0  0.17535284518E+02 -0.89756137126E+02  0.58195988544E+03  0.58910182364E+03  0.00000000000E+00 0. -1.
         22    1    3    3    0    0  0.40692795007E+02  0.16117665727E+03  0.31273961895E+03  0.35417493937E+03  0.00000000000E+00 0.  1.
         22    1    3    3    0    0 -0.14151830224E+02 -0.79795796546E+01  0.13532352146E+03  0.13629528037E+03  0.00000000000E+00 0.  1.
</event>
<event>
 7    1  0.6443388E-006  0.7833355E+02  0.7818608E-02  0.1414037E+00
          2   -1    0    0  502    0  0.00000000000E+00  0.00000000000E+00  0.30497338671E+04  0.30497338671E+04  0.00000000000E+00 0. -1.
          1   -1    0    0  501    0 -0.00000000000E+00 -0.00000000000E+00 -0.11663539727E+04  0.11663539727E+04  0.00000000000E+00 0. -1.
         25    2    1    2    0    0 -0.44875497258E+02 -0.57273874366E+02  0.16546984377E+03  0.21977031378E+03  0.12499845872E+03 0.  0.
          2    1    1    2  501    0 -0.28432078664E+02  0.28796865485E+02 -0.11383029277E+04  0.11390220357E+04  0.00000000000E+00 0. -1.
          1    1    1    2  502    0  0.73307575922E+02  0.28477008881E+02  0.28562129784E+04  0.28572954903E+04  0.00000000000E+00 0. -1.
         22    1    3    3    0    0 -0.48814048954E+02 -0.48813680609E+02  0.18536113508E+03  0.19779872899E+03  0.00000000000E+00 0. -1.
         22    1    3    3    0    0  0.39385516952E+01 -0.84601937577E+01 -0.19891291317E+02  0.21971584789E+02  0.00000000000E+00 0. -1.
</event>
<event>
 7    1  0.6443388E-006  0.1698417E+03  0.7818608E-02  0.1215493E+00
          2   -1    0    0  502    0  0.00000000000E+00  0.00000000000E+00  0.14464727050E+03  0.14464727050E+03  0.00000000000E+00 0. -1.
          1   -1    0    0  501    0 -0.00000000000E+00 -0.00000000000E+00 -0.15064154082E+04  0.15064154082E+04  0.00000000000E+00 0. -1.
         25    2    1    2    0    0  0.13900641502E+03 -0.17336431808E+03 -0.37808277342E+03  0.45601521052E+03  0.12500127386E+03 0.  0.
          2    1    1    2  501    0 -0.15321955628E+03  0.61477944735E+02 -0.10508757740E+04  0.10637648530E+04  0.00000000000E+00 0. -1.
          1    1    1    2  502    0  0.14213141260E+02  0.11188637335E+03  0.67190409622E+02  0.13128261527E+03  0.00000000000E+00 0. -1.
         22    1    3    3    0    0  0.14934562830E+03 -0.12447890770E+03 -0.23816899242E+03  0.30744688013E+03  0.00000000000E+00 0. -1.
         22    1    3    3    0    0 -0.10339213276E+02 -0.48885410381E+02 -0.13991378100E+03  0.14856833038E+03  0.00000000000E+00 0. -1.
</event>
<event>
 7    1  0.6443388E-006  0.7420861E+02  0.7818608E-02  0.1403168E+00
          2   -1    0    0  502    0  0.00000000000E+00  0.00000000000E+00  0.26989564385E+04  0.26989564385E+04  0.00000000000E+00 0. -1.
          1   -1    0    0  501    0 -0.00000000000E+00 -0.00000000000E+00 -0.17290325727E+04  0.17290325727E+04  0.00000000000E+00 0. -1.
         25    2    1    2    0    0 -0.72311813644E+02  0.84815096272E+02  0.23057817505E+02  0.16905222544E+03  0.12499757210E+03 0.  0.
          2    1    1    2  501    0  0.28938926972E+02 -0.68032814757E+02 -0.16550023122E+04  0.16566528239E+04  0.00000000000E+00 0. -1.
          1    1    1    2  502    0  0.43372886672E+02 -0.16782281515E+02  0.26018683606E+04  0.26022839618E+04  0.00000000000E+00 0. -1.
         22    1    3    3    0    0 -0.10389193389E+03  0.75057317928E+02 -0.99738732498E+00  0.12817226565E+03  0.00000000000E+00 0.  1.
         22    1    3    3    0    0  0.31580120243E+02  0.97577783434E+01  0.24055204830E+02  0.40879959787E+02  0.00000000000E+00 0.  1.
</event>
<event>
 7    1  0.6443388E-006  0.1666685E+03  0.7818608E-02  0.1284308E+00
          2   -1    0    0  502    0  0.00000000000E+00  0.00000000000E+00  0.25734123860E+04  0.25734123860E+04  0.00000000000E+00 0. -1.
          1   -1    0    0  501    0 -0.00000000000E+00 -0.00000000000E+00 -0.17347864790E+03  0.17347864790E+03  0.00000000000E+00 0. -1.
         25    2    1    2    0    0  0.14224626866E+03  0.85939646657E+02  0.34591925718E+03  0.40360969475E+03  0.12498411656E+03 0.  0.
          2    1    1    2  501    0 -0.10555262860E+03 -0.13054662427E+03 -0.95398555688E+02  0.19309236893E+03  0.00000000000E+00 0. -1.
          1    1    1    2  502    0 -0.36693640056E+02  0.44606977613E+02  0.21494130366E+04  0.21501889702E+04  0.00000000000E+00 0. -1.
         22    1    3    3    0    0  0.15650863216E+03  0.43425693954E+02  0.28388594620E+03  0.32706570179E+03  0.00000000000E+00 0.  1.
         22    1    3    3    0    0 -0.14262363504E+02  0.42513952703E+02  0.62033310983E+02  0.76543992962E+02  0.00000000000E+00 0.  1.
</event>
<event>
 7    1  0.6443388E-006  0.5365046E+02  0.7818608E-02  0.1494949E+00
          2   -1    0    0  502    0  0.00000000000E+00  0.00000000000E+00  0.91025496543E+03  0.91025496543E+03  0.00000000000E+00 0. -1.
          1   -1    0    0  501    0 -0.00000000000E+00 -0.00000000000E+00 -0.71436293964E+02  0.71436293964E+02  0.00000000000E+00 0. -1.
         25    2    1    2    0    0 -0.84910382030E+02  0.17756495957E+01  0.41119118521E+02  0.15661663493E+03  0.12500025008E+03 0.  0.
          2    1    1    2  501    0  0.32217801637E+02  0.53667760548E+01  0.80531719013E+01  0.33639896034E+02  0.00000000000E+00 0. -1.
          1    1    1    2  502    0  0.52692580393E+02 -0.71424256505E+01  0.78964638105E+03  0.79143472844E+03  0.00000000000E+00 0. -1.
         22    1    3    3    0    0 -0.19303191725E+02 -0.54863845793E+02  0.38794264955E+02  0.69911728482E+02  0.00000000000E+00 0. -1.
         22    1    3    3    0    0 -0.65607190305E+02  0.56639495388E+02  0.23248535656E+01  0.86704906445E+02  0.00000000000E+00 0. -1.
</event>
<event>
 7    1  0.6443388E-006  0.1417744E+03  0.7818608E-02  0.1384942E+00
          2   -1    0    0  502    0  0.00000000000E+00  0.00000000000E+00  0.11119414824E+04  0.11119414824E+04  0.00000000000E+00 0. -1.
          1   -1    0    0  501    0 -0.00000000000E+00 -0.00000000000E+00 -0.62510054775E+03  0.62510054775E+03  0.00000000000E+00 0. -1.
         25    2    1    2    0    0  0.12142273940E+02  0.11415578617E+03  0.74036817592E+03  0.75957166146E+03  0.12500037858E+03 0.  0.
          2    1    1    2  501    0 -0.22752104449E+02 -0.14023779582E+03 -0.60673269979E+03  0.62314433851E+03  0.00000000000E+00 0. -1.
          1    1    1    2  502    0  0.10609830509E+02  0.26082009655E+02  0.35320545848E+03  0.35432603013E+03  0.00000000000E+00 0. -1.
         22    1    3    3    0    0  0.23253390057E+02  0.36423527490E+02  0.56105034213E+02  0.70817853455E+02  0.00000000000E+00 0. -1.
         22    1    3    3    0    0 -0.11111116118E+02  0.77732258675E+02  0.68426314171E+03  0.68875380800E+03  0.00000000000E+00 0. -1.
</event>
<event>
 7    1  0.6443388E-006  0.5752897E+02  0.7818608E-02  0.1527322E+00
          2   -1    0    0  502    0  0.00000000000E+00  0.00000000000E+00  0.26575480592E+03  0.26575480592E+03  0.00000000000E+00 0. -1.
          1   -1    0    0  501    0 -0.00000000000E+00 -0.00000000000E+00 -0.27802056270E+03  0.27802056270E+03  0.00000000000E+00 0. -1.
         25    2    1    2    0    0  0.12496932606E+02  0.57752704247E+02  0.15030138923E+03  0.20422214192E+03  0.12499850988E+03 0.  0.
          2    1    1    2  501    0  0.11928793278E+02 -0.56346229954E+02 -0.24597659128E+03  0.25262952559E+03  0.00000000000E+00 0. -1.
          1    1    1    2  502    0 -0.24425725884E+02 -0.14064742927E+01  0.83409445265E+02  0.86923701108E+02  0.00000000000E+00 0. -1.
         22    1    3    3    0    0  0.42713227302E+02 -0.22851835658E+01  0.36837583677E+01  0.42932644063E+02  0.00000000000E+00 0. -1.
         22    1    3    3    0    0 -0.30216294696E+02  0.60037887813E+02  0.14661763087E+03  0.16128949786E+03  0.00000000000E+00 0. -1.
</event>
<event>
 7    1  0.6443388E-006  0.8796917E+02  0.7818608E-02  0.1414022E+00
          2   -1    0    0  502    0  0.00000000000E+00  0.00000000000E+00  0.32043116443E+03  0.32043116443E+03  0.00000000000E+00 0. -1.
          1   -1    0    0  501    0 -0.00000000000E+00 -0.00000000000E+00 -0.14614265733E+03  0.14614265733E+03  0.00000000000E+00 0. -1.
         25    2    1    2    0    0 -0.48796189900E+02 -0.45973512875E+02  0.47987347879E+01  0.14192642599E+03  0.12500180200E+03 0.  0.
          2    1    1    2  501    0  0.84767256510E+02  0.48194409937E+02 -0.44827874268E+02  0.10732067479E+03  0.00000000000E+00 0. -1.
          1    1    1    2  502    0 -0.35971066611E+02 -0.22208970626E+01  0.21431764658E+03  0.21732672098E+03  0.00000000000E+00 0. -1.
         22    1    3    3    0    0  0.57629392913E+01 -0.73241930763E+02 -0.19909032444E+02  0.76118075803E+02  0.00000000000E+00 0.  1.
         22    1    3    3    0    0 -0.54559129191E+02  0.27268417888E+02  0.24707767231E+02  0.65808350183E+02  0.00000000000E+00 0.  1.
</event>
<event>
 7    1  0.6443388E-006  0.5678816E+02  0.7818608E-02  0.1412388E+00
          2   -1    0    0  502    0  0.00000000000E+00  0.00000000000E+00  0.55174874204E+03  0.55174874204E+03  0.00000000000E+00 0. -1.
          1   -1    0    0  501    0 -0.00000000000E+00 -0.00000000000E+00 -0.17648976301E+03  0.17648976301E+03  0.00000000000E+00 0. -1.
         25    2    1    2    0    0 -0.37883143961E+02  0.12693293764E+02  0.25088707149E+03  0.28314046554E+03  0.12501179259E+03 0.  0.
          2    1    1    2  501    0  0.27307927105E+01 -0.57293827565E+02 -0.15225567480E+03  0.16270166077E+03  0.00000000000E+00 0. -1.
          1    1    1    2  502    0  0.35152351250E+02  0.44600533802E+02  0.27662758234E+03  0.28239637874E+03  0.00000000000E+00 0. -1.
         22    1    3    3    0    0  0.22962100496E+02  0.52132687326E+02  0.13377009451E+03  0.14539433735E+03  0.00000000000E+00 0.  1.
         22    1    3    3    0    0 -0.60845244457E+02 -0.39439393563E+02  0.11711697697E+03  0.13774612820E+03  0.00000000000E+00 0.  1.
</event>
<event>
 7    1  0.6443388E-006  0.7171520E+02  0.7818608E-02  0.1481382E+00
          2   -1    0    0  502    0  0.00000000000E+00  0.00000000000E+00  0.15047193010E+04  0.15047193010E+04  0.00000000000E+00 0. -1.
          1   -1    0    0  501    0 -0.00000000000E+00 -0.00000000000E+00 -0.18857704999E+04  0.18857704999E+04  0.00000000000E+00 0. -1.
         25    2    1    2    0    0 -0.37949142074E+00 -0.48221742566E+02 -0.13068275857E+03  0.18716056244E+03  0.12500244907E+03 0.  0.
          2    1    1    2  501    0 -0.13786024748E+02  0.71046099681E+02 -0.17259682781E+04  0.17274849058E+04  0.00000000000E+00 0. -1.
          1    1    1    2  502    0  0.14165516169E+02 -0.22824357115E+02  0.14755998378E+04  0.14758443327E+04  0.00000000000E+00 0. -1.
         22    1    3    3    0    0 -0.36632235650E+02  0.29536531516E+02 -0.58224705731E+02  0.74862832836E+02  0.00000000000E+00 0. -1.
         22    1    3    3    0    0  0.36252744230E+02 -0.77758274082E+02 -0.72458052838E+02  0.11229772960E+03  0.00000000000E+00 0. -1.
</event>
<event>
 7    1  0.6443388E-006  0.1169957E+03  0.7818608E-02  0.1337044E+00
          2   -1    0    0  502    0  0.00000000000E+00  0.00000000000E+00  0.19450162579E+04  0.19450162579E+04  0.00000000000E+00 0. -1.
          1   -1    0    0  501    0 -0.00000000000E+00 -0.00000000000E+00 -0.95176657902E+03  0.95176657902E+03  0.00000000000E+00 0. -1.
         25    2    1    2    0    0  0.78249431105E+02  0.43444023582E+01  0.11030548301E+04  0.11128771457E+04  0.12499494305E+03 0.  0.
          2    1    1    2  501    0 -0.10774626635E+03 -0.45955716465E+02 -0.94244921858E+03  0.94970085573E+03  0.00000000000E+00 0. -1.
          1    1    1    2  502    0  0.29496835249E+02  0.41611314107E+02  0.83264406736E+03  0.83420483555E+03  0.00000000000E+00 0. -1.
         22    1    3    3    0    0  0.86649137977E+02 -0.33124382840E+02  0.96903114121E+03  0.97346117050E+03  0.00000000000E+00 0.  1.
         22    1    3    3    0    0 -0.83997068715E+01  0.37468785198E+02  0.13402368891E+03  0.13941597516E+03  0.00000000000E+00 0.  1.
</event>
<event>
 7    1  0.6443388E-006  0.1982597E+03  0.7818608E-02  0.1235965E+00
          2   -1    0    0  502    0  0.00000000000E+00  0.00000000000E+00  0.41885226158E+03  0.41885226158E+03  0.00000000000E+00 0. -1.
          1   -1    0    0  501    0 -0.00000000000E+00 -0.00000000000E+00 -0.23425867455E+04  0.23425867455E+04  0.00000000000E+00 0. -1.
         25    2    1    2    0    0  0.14879965824E+03  0.82345849993E+02 -0.15722931656E+03  0.26318630464E+03  0.12499518254E+03 0.  0.
          2    1    1    2  501    0  0.53190336715E+02 -0.57176479976E+02 -0.21032868370E+04  0.21047360596E+04  0.00000000000E+00 0. -1.
          1    1    1    2  502    0 -0.20198999495E+03 -0.25169370017E+02  0.33678166962E+03  0.39351664290E+03  0.00000000000E+00 0. -1.
         22    1    3    3    0    0  0.10937922697E+03  0.11238121228E+03 -0.14140998231E+03  0.21116376409E+03  0.00000000000E+00 0. -1.
         22    1    3    3    0    0  0.39420431266E+02 -0.30035362289E+02 -0.15819334253E+02  0.52022540549E+02  0.00000000000E+00 0. -1.
</event>
<event>
 7    1  0.6443388E-006  0.9099775E+02  0.7818608E-02  0.1444820E+00
          2   -1    0    0  502    0  0.00000000000E+00  0.00000000000E+00  0.17403770675E+04  0.17403770675E+04  0.00000000000E+00 0. -1.
          1   -1    0    0  501    0 -0.00000000000E+00 -0.00000000000E+00 -0.16088914494E+03  0.16088914494E+03  0.00000000000E+00 0. -1.
         25    2    1    2    0    0  0.95993687900E+02 -0.25476283039E+01  0.14226259959E+03  0.21232250336E+03  0.12498367760E+03 0.  0.
          2    1    1    2  501    0 -0.82037455882E+01  0.26331260453E+02 -0.12300779989E+03  0.12606171327E+03  0.00000000000E+00 0. -1.
          1    1    1    2  502    0 -0.87789942312E+02 -0.23783632149E+02  0.15602331229E+04  0.15628819958E+04  0.00000000000E+00 0. -1.
         22    1    3    3    0    0  0.57127423572E+02  0.47528448800E+02  0.12696375175E+03  0.14711318849E+03  0.00000000000E+00 0. -1.
         22    1    3    3    0    0  0.38866264328E+02 -0.50076077104E+02  0.15298847832E+02  0.65209314871E+02  0.00000000000E+00 0. -1.
</event>
<event>
 7    1  0.6443388E-006  0.1741858E+03  0.7818608E-02  0.1267838E+00
          2   -1    0    0  502    0  0.00000000000E+00  0.00000000000E+00  0.31817298666E+04  0.31817298666E+04  0.00000000000E+00 0. -1.
          1   -1    0    0  501    0 -0.00000000000E+00 -0.00000000000E+00 -0.15515399231E+04  0.15515399231E+04  0.00000000000E+00 0. -1.
         25    2    1    2    0    0 -0.17510990963E+03  0.57657873616E+02  0.23689963423E+04  0.23794446755E+04  0.12500153235E+03 0.  0.
          2    1    1    2  501    0  0.46528390295E+02  0.44970582743E+02 -0.15372486150E+04  0.15386099404E+04  0.00000000000E+00 0. -1.
          1    1    1    2  502    0  0.12858151933E+03 -0.10262845636E+03  0.79844221618E+03  0.81521517390E+03  0.00000000000E+00 0. -1.
         22    1    3    3    0    0 -0.89509391642E+02 -0.14106312491E+02  0.58720825236E+03  0.59415860752E+03  0.00000000000E+00 0. -1.
         22    1    3    3    0    0 -0.85600517987E+02  0.71764186106E+02  0.17817880899E+04  0.17852860679E+04  0.00000000000E+00 0. -1.
</event>
<event>
 7    1  0.6443388E-006  0.4791440E+02  0.7818608E-02  0.1517519E+00
          2   -1    0    0  502    0  0.00000000000E+00  0.00000000000E+00  0.54845573582E+03  0.54845573582E+03  0.00000000000E+00 0. -1.
          1   -1    0    0  501    0 -0.00000000000E+00 -0.00000000000E+00 -0.17058256508E+03  0.17058256508E+03  0.00000000000E+00 0. -1.
         25    2    1    2    0    0 -0.25502626066E+01 -0.59690511491E+02  0.71244068889E+02  0.15578986256E+03  0.12500121169E+03 0.  0.
          2    1    1    2  501    0 -0.23187923627E+02  0.41775822016E+02 -0.12327064185E+03  0.13220646826E+03  0.00000000000E+00 0. -1.
          1    1    1    2  502    0  0.25738186234E+02  0.17914689475E+02  0.42989974371E+03  0.43104197008E+03  0.00000000000E+00 0. -1.
         22    1    3    3    0    0 -0.41280923241E+02 -0.41742653380E+02  0.91363069451E+02  0.10859914454E+03  0.00000000000E+00 0.  1.
         22    1    3    3    0    0  0.38730660634E+02 -0.17947858110E+02 -0.20119000562E+02  0.47190718023E+02  0.00000000000E+00 0.  1.
</event>
<event>
 7    1  0.6443388E-006  0.1351495E+03  0.7818608E-02  0.1310701E+00
          2   -1    0    0  502    0  0.00000000000E+00  0.00000000000E+00  0.23825431260E+03  0.23825431260E+03  0.00000000000E+00 0. -1.
          1   -1    0    0  501    0 -0.00000000000E+00 -0.00000000000E+00 -0.15072087107E+04  0.15072087107E+04  0.00000000000E+00 0. -1.
         25    2    1    2    0    0  0.16883544580E+03 -0.49058192125E+02  0.11658284398E+02  0.21603914152E+03  0.12499952440E+03 0.  0.
          2    1    1    2  501    0 -0.13402941267E+03  0.54529372496E+01 -0.13953803883E+04  0.14018131281E+04  0.00000000000E+00 0. -1.
          1    1    1    2  502    0 -0.34806033123E+02  0.43605254875E+02  0.11476770575E+03  0.12761075377E+03  0.00000000000E+00 0. -1.
         22    1    3    3    0    0 -0.20044875542E+02 -0.11519869344E+02  0.12515314310E+00  0.23119690494E+02  0.00000000000E+00 0.  1.
         22    1    3    3    0    0  0.18888032134E+03 -0.37538322781E+02  0.11533131254E+02  0.19291945102E+03  0.00000000000E+00 0.  1.
</event>
<event>
 7    1  0.6443388E-006  0.3821568E+02  0.7818608E-02  0.1533619E+00
          2   -1    0    0  502    0  0.00000000000E+00  0.00000000000E+00  0.52518460145E+03  0.52518460145E+03  0.00000000000E+00 0. -1.
          1   -1    0    0  501    0 -0.00000000000E+00 -0.00000000000E+00 -0.34123232541E+02  0.34123232541E+02  0.00000000000E+00 0. -1.
         25    2    1    2    0    0 -0.12461530543E+02 -0.35732121976E+02  0.35170939474E+03  0.37517622860E+03  0.12500251948E+03 0.  0.
          2    1    1    2  501    0  0.37608351613E+02  0.67860069487E+01 -0.14089623768E+01  0.38241641915E+02  0.00000000000E+00 0. -1.
          1    1    1    2  502    0 -0.25146821070E+02  0.28946115027E+02  0.14076093654E+03  0.14588996347E+03  0.00000000000E+00 0. -1.
         22    1    3    3    0    0 -0.86214361312E+00  0.42249394768E+02  0.62735140464E+02  0.75640283572E+02  0.00000000000E+00 0. -1.
         22    1    3    3    0    0 -0.11599386930E+02 -0.77981516743E+02  0.28897425428E+03  0.29953594503E+03  0.00000000000E+00 0. -1.
</event>
<event>
 7    1  0.6443388E-006  0.4000766E+02  0.7818608E-02  0.1568240E+00
          2   -1    0    0  502    0  0.00000000000E+00  0.00000000000E+00  0.45671327307E+03  0.45671327307E+03  0.00000000000E+00 0. -1.
          1   -1    0    0  501    0 -0.00000000000E+00 -0.00000000000E+00 -0.35327035170E+03  0.35327035170E+03  0.00000000000E+00 0. -1.
         25    2    1    2    0    0 -0.49172227130E+01 -0.20072026950E+02 -0.16630059468E+01  0.12670951136E+03  0.12500187733E+03 0.  0.
          2    1    1    2  501    0  0.21049746360E+02 -0.16953704426E+02 -0.28741389703E+03  0.28868194977E+03  0.00000000000E+00 0. -1.
          1    1    1    2  502    0 -0.16132523647E+02  0.37025731377E+02  0.39251982435E+03  0.39459216364E+03  0.00000000000E+00 0. -1.
         22    1    3    3    0    0  0.35298250178E+02 -0.60243202867E+02 -0.23753160486E+01  0.69863095291E+02  0.00000000000E+00 0.  1.
         22    1    3    3    0    0 -0.40215472891E+02  0.40171175917E+02  0.71231010180E+00  0.56846416071E+02  0.00000000000E+00 0.  1.
</event>
<event>
 7    1  0.6443388E-006  0.1227173E+03  0.7818608E-02  0.1282492E+00
          2   -1    0    0  502    0  0.00000000000E+00  0.00000000000E+00  0.64322138635E+03  0.64322138635E+03  0.00000000000E+00 0. -1.
          1   -1    0    0  501    0 -0.00000000000E+00 -0.00000000000E+00 -0.12292916653E+04  0.12292916653E+04  0.00000000000E+00 0. -1.
         25    2    1    2    0    0  0.59213796618E+02  0.84792828284E+02 -0.34767515003E+03  0.38366564358E+03  0.12500087471E+03 0.  0.
          2    1    1    2  501    0 -0.70088508753E+02  0.38166040822E+02 -0.85565362557E+03  0.85936730953E+03  0.00000000000E+00 0. -1.
          1    1    1    2  502    0  0.10874712136E+02 -0.12295886911E+03  0.61725849662E+03  0.62948009858E+03  0.00000000000E+00 0. -1.
         22    1    3    3    0    0  0.49094586364E+02  0.75006713261E+02 -0.35613341831E+03  0.36724283122E+03  0.00000000000E+00 0.  1.
         22    1    3    3    0    0  0.10119210253E+02  0.97861150223E+01  0.84582682844E+01  0.16422812358E+02  0.00000000000E+00 0.  1.
</event>
<event>
 7    1  0.6443388E-006  0.9436378E+02  0.7818608E-02  0.1397207E+00
          2   -1    0    0  502    0  0.00000000000E+00  0.00000000000E+00  0.24550437667E+04  0.24550437667E+04  0.00000000000E+00 0. -1.
          1   -1    0    0  501    0 -0.00000000000E+00 -0.00000000000E+00 -0.12205470833E+03  0.12205470833E+03  0.00000000000E+00 0. -1.
         25    2    1    2    0    0  0.24999622031E+02  0.89267733633E+02  0.17952438988E+03  0.23759589913E+03  0.12501638032E+03 0.  0.
          2    1    1    2  501    0  0.34875855070E+02 -0.15925672496E+02 -0.88026018931E+02  0.96013188261E+02  0.00000000000E+00 0. -1.
          1    1    1    2  502    0 -0.59875477101E+02 -0.73342061137E+02  0.22414906874E+04  0.22434893876E+04  0.00000000000E+00 0. -1.
         22    1    3    3    0    0  0.30807330571E+02 -0.21417906313E+02  0.81124663991E+02  0.89381370741E+02  0.00000000000E+00 0.  1.
         22    1    3    3    0    0 -0.58077085401E+01  0.11068563995E+03  0.98399725892E+02  0.14821452839E+03  0.00000000000E+00 0.  1.
</event>
<event>
 7    1  0.6443388E-006  0.4497395E+02  0.7818608E-02  0.1476991E+00
          2   -1    0    0  502    0  0.00000000000E+00  0.00000000000E+00  0.10485444373E+04  0.10485444373E+04  0.00000000000E+00 0. -1.
          1   -1    0    0  501    0 -0.00000000000E+00 -0.00000000000E+00 -0.49071366457E+02  0.49071366457E+02  0.00000000000E+00 0. -1.
         25    2    1    2    0    0  0.10764432703E+02  0.38182778760E+02  0.15252538074E+03  0.20114993309E+03  0.12499402469E+03 0.  0.
          2    1    1    2  501    0 -0.43691116533E+02 -0.65970850276E+01 -0.39345307243E+01  0.44361196183E+02  0.00000000000E+00 0. -1.
          1    1    1    2  502    0  0.32926683830E+02 -0.31585693732E+02  0.85088222086E+03  0.85210467452E+03  0.00000000000E+00 0. -1.
         22    1    3    3    0    0  0.59342104422E+01  0.81189741603E+02  0.12716375555E+03  0.15098877349E+03  0.00000000000E+00 0. -1.
         22    1    3    3    0    0  0.48302222613E+01 -0.43006962843E+02  0.25361625192E+02  0.50161159601E+02  0.00000000000E+00 0. -1.
</event>
<event>
 7    1  0.6443388E-006  0.5810916E+02  0.7818608E-02  0.1462938E+00
          2   -1    0    0  502    0  0.00000000000E+00  0.00000000000E+00  0.17354809557E+04  0.17354809557E+04  0.00000000000E+00 0. -1.
          1   -1    0    0  501    0 -0.00000000000E+00 -0.00000000000E+00 -0.11025169408E+03  0.11025169408E+03  0.00000000000E+00 0. -1.
         25    2    1    2    0    0 -0.37520019904E+02 -0.86049928389E+02  0.26078656839E+03  0.30404980002E+03  0.12499721824E+03 0.  0.
          2    1    1    2  501    0  0.82588095026E+01  0.36907238713E+02 -0.83994755041E+02  0.92116616732E+02  0.00000000000E+00 0. -1.
          1    1    1    2  502    0  0.29261210401E+02  0.49142689676E+02  0.14484374483E+04  0.14495662330E+04  0.00000000000E+00 0. -1.
         22    1    3    3    0    0  0.60144385074E+01 -0.19567964112E+02  0.20718647700E+03  0.20819537685E+03  0.00000000000E+00 0. -1.
         22    1    3    3    0    0 -0.43534458411E+02 -0.66481964277E+02  0.53600091392E+02  0.95854423167E+02  0.00000000000E+00 0. -1.
</event>
<event>
 7    1  0.6443388E-006  0.1281113E+03  0.7818608E-02  0.1343539E+00
          2   -1    0    0  502    0  0.00000000000E+00  0.00000000000E+00  0.99289779014E+03  0.99289779014E+03  0.00000000000E+00 0. -1.
          1   -1    0    0  501    0 -0.00000000000E+00 -0.00000000000E+00 -0.76425733971E+03  0.76425733971E+03  0.00000000000E+00 0. -1.
         25    2    1    2    0    0  0.23948375572E+02  0.90200335259E+02  0.22784054668E+03  0.27612641883E+03  0.12499943717E+03 0.  0.
          2    1    1    2  501    0  0.83572286019E+01  0.43232361748E+02 -0.73308843227E+03  0.73440964720E+03  0.00000000000E+00 0. -1.
          1    1    1    2  502    0 -0.32305604174E+02 -0.13343269701E+03  0.73388833603E+03  0.74661906381E+03  0.00000000000E+00 0. -1.
         22    1    3    3    0    0  0.72587237084E+02  0.65221385424E+02  0.11564090430E+03  0.15131277161E+03  0.00000000000E+00 0.  1.
         22    1    3    3    0    0 -0.48638861512E+02  0.24978949835E+02  0.11219964238E+03  0.12481364722E+03  0.00000000000E+00 0.  1.
</event>
<event>
 7    1  0.6443388E-006  0.1004556E+03  0.7818608E-02  0.1287816E+00
          2   -1    0    0  502    0  0.00000000000E+00  0.00000000000E+00  0.99144119046E+03  0.99144119046E+03  0.00000000000E+00 0. -1.
          1   -1    0    0  501    0 -0.00000000000E+00 -0.00000000000E+00 -0.34733662003E+03  0.34733662003E+03  0.00000000000E+00 0. -1.
         25    2    1    2    0    0 -0.13022743334E+03  0.34686397264E+02  0.48772371071E+03  0.52121012407E+03  0.12499297938E+03 0.  0.
          2    1    1    2  501    0  0.52710550474E+02 -0.85551081298E+02 -0.31836831973E+03  0.33384993133E+03  0.00000000000E+00 0. -1.
          1    1    1    2  502    0  0.77516882869E+02  0.50864684034E+02  0.47474917944E+03  0.48371775509E+03  0.00000000000E+00 0. -1.
         22    1    3    3    0    0 -0.91666976543E+02  0.37940089329E+02  0.14140332121E+03  0.17273443263E+03  0.00000000000E+00 0. -1.
         22    1    3    3    0    0 -0.38560456800E+02 -0.32536920655E+01  0.34632038951E+03  0.34847569144E+03  0.00000000000E+00 0. -1.
</event>
<event>
 7    1  0.6443388E-006  0.1291465E+03  0.7818608E-02  0.1237643E+00
          2   -1    0    0  502    0  0.00000000000E+00  0.00000000000E+00  0.36955350316E+03  0.36955350316E+03  0.00000000000E+00 0. -1.
          1   -1    0    0  501    0 -0.00000000000E+00 -0.00000000000E+00 -0.40703278490E+03  0.40703278490E+03  0.00000000000E+00 0. -1.
         25    2    1    2    0    0 -0.54545198461E+02 -0.50262684040E+01 -0.25019534190E+02  0.13873584214E+03  0.12498485809E+03 0.  0.
          2    1    1    2  501    0  0.13771010537E+03 -0.78469309266E+02 -0.29324466975E+03  0.33333757957E+03  0.00000000000E+00 0. -1.
          1    1    1    2  502    0 -0.83164906907E+02  0.83495577670E+02  0.28078492221E+03  0.30451286635E+03  0.00000000000E+00 0. -1.
         22    1    3    3    0    0 -0.14557541723E+02  0.47178944765E+02 -0.48209330440E+02  0.69006625708E+02  0.00000000000E+00 0.  1.
         22    1    3    3    0    0 -0.39987656738E+02 -0.52205213169E+02  0.23189796250E+02  0.69729216427E+02  0.00000000000E+00 0.  1.
</event>
<event>
 7    1  0.6443388E-006  0.6485709E+02  0.7818608E-02  0.1379399E+00
          2   -1    0    0  502    0  0.00000000000E+00  0.00000000000E+00  0.15206395759E+03  0.15206395759E+03  0.00000000000E+00 0. -1.
          1   -1    0    0  501    0 -0.00000000000E+00 -0.00000000000E+00 -0.49493972167E+03  0.49493972167E+03  0.00000000000E+00 0. -1.
         25    2    1    2    0    0 -0.22957282732E+02  0.11452842650E+02  0.49954128185E+02  0.13703541358E+03  0.12500034086E+03 0.  0.
          2    1    1    2  501    0 -0.12399176664E+02 -0.65264371847E+02 -0.43034939117E+03  0.43544664001E+03  0.00000000000E+00 0. -1.
          1    1    1    2  502    0  0.35356459397E+02  0.53811529197E+02  0.37519498903E+02  0.74521625677E+02  0.00000000000E+00 0. -1.
         22    1    3    3    0    0  0.41056490595E+02  0.19753347647E+02 -0.12471901993E+02  0.47237469265E+02  0.00000000000E+00 0. -1.
         22    1    3    3    0    0 -0.64013773327E+02 -0.83005049970E+01  0.62426030178E+02  0.89797944312E+02  0.00000000000E+00 0. -1.
</event>
<event>
 7    1  0.6443388E-006  0.2895419E+03  0.7818608E-02  0.1191404E+00
          2   -1    0    0  502    0  0.00000000000E+00  0.00000000000E+00  0.33990701382E+04  0.33990701382E+04  0.00000000000E+00 0. -1.
          1   -1    0    0  501    0 -0.00000000000E+00 -0.00000000000E+00 -0.68382371867E+03  0.68382371867E+03  0.00000000000E+00 0. -1.
         25    2    1    2    0    0 -0.20902670993E+03 -0.14279608087E+03  0.29699913416E+03  0.40977600239E+03  0.12500000107E+03 0.  0.
          2    1    1    2  501    0  0.18799862723E+03  0.22599053384E+03 -0.59235844462E+03  0.66128944656E+03  0.00000000000E+00 0. -1.
          1    1    1    2  502    0  0.21028082700E+02 -0.83194452961E+02  0.30106057300E+04  0.30118284079E+04  0.00000000000E+00 0. -1.
         22    1    3    3    0    0 -0.92490167650E+02  0.26306223275E+01  0.12981745410E+03  0.15941744784E+03  0.00000000000E+00 0. -1.
         22    1    3    3    0    0 -0.11653654228E+03 -0.14542670320E+03  0.16718168006E+03  0.25035855455E+03  0.00000000000E+00 0. -1.
</event>
<event>
 7    1  0.6443388E-006  0.2028691E+03  0.7818608E-02  0.1333356E+00
          2   -1    0    0  502    0  0.00000000000E+00  0.00000000000E+00  0.14638595075E+04  0.14638595075E+04  0.00000000000E+00 0. -1.
          1   -1    0    0  501    0 -0.00000000000E+00 -0.00000000000E+00 -0.17545879709E+03  0.17545879709E+03  0.00000000000E+00 0. -1.
         25    2    1    2    0    0  0.12484815436E+02  0.22962658342E+03  0.68069411375E+03  0.72928298330E+03  0.12499981924E+03 0.  0.
          2    1    1    2  501    0 -0.46867166569E+01 -0.20026713333E+03 -0.84318225877E+02  0.21734408946E+03  0.00000000000E+00 0. -1.
          1    1    1    2  502    0 -0.77980987792E+01 -0.29359450089E+02  0.69202482256E+03  0.69269123186E+03  0.00000000000E+00 0. -1.
         22    1    3    3    0    0  0.51018509366E+02  0.36052695926E+02  0.20378155462E+03  0.21314222291E+03  0.00000000000E+00 0.  1.
         22    1    3    3    0    0 -0.38533693930E+02  0.19357388750E+03  0.47691255913E+03  0.51614076040E+03  0.00000000000E+00 0.  1.
</event>
<event>
 7    1  0.6443388E-006  0.6858741E+02  0.7818608E-02  0.1526362E+00
          2   -1    0    0  502    0  0.00000000000E+00  0.00000000000E+00  0.18689247729E+03  0.18689247729E+03  0.00000000000E+00 0. -1.
          1   -1    0    0  501    0 -0.00000000000E+00 -0.00000000000E+00 -0.23898802783E+03  0.23898802783E+03  0.00000000000E+00 0. -1.
         25    2    1    2    0    0 -0.36461687582E+02 -0.40381277689E+02  0.61790596357E+01  0.13646822020E+03  0.12500116839E+03 0.  0.
          2    1    1    2  501    0  0.34659446599E+02  0.60955009772E+02 -0.16574935483E+03  0.17997121737E+03  0.00000000000E+00 0. -1.
          1    1    1    2  502    0  0.18022409836E+01 -0.20573732082E+02  0.10747474466E+03  0.10944106754E+03  0.00000000000E+00 0. -1.
         22    1    3    3    0    0 -0.74506397492E+02 -0.45483643151E+01  0.28147791866E+02  0.79775867731E+02  0.00000000000E+00 0.  1.
         22    1    3    3    0    0  0.38044709910E+02 -0.35832913374E+02 -0.21968732230E+02  0.56692352472E+02  0.00000000000E+00 0.  1.
</event>
<event>
 7    1  0.6443388E-006  0.6873056E+02  0.7818608E-02  0.1466863E+00
          2   -1    0    0  502    0  0.00000000000E+00  0.00000000000E+00  0.94738738856E+03  0.94738738856E+03  0.00000000000E+00 0. -1.
          1   -1    0    0  501    0 -0.00000000000E+00 -0.00000000000E+00 -0.35798919917E+03  0.35798919917E+03  0.00000000000E+00 0. -1.
         25    2    1    2    0    0 -0.61944133260E+02 -0.49442521356E+02  0.23448203823E+03  0.27728811013E+03  0.12500092483E+03 0.  0.
          2    1    1    2  501    0  0.66092640567E+02  0.18637814352E+02 -0.33272891124E+03  0.33974127455E+03  0.00000000000E+00 0. -1.
          1    1    1    2  502    0 -0.41485073079E+01  0.30804707004E+02  0.68764506240E+03  0.68834720304E+03  0.00000000000E+00 0. -1.
         22    1    3    3    0    0 -0.83581086403E+01  0.18762053398E+02 -0.61991467098E+01  0.21454650957E+02  0.00000000000E+00 0.  1.
         22    1    3    3    0    0 -0.53586024619E+02 -0.68204574755E+02  0.24068118494E+03  0.25583345918E+03  0.00000000000E+00 0.  1.
</event>
<event>
 7    1  0.6443388E-006  0.4692318E+02  0.7818608E-02  0.1519648E+00
          2   -1    0    0  502    0  0.00000000000E+00  0.00000000000E+00  0.12287999003E+04  0.12287999003E+04  0.00000000000E+00 0. -1.
          1   -1    0    0  501    0 -0.00000000000E+00 -0.00000000000E+00 -0.66936035586E+02  0.66936035586E+02  0.00000000000E+00 0. -1.
         25    2    1    2    0    0 -0.27581863463E+02  0.30110607762E+02  0.21179359008E+03  0.24929750991E+03  0.12500126302E+03 0.  0.
          2    1    1    2  501    0  0.26419410054E+02  0.17278618567E+02 -0.42386466404E+02  0.52850245236E+02  0.00000000000E+00 0. -1.
          1    1    1    2  502    0  0.11624534088E+01 -0.47389226330E+02  0.99245674106E+03  0.99358818076E+03  0.00000000000E+00 0. -1.
         22    1    3    3    0    0  0.22342529429E+02  0.60108556206E+01  0.18724407735E+03  0.18866813061E+03  0.00000000000E+00 0.  1.
         22    1    3    3    0    0 -0.49924392892E+02  0.24099752142E+02  0.24549512730E+02  0.60629379300E+02  0.00000000000E+00 0.  1.
</event>
<event>
 7    1  0.6443388E-006  0.9440118E+02  0.7818608E-02  0.1406399E+00
          2   -1    0    0  502    0  0.00000000000E+00  0.00000000000E+00  0.15636406656E+03  0.15636406656E+03  0.00000000000E+00 0. -1.
          1   -1    0    0  501    0 -0.00000000000E+00 -0.00000000000E+00 -0.72151001202E+03  0.72151001202E+03  0.00000000000E+00 0. -1.
         25    2    1    2    0    0 -0.67022819199E+02  0.94242230721E+02 -0.46689207364E+02  0.17657393324E+03  0.12499926188E+03 0.  0.
          2    1    1    2  501    0  0.31968124666E+02 -0.87800776950E+02 -0.60266191325E+03  0.60986254116E+03  0.00000000000E+00 0. -1.
          1    1    1    2  502    0  0.35054694533E+02 -0.64414537709E+01  0.84205175152E+02  0.91437604179E+02  0.00000000000E+00 0. -1.
         22    1    3    3    0    0  0.74129763597E+01 -0.25843681167E+02  0.24277601650E+01  0.26995223544E+02  0.00000000000E+00 0.  1.
         22    1    3    3    0    0 -0.74435795559E+02  0.12008591189E+03 -0.49116967529E+02  0.14957870969E+03  0.00000000000E+00 0.  1.
</event>
<event>
 7    1  0.6443388E-006  0.4132383E+02  0.7818608E-02  0.1502187E+00
          2   -1    0    0  502    0  0.00000000000E+00  0.00000000000E+00  0.27531228732E+03  0.27531228732E+03  0.00000000000E+00 0. -1.
          1   -1    0    0  501    0 -0.00000000000E+00 -0.00000000000E+00 -0.23415735923E+03  0.23415735923E+03  0.00000000000E+00 0. -1.
         25    2    1    2    0    0  0.72914407776E+02  0.82394113177E+01  0.16303881055E+03  0.21814842004E+03  0.12499072229E+03 0.  0.
          2    1    1    2  501    0 -0.38823237244E+02  0.13332852566E+02 -0.19958954503E+03  0.20376701203E+03  0.00000000000E+00 0. -1.
          1    1    1    2  502    0 -0.34091170532E+02 -0.21572263884E+02  0.77705662572E+02  0.87554214479E+02  0.00000000000E+00 0. -1.
         22    1    3    3    0    0 -0.28662881033E+02  0.16778833398E+02  0.10782048922E+02  0.34919086161E+02  0.00000000000E+00 0.  1.
         22    1    3    3    0    0  0.10157728881E+03 -0.85394220804E+01  0.15225676163E+03  0.18322933388E+03  0.00000000000E+00 0.  1.
</event>
<event>
 7    1  0.6443388E-006  0.2866032E+02  0.7818608E-02  0.1629497E+00
          2   -1    0    0  502    0  0.00000000000E+00  0.00000000000E+00  0.13770151904E+04  0.13770151904E+04  0.00000000000E+00 0. -1.
          1   -1    0    0  501    0 -0.00000000000E+00 -0.00000000000E+00 -0.59486500520E+02  0.59486500520E+02  0.00000000000E+00 0. -1.
         25    2    1    2    0    0  0.17928483354E+01  0.51042225803E+02  0.41035929925E+02  0.14112990862E+03  0.12500072176E+03 0.  0.
          2    1    1    2  501    0  0.88960287661E+01 -0.24516998820E+02  0.90502723511E+01  0.27606701878E+02  0.00000000000E+00 0. -1.
          1    1    1    2  502    0 -0.10688877101E+02 -0.26525226983E+02  0.12674424876E+04  0.12677650804E+04  0.00000000000E+00 0. -1.
         22    1    3    3    0    0  0.33363560723E+02  0.42126723703E+01  0.69999767481E+02  0.77658491101E+02  0.00000000000E+00 0.  1.
         22    1    3    3    0    0 -0.31570712388E+02  0.46829553433E+02 -0.28963837557E+02  0.63471417516E+02  0.00000000000E+00 0.  1.
</event>
<event>
 7    1  0.6443388E-006  0.7348750E+02  0.7818608E-02  0.1370963E+00
          2   -1    0    0  502    0  0.00000000000E+00  0.00000000000E+00  0.14485244370E+04  0.14485244370E+04  0.00000000000E+00 0. -1.
          1   -1    0    0  501    0 -0.00000000000E+00 -0.00000000000E+00 -0.21047563118E+04  0.21047563118E+04  0.00000000000E+00 0. -1.
         25    2    1    2    0    0 -0.18165752890E+01 -0.81224980411E+02  0.36035557027E+03  0.38997732769E+03  0.12500152678E+03 0.  0.
          2    1    1    2  501    0 -0.52883860513E+02  0.30208391384E+02 -0.20881978015E+04  0.20890857589E+04  0.00000000000E+00 0. -1.
          1    1    1    2  502    0  0.54700435802E+02  0.51016589027E+02  0.10716103564E+04  0.10742176623E+04  0.00000000000E+00 0. -1.
         22    1    3    3    0    0 -0.22152669508E+02 -0.10242236007E+03  0.18886031648E+03  0.21598448960E+03  0.00000000000E+00 0. -1.
         22    1    3    3    0    0  0.20336094219E+02  0.21197379657E+02  0.17149525380E+03  0.17399283809E+03  0.00000000000E+00 0. -1.
</event>
<event>
 7    1  0.6443388E-006  0.1328264E+03  0.7818608E-02  0.1315215E+00
          2   -1    0    0  502    0  0.00000000000E+00  0.00000000000E+00  0.36658091476E+03  0.36658091476E+03  0.00000000000E+00 0. -1.
          1   -1    0    0  501    0 -0.00000000000E+00 -0.00000000000E+00 -0.19095193352E+04  0.19095193352E+04  0.00000000000E+00 0. -1.
         25    2    1    2    0    0  0.82369614058E+02 -0.12709910917E+02 -0.57521598072E+02  0.16087035465E+03  0.12499696638E+03 0.  0.
          2    1    1    2  501    0 -0.12894852875E+03  0.41007311990E+02 -0.17954001618E+04  0.18004918949E+04  0.00000000000E+00 0. -1.
          1    1    1    2  502    0  0.46578914691E+02 -0.28297401073E+02  0.30998333939E+03  0.31473800041E+03  0.00000000000E+00 0. -1.
         22    1    3    3    0    0 -0.17703304183E+02  0.83145173501E+01  0.23378328014E+02  0.30480885789E+02  0.00000000000E+00 0.  1.
         22    1    3    3    0    0  0.10007291824E+03 -0.21024428267E+02 -0.80899926085E+02  0.13038946886E+03  0.00000000000E+00 0.  1.
</event>
<event>
 7    1  0.6443388E-006  0.2521451E+03  0.7818608E-02  0.1153173E+00
          2   -1    0    0  502    0  0.00000000000E+00  0.00000000000E+00  0.14573975018E+04  0.14573975018E+04  0.00000000000E+00 0. -1.
          1   -1    0    0  501    0 -0.00000000000E+00 -0.00000000000E+00 -0.55335131711E+03  0.55335131711E+03  0.00000000000E+00 0. -1.
         25    2    1    2    0    0  0.54379236566E+02  0.13432892724E+03  0.80470352654E+02  0.20761270369E+03  0.12500477997E+03 0.  0.
          2    1    1    2  501    0 -0.17949577420E+03 -0.22122089870E+03 -0.44340295409E+03  0.52703282504E+03  0.00000000000E+00 0. -1.
          1    1    1    2  502    0  0.12511653763E+03  0.86891971454E+02  0.12669787861E+04  0.12761032902E+04  0.00000000000E+00 0. -1.
         22    1    3    3    0    0  0.60015664447E+02  0.12995364291E+03  0.17464551810E+02  0.14420416032E+03  0.00000000000E+00 0. -1.
         22    1    3    3    0    0 -0.56364278810E+01  0.43752843339E+01  0.63005800844E+02  0.63408543370E+02  0.00000000000E+00 0. -1.
</event>
<event>
 7    1  0.6443388E-006  0.7817328E+02  0.7818608E-02  0.1492063E+00
          2   -1    0    0  502    0  0.00000000000E+00  0.00000000000E+00  0.41103309700E+03  0.41103309700E+03  0.00000000000E+00 0. -1.
          1   -1    0    0  501    0 -0.00000000000E+00 -0.00000000000E+00 -0.16355625299E+04  0.16355625299E+04  0.00000000000E+00 0. -1.
         25    2    1    2    0    0  0.35068359683E+02  0.49250704806E+02  0.24182911031E+03  0.27885741912E+03  0.12499887932E+03 0.  0.
          2    1    1    2  501    0 -0.57642834588E+02 -0.52907404408E+02 -0.16152282762E+04  0.16171222199E+04  0.00000000000E+00 0. -1.
          1    1    1    2  502    0  0.22574474905E+02  0.36566996023E+01  0.14886973305E+03  0.15061598782E+03  0.00000000000E+00 0. -1.
         22    1    3    3    0    0  0.49868662168E+02  0.16130811309E+02  0.23644400042E+03  0.24218350868E+03  0.00000000000E+00 0. -1.
         22    1    3    3    0    0 -0.14800302485E+02  0.33119893497E+02  0.53851098920E+01  0.36673910447E+02  0.00000000000E+00 0. -1.
</event>
<event>
 7    1  0.6443388E-006  0.1406909E+03  0.7818608E-02  0.1364910E+00
          2   -1    0    0  502    0  0.00000000000E+00  0.00000000000E+00  0.24077311448E+03  0.24077311448E+03  0.00000000000E+00 0. -1.
          1   -1    0    0  501    0 -0.00000000000E+00 -0.00000000000E+00 -0.84420887004E+03  0.84420887004E+03  0.00000000000E+00 0. -1.
         25    2    1    2    0    0 -0.16166272961E+03  0.39854594930E+02  0.13197740720E+02  0.20862188455E+03  0.12500273387E+03 0.  0.
          2    1    1    2  501    0  0.12986697188E+03 -0.50248352698E+02 -0.73771529232E+03  0.75074241911E+03  0.00000000000E+00 0. -1.
          1    1    1    2  502    0  0.31795757725E+02  0.10393757768E+02  0.12108179604E+03  0.12561768085E+03  0.00000000000E+00 0. -1.
         22    1    3    3    0    0  0.18299807082E+01 -0.11610747583E+02 -0.29693377435E+02  0.31935167955E+02  0.00000000000E+00 0. -1.
         22    1    3    3    0    0 -0.16349271031E+03  0.51465342513E+02  0.42891118155E+02  0.17668671660E+03  0.00000000000E+00 0. -1.
</event>
<event>
 7    1  0.6443388E-006  0.1440367E+03  0.7818608E-02  0.1209036E+00
          2   -1    0    0  502    0  0.00000000000E+00  0.00000000000E+00  0.18925265111E+04  0.18925265111E+04  0.00000000000E+00 0. -1.
          1   -1    0    0  501    0 -0.00000000000E+00 -0.00000000000E+00 -0.27784667273E+03  0.27784667273E+03  0.00000000000E+00 0. -1.
         25    2    1    2    0    0 -0.66916489196E+01 -0.79627337895E+02  0.52908925579E+03  0.54949729327E+03  0.12500617431E+03 0.  0.
          2    1    1    2  501    0 -0.13472427607E+03  0.62527959022E+02 -0.24293170069E+03  0.28473880561E+03  0.00000000000E+00 0. -1.
          1    1    1    2  502    0  0.14141592499E+03  0.17099378873E+02  0.13285222833E+04  0.13361370850E+04  0.00000000000E+00 0. -1.
         22    1    3    3    0    0  0.54483823250E+02 -0.35863274634E+02  0.15932539996E+03  0.17216051968E+03  0.00000000000E+00 0.  1.
         22    1    3    3    0    0 -0.61175472170E+02 -0.43764063261E+02  0.36976385583E+03  0.37733677359E+03  0.00000000000E+00 0.  1.
</event>
<event>
 7    1  0.6443388E-006  0.8881739E+02  0.7818608E-02  0.1365204E+00
          2   -1    0    0  502    0  0.00000000000E+00  0.00000000000E+00  0.12657415466E+03  0.12657415466E+03  0.00000000000E+00 0. -1.
          1   -1    0    0  501    0 -0.00000000000E+00 -0.00000000000E+00 -0.13800820370E+04  0.13800820370E+04  0.00000000000E+00 0. -1.
         25    2    1    2    0    0 -0.66577275594E+02 -0.12272184273E+03 -0.75909810480E+03  0.78188758131E+03  0.12500029112E+03 0.  0.
          2    1    1    2  501    0  0.17946848696E+02  0.49719415365E+02 -0.59153740159E+03  0.59389444106E+03  0.00000000000E+00 0. -1.
          1    1    1    2  502    0  0.48630426898E+02  0.73002427363E+02  0.97127624075E+02  0.13087416926E+03  0.00000000000E+00 0. -1.
         22    1    3    3    0    0 -0.34783360787E+02 -0.11964367143E+03 -0.34949324798E+03  0.37103910937E+03  0.00000000000E+00 0.  1.
         22    1    3    3    0    0 -0.31793914807E+02 -0.30781712961E+01 -0.40960485682E+03  0.41084847193E+03  0.00000000000E+00 0.  1.
</event>
<event>
 7    1  0.6443388E-006  0.5284713E+02  0.7818608E-02  0.1450856E+00
          2   -1    0    0  502    0  0.00000000000E+00  0.00000000000E+00  0.30845008616E+03  0.30845008616E+03  0.00000000000E+00 0. -1.
          1   -1    0    0  501    0 -0.00000000000E+00 -0.00000000000E+00 -0.24860473774E+04  0.24860473774E+04  0.00000000000E+00 0. -1.
         25    2    1    2    0    0  0.60200044830E+02  0.76204954143E+02 -0.33955745060E+03  0.37464236225E+03  0.12500558747E+03 0.  0.
          2    1    1    2  501    0 -0.28921786228E+02 -0.43273948089E+02 -0.21268544250E+04  0.21274912102E+04  0.00000000000E+00 0. -1.
          1    1    1    2  502    0 -0.31278258602E+02 -0.32931006055E+02  0.28881458442E+03  0.29236389106E+03  0.00000000000E+00 0. -1.
         22    1    3    3    0    0  0.43441445104E+02 -0.24450096836E+02 -0.66266716023E+02  0.82923121266E+02  0.00000000000E+00 0.  1.
         22    1    3    3    0    0  0.16758599726E+02  0.10065505098E+03 -0.27329073458E+03  0.29171924098E+03  0.00000000000E+00 0.  1.
</event>
<event>
 7    1  0.6443388E-006  0.2522003E+03  0.7818608E-02  0.1323973E+00
          2   -1    0    0  502    0  0.00000000000E+00  0.00000000000E+00  0.82232963259E+03  0.82232963259E+03  0.00000000000E+00 0. -1.
          1   -1    0    0  501    0 -0.00000000000E+00 -0.00000000000E+00 -0.19420044537E+04  0.19420044537E+04  0.00000000000E+00 0. -1.
         25    2    1    2    0    0 -0.14964300775E+03 -0.19763877906E+03  0.28850299694E+03  0.40039103122E+03  0.12499952753E+03 0.  0.
          2    1    1    2  501    0 -0.24276883054E+02  0.10729760166E+02 -0.18518585891E+04  0.18520487922E+04  0.00000000000E+00 0. -1.
          1    1    1    2  502    0  0.17391989081E+03  0.18690901889E+03  0.44368077103E+03  0.51189426286E+03  0.00000000000E+00 0. -1.
         22    1    3    3    0    0 -0.79611980101E+02 -0.29787180471E+02  0.44156831395E+02  0.95787103802E+02  0.00000000000E+00 0.  1.
         22    1    3    3    0    0 -0.70031027653E+02 -0.16785159859E+03  0.24434616555E+03  0.30460392742E+03  0.00000000000E+00 0.  1.
</event>
<event>
 7    1  0.6443388E-006  0.7552916E+02  0.7818608E-02  0.1376149E+00
          2   -1    0    0  502    0  0.00000000000E+00  0.00000000000E+00  0.36240726221E+03  0.36240726221E+03  0.00000000000E+00 0. -1.
          1   -1    0    0  501    0 -0.00000000000E+00 -0.00000000000E+00 -0.56254949618E+03  0.56254949618E+03  0.00000000000E+00 0. -1.
         25    2    1    2    0    0 -0.46813232053E+01 -0.20553524327E+02 -0.93020160342E+02  0.15722296990E+03  0.12498779894E+03 0.  0.
          2    1    1    2  501    0 -0.92477254505E+00 -0.56772407629E+02 -0.43099073133E+03  0.43471481682E+03  0.00000000000E+00 0. -1.
          1    1    1    2  502    0  0.56060957503E+01  0.77325931957E+02  0.32386865769E+03  0.33301897168E+03  0.00000000000E+00 0. -1.
         22    1    3    3    0    0  0.24098976023E+00 -0.23143580913E+02 -0.12379983896E+03  0.12594476385E+03  0.00000000000E+00 0.  1.
         22    1    3    3    0    0 -0.49223129655E+01  0.25900565859E+01  0.30779678618E+02  0.31278206052E+02  0.00000000000E+00 0.  1.
</event>
<event>
 7    1  0.6443388E-006  0.9291302E+02  0.7818608E-02  0.1474344E+00
          2   -1    0    0  502    0  0.00000000000E+00  0.00000000000E+00  0.12594015049E+04  0.12594015049E+04  0.00000000000E+00 0. -1.
          1   -1    0    0  501    0 -0.00000000000E+00 -0.00000000000E+00 -0.25586742795E+03  0.25586742795E+03  0.00000000000E+00 0. -1.
         25    2    1    2    0    0  0.72176005455E+02  0.83163601627E+02  0.18545478745E+03  0.24928718709E+03  0.12500025224E+03 0.  0.
          2    1    1    2  501    0 -0.68528375738E+02 -0.61676754977E+02 -0.21434249512E+03  0.23332995007E+03  0.00000000000E+00 0. -1.
          1    1    1    2  502    0 -0.36476297162E+01 -0.21486846650E+02  0.10324217846E+04  0.10326517957E+04  0.00000000000E+00 0. -1.
         22    1    3    3    0    0  0.51508112864E+02  0.11649034827E+03  0.14189917344E+03  0.19067895100E+03  0.00000000000E+00 0.  1.
         22    1    3    3    0    0  0.20667892590E+02 -0.33326746643E+02  0.43555614014E+02  0.58608236094E+02  0.00000000000E+00 0.  1.
</event>
<event>
 7    1  0.6443388E-006  0.2462035E+03  0.7818608E-02  0.1251194E+00
          2   -1    0    0  502    0  0.00000000000E+00  0.00000000000E+00  0.25245334074E+04  0.25245334074E+04  0.00000000000E+00 0. -1.
          1   -1    0    0  501    0 -0.00000000000E+00 -0.00000000000E+00 -0.15617294918E+03  0.15617294918E+03  0.00000000000E+00 0. -1.
         25    2    1    2    0    0  0.21242359689E+03  0.15231461694E+03  0.10613860442E+04  0.11002224522E+04  0.12500233038E+03 0.  0.
          2    1    1    2  501    0 -0.48667143330E+02  0.23221516095E+02 -0.12099991699E+03  0.13247154246E+03  0.00000000000E+00 0. -1.
          1    1    1    2  502    0 -0.16375645356E+03 -0.17553613303E+03  0.14279743311E+04  0.14480123619E+04  0.00000000000E+00 0. -1.
         22    1    3    3    0    0  0.17045812550E+03  0.48363544240E+02  0.61981673254E+03  0.64464547380E+03  0.00000000000E+00 0.  1.
         22    1    3    3    0    0  0.41965471384E+02  0.10395107270E+03  0.44156931162E+03  0.45557697842E+03  0.00000000000E+00 0.  1.
</event>
<event>
 7    1  0.6443388E-006  0.6617194E+02  0.7818608E-02  0.1380850E+00
          2   -1    0    0  502    0  0.00000000000E+00  0.00000000000E+00  0.76240117298E+02  0.76240117298E+02  0.00000000000E+00 0. -1.
          1   -1    0    0  501    0 -0.00000000000E+00 -0.00000000000E+00 -0.43143364834E+03  0.43143364834E+03  0.00000000000E+00 0. -1.
         25    2    1    2    0    0  0.42716366359E+02  0.69907202972E+02 -0.94560314207E+02  0.17685854829E+03  0.12500235238E+03 0.  0.
          2    1    1    2  501    0  0.23806155975E+02 -0.57643578505E+02 -0.25547295282E+03  0.26297517911E+03  0.00000000000E+00 0. -1.
          1    1    1    2  502    0 -0.66522522335E+02 -0.12263624467E+02 -0.51602640154E+01  0.67840038234E+02  0.00000000000E+00 0. -1.
         22    1    3    3    0    0  0.53464986318E+02 -0.73337059599E+01 -0.81559755476E+02  0.97797145758E+02  0.00000000000E+00 0.  1.
         22    1    3    3    0    0 -0.10748619959E+02  0.77240908932E+02 -0.13000558731E+02  0.79061402536E+02  0.00000000000E+00 0.  1.
</event>
<event>
 7    1  0.6443388E-006  0.2304691E+03  0.7818608E-02  0.1230695E+00
          2   -1    0    0  502    0  0.00000000000E+00  0.00000000000E+00  0.13095666544E+04  0.13095666544E+04  0.00000000000E+00 0. -1.
          1   -1    0    0  501    0 -0.00000000000E+00 -0.00000000000E+00 -0.32003412281E+03  0.32003412281E+03  0.00000000000E+00 0. -1.
         25    2    1    2    0    0  0.21066634225E+03 -0.60477607454E+01 -0.90442566462E+02  0.26119489246E+03  0.12500412335E+03 0.  0.
          2    1    1    2  501    0 -0.25352042807E+03  0.62547388991E+02 -0.23938333415E+02  0.26221713736E+03  0.00000000000E+00 0. -1.
          1    1    1    2  502    0  0.42854085823E+02 -0.56499628246E+02  0.11039134314E+04  0.11061887473E+04  0.00000000000E+00 0. -1.
         22    1    3    3    0    0 -0.80195869108E+00  0.30376329691E+02 -0.13256893904E+02  0.33152824604E+02  0.00000000000E+00 0.  1.
         22    1    3    3    0    0  0.21146830094E+03 -0.36424090437E+02 -0.77185672558E+02  0.22804206786E+03  0.00000000000E+00 0.  1.
</event>
<event>
 7    1  0.6443388E-006  0.8240452E+02  0.7818608E-02  0.1377569E+00
          2   -1    0    0  502    0  0.00000000000E+00  0.00000000000E+00  0.20697102668E+03  0.20697102668E+03  0.00000000000E+00 0. -1.
          1   -1    0    0  501    0 -0.00000000000E+00 -0.00000000000E+00 -0.94100087436E+03  0.94100087436E+03  0.00000000000E+00 0. -1.
         25    2    1    2    0    0  0.58273340523E+02  0.49946870753E+02 -0.66060807816E+03  0.67669721861E+03  0.12500248251E+03 0.  0.
          2    1    1    2  501    0  0.24280127710E+02 -0.45349690723E+02 -0.26113794850E+03  0.26615624584E+03  0.00000000000E+00 0. -1.
          1    1    1    2  502    0 -0.82553468233E+02 -0.45971800298E+01  0.18771617898E+03  0.20511843660E+03  0.00000000000E+00 0. -1.
         22    1    3    3    0    0  0.83772794410E+02 -0.72213693887E+01 -0.38076106759E+03  0.38993463535E+03  0.00000000000E+00 0.  1.
         22    1    3    3    0    0 -0.25499453888E+02  0.57168240142E+02 -0.27984701057E+03  0.28676258326E+03  0.00000000000E+00 0.  1.
</event>
<event>
 7    1  0.6443388E-006  0.1353545E+03  0.7818608E-02  0.1369011E+00
          2   -1    0    0  502    0  0.00000000000E+00  0.00000000000E+00  0.20166819181E+04  0.20166819181E+04  0.00000000000E+00 0. -1.
          1   -1    0    0  501    0 -0.00000000000E+00 -0.00000000000E+00 -0.18971889958E+03  0.18971889958E+03  0.00000000000E+00 0. -1.
         25    2    1    2    0    0  0.86281961846E+02 -0.14072464080E+03  0.72646640459E+03  0.75539795814E+03  0.12499854677E+03 0.  0.
          2    1    1    2  501    0 -0.59473326201E+02  0.12046217442E+03 -0.14924811955E+03  0.20080640723E+03  0.00000000000E+00 0. -1.
          1    1    1    2  502    0 -0.26808635645E+02  0.20262466383E+02  0.12497447335E+04  0.12501964524E+04  0.00000000000E+00 0. -1.
         22    1    3    3    0    0  0.37045807734E+02 -0.83620811320E+01  0.37049258151E+03  0.37243397969E+03  0.00000000000E+00 0. -1.
         22    1    3    3    0    0  0.49236154112E+02 -0.13236255967E+03  0.35597382308E+03  0.38296397845E+03  0.00000000000E+00 0. -1.
</event>
<event>
 7    1  0.6443388E-006  0.5615898E+02  0.7818608E-02  0.1414873E+00
          2   -1    0    0  502    0  0.00000000000E+00  0.00000000000E+00  0.81844707700E+03  0.81844707700E+03  0.00000000000E+00 0. -1.
          1   -1    0    0  501    0 -0.00000000000E+00 -0.00000000000E+00 -0.33152464890E+03  0.33152464890E+03  0.00000000000E+00 0. -1.
         25    2    1    2    0    0 -0.41844683474E+01 -0.26895471990E+02  0.13350713125E+03  0.18490618652E+03  0.12500107011E+03 0.  0.
          2    1    1    2  501    0 -0.53472058904E+02  0.17163030234E+02 -0.30193429006E+03  0.30711259532E+03  0.00000000000E+00 0. -1.
          1    1    1    2  502    0  0.57656527251E+02  0.97324417565E+01  0.65534958690E+03  0.65795294407E+03  0.00000000000E+00 0. -1.
         22    1    3    3    0    0  0.10397394867E+02  0.46413459718E+02  0.79679549498E+02  0.92796258929E+02  0.00000000000E+00 0. -1.
         22    1    3    3    0    0 -0.14581863215E+02 -0.73308931708E+02  0.53827581754E+02  0.92109927589E+02  0.00000000000E+00 0. -1.
</event>
<event>
 7    1  0.6443388E-006  0.8126808E+02  0.7818608E-02  0.1368550E+00
          2   -1    0    0  502    0  0.00000000000E+00  0.00000000000E+00  0.58268705240E+03  0.58268705240E+03  0.00000000000E+00 0. -1.
          1   -1    0    0  501    0 -0.00000000000E+00 -0.00000000000E+00 -0.16966956572E+04  0.16966956572E+04  0.00000000000E+00 0. -1.
         25    2    1    2    0    0  0.27433416862E+02  0.11456602513E+03 -0.10140634907E+03  0.19946614911E+03  0.12500212212E+03 0.  0.
          2    1    1    2  501    0  0.16129587147E+02 -0.79084674424E+02 -0.15437234077E+04  0.15458319795E+04  0.00000000000E+00 0. -1.
          1    1    1    2  502    0 -0.43563004010E+02 -0.35481350705E+02  0.53112115198E+03  0.53408458099E+03  0.00000000000E+00 0. -1.
         22    1    3    3    0    0  0.63584390896E+02  0.81313414535E+02 -0.21142085994E+02  0.10536524071E+03  0.00000000000E+00 0. -1.
         22    1    3    3    0    0 -0.36150974034E+02  0.33252610594E+02 -0.80264263073E+02  0.94100908399E+02  0.00000000000E+00 0. -1.
</event>
<event>
 7    1  0.6443388E-006  0.5951404E+02  0.7818608E-02  0.1458183E+00
          2   -1    0    0  502    0  0.00000000000E+00  0.00000000000E+00  0.10309966819E+04  0.10309966819E+04  0.00000000000E+00 0. -1.
          1   -1    0    0  501    0 -0.00000000000E+00 -0.00000000000E+00 -0.19985769015E+03  0.19985769015E+03  0.00000000000E+00 0. -1.
         25    2    1    2    0    0 -0.83571254884E+02 -0.22087515290E+02  0.69727233605E+03  0.71364294510E+03  0.12500211797E+03 0.  0.
          2    1    1    2  501    0  0.58945638592E+02 -0.71469955363E+01 -0.18590813525E+03  0.19516019729E+03  0.00000000000E+00 0. -1.
          1    1    1    2  502    0  0.24625616292E+02  0.29234510826E+02  0.31977479092E+03  0.32205122963E+03  0.00000000000E+00 0. -1.
         22    1    3    3    0    0 -0.95211950069E+02  0.18470147392E+01  0.28453068024E+03  0.30004405493E+03  0.00000000000E+00 0. -1.
         22    1    3    3    0    0  0.11640695185E+02 -0.23934530029E+02  0.41274165581E+03  0.41359889018E+03  0.00000000000E+00 0. -1.
</event>
<event>
 7    1  0.6443388E-006  0.1092733E+03  0.7818608E-02  0.1454264E+00
          2   -1    0    0  502    0  0.00000000000E+00  0.00000000000E+00  0.91563328330E+02  0.91563328330E+02  0.00000000000E+00 0. -1.
          1   -1    0    0  501    0 -0.00000000000E+00 -0.00000000000E+00 -0.90668623225E+03  0.90668623225E+03  0.00000000000E+00 0. -1.
         25    2    1    2    0    0 -0.29422297279E+02  0.11594861331E+03 -0.30786962911E+03  0.35315444928E+03  0.12499841602E+03 0.  0.
          2    1    1    2  501    0  0.10068285964E+02 -0.10676448408E+03 -0.56937372782E+03  0.57938455914E+03  0.00000000000E+00 0. -1.
          1    1    1    2  502    0  0.19354011315E+02 -0.91841292325E+01  0.62120453007E+02  0.65710552163E+02  0.00000000000E+00 0. -1.
         22    1    3    3    0    0 -0.53811481928E+02  0.68751921120E+02 -0.77512236717E+02  0.11675037082E+03  0.00000000000E+00 0. -1.
         22    1    3    3    0    0  0.24389184648E+02  0.47196692193E+02 -0.23035739240E+03  0.23640407846E+03  0.00000000000E+00 0. -1.
</event>
<event>
 7    1  0.6443388E-006  0.1167428E+03  0.7818608E-02  0.1318935E+00
          2   -1    0    0  502    0  0.00000000000E+00  0.00000000000E+00  0.97506150080E+03  0.97506150080E+03  0.00000000000E+00 0. -1.
          1   -1    0    0  501    0 -0.00000000000E+00 -0.00000000000E+00 -0.16413448694E+03  0.16413448694E+03  0.00000000000E+00 0. -1.
         25    2    1    2    0    0 -0.11666775754E+03  0.12366442703E+03  0.25216777983E+03  0.32881205523E+03  0.12499808924E+03 0.  0.
          2    1    1    2  501    0  0.45305728628E+02 -0.39296144308E+02 -0.11389159056E+03  0.12871709445E+03  0.00000000000E+00 0. -1.
          1    1    1    2  502    0  0.71362028912E+02 -0.84368282727E+02  0.67265082459E+03  0.68166683806E+03  0.00000000000E+00 0. -1.
         22    1    3    3    0    0 -0.29082271845E+02  0.11624211606E+03  0.17346464950E+03  0.21082692596E+03  0.00000000000E+00 0. -1.
         22    1    3    3    0    0 -0.87585485695E+02  0.74223109705E+01  0.78703130338E+02  0.11798512927E+03  0.00000000000E+00 0. -1.
</event>
<event>
 7    1  0.6443388E-006  0.8814658E+02  0.7818608E-02  0.1402597E+00
          2   -1    0    0  502    0  0.00000000000E+00  0.00000000000E+00  0.88670422984E+02  0.88670422984E+02  0.00000000000E+00 0. -1.
          1   -1    0    0  501    0 -0.00000000000E+00 -0.00000000000E+00 -0.17133261557E+04  0.17133261557E+04  0.00000000000E+00 0. -1.
         25    2    1    2    0    0 -0.11255867146E+03  0.33259203851E+02 -0.91239611672E+03  0.92836829821E+03  0.12500157655E+03 0.  0.
          2    1    1    2  501    0  0.25127682876E+02 -0.30255547133E+02 -0.76857903693E+03  0.76958465070E+03  0.00000000000E+00 0. -1.
          1    1    1    2  502    0  0.87430988582E+02 -0.30036567178E+01  0.56319420955E+02  0.10404362977E+03  0.00000000000E+00 0. -1.
         22    1    3    3    0    0 -0.11664973266E+03  0.61170213808E+02 -0.84652706700E+03  0.85671292178E+03  0.00000000000E+00 0.  1.
         22    1    3    3    0    0  0.40910612040E+01 -0.27911009957E+02 -0.65869049723E+02  0.71655376421E+02  0.00000000000E+00 0.  1.
</event>
<event>
 7    1  0.6443388E-006  0.1139756E+03  0.7818608E-02  0.1298288E+00
          2   -1    0    0  502    0  0.00000000000E+00  0.00000000000E+00  0.69996671607E+03  0.69996671607E+03  0.00000000000E+00 0. -1.
          1   -1    0    0  501    0 -0.00000000000E+00 -0.00000000000E+00 -0.59347272943E+03  0.59347272943E+03  0.00000000000E+00 0. -1.
         25    2    1    2    0    0  0.15019627681E+03 -0.10603726198E+03  0.20063772100E+03  0.29947294133E+03  0.12500289998E+03 0.  0.
          2    1    1    2  501    0 -0.82122442984E+02  0.76719275843E+02 -0.53512560724E+03  0.54679919391E+03  0.00000000000E+00 0. -1.
          1    1    1    2  502    0 -0.68073833830E+02  0.29317986138E+02  0.44098187288E+03  0.44716731027E+03  0.00000000000E+00 0. -1.
         22    1    3    3    0    0  0.75035191795E+02 -0.35163421781E+02  0.17409579671E+03  0.19281102839E+03  0.00000000000E+00 0. -1.
         22    1    3    3    0    0  0.75161085019E+02 -0.70873840200E+02  0.26541924288E+02  0.10666191293E+03  0.00000000000E+00 0. -1.
</event>
<event>
 7    1  0.6443388E-006  0.1487162E+03  0.7818608E-02  0.1226798E+00
          2   -1    0    0  502    0  0.00000000000E+00  0.00000000000E+00  0.23293331588E+03  0.23293331588E+03  0.00000000000E+00 0. -1.
          1   -1    0    0  501    0 -0.00000000000E+00 -0.00000000000E+00 -0.34493156791E+03  0.34493156791E+03  0.00000000000E+00 0. -1.
         25    2    1    2    0    0 -0.56872673009E+01 -0.88950299072E+02  0.25587815821E+02  0.15563022827E+03  0.12498612290E+03 0.  0.
          2    1    1    2  501    0  0.11132666027E+03  0.13290018226E+03 -0.22082067297E+03  0.28074517510E+03  0.00000000000E+00 0. -1.
          1    1    1    2  502    0 -0.10563939297E+03 -0.43949883184E+02  0.83234605128E+02  0.14148948042E+03  0.00000000000E+00 0. -1.
         22    1    3    3    0    0 -0.62241367325E+02 -0.61912447819E+02 -0.34957199387E+00  0.87791008663E+02  0.00000000000E+00 0. -1.
         22    1    3    3    0    0  0.56554100024E+02 -0.27037851252E+02  0.25937387815E+02  0.67839219604E+02  0.00000000000E+00 0. -1.
</event>
<event>
 7    1  0.6443388E-006  0.6328391E+02  0.7818608E-02  0.1462571E+00
          2   -1    0    0  502    0  0.00000000000E+00  0.00000000000E+00  0.13442566610E+04  0.13442566610E+04  0.00000000000E+00 0. -1.
          1   -1    0    0  501    0 -0.00000000000E+00 -0.00000000000E+00 -0.67915321796E+02  0.67915321796E+02  0.00000000000E+00 0. -1.
         25    2    1    2    0    0  0.48752576641E+02  0.29828719837E+01  0.69378509853E+03  0.70664810201E+03  0.12501226286E+03 0.  0.
          2    1    1    2  501    0 -0.55696615744E+02  0.31137543583E+02 -0.44313723843E+02  0.77687616430E+02  0.00000000000E+00 0. -1.
          1    1    1    2  502    0  0.69440391031E+01 -0.34120415566E+02  0.62686996455E+03  0.62783626440E+03  0.00000000000E+00 0. -1.
         22    1    3    3    0    0 -0.19596758566E+02 -0.13072412969E+02  0.25617847606E+02  0.34802227559E+02  0.00000000000E+00 0.  1.
         22    1    3    3    0    0  0.68349335207E+02  0.16055284953E+02  0.66816725093E+03  0.67184587445E+03  0.00000000000E+00 0.  1.
</event>
<event>
 7    1  0.6443388E-006  0.1788899E+03  0.7818608E-02  0.1218664E+00
          2   -1    0    0  502    0  0.00000000000E+00  0.00000000000E+00  0.86615023416E+03  0.86615023416E+03  0.00000000000E+00 0. -1.
          1   -1    0    0  501    0 -0.00000000000E+00 -0.00000000000E+00 -0.23639610170E+04  0.23639610170E+04  0.00000000000E+00 0. -1.
         25    2    1    2    0    0 -0.14557376794E+03  0.38119557761E+02 -0.12154696827E+04  0.12311118866E+04  0.12500042104E+03 0.  0.
          2    1    1    2  501    0  0.18465901864E+03 -0.13401813975E+03 -0.11260627923E+04  0.11489461376E+04  0.00000000000E+00 0. -1.
          1    1    1    2  502    0 -0.39085250696E+02  0.95898581988E+02  0.84372169213E+03  0.85005322693E+03  0.00000000000E+00 0. -1.
         22    1    3    3    0    0 -0.78639158686E+02  0.58857541313E+02 -0.37244710594E+03  0.38518200136E+03  0.00000000000E+00 0. -1.
         22    1    3    3    0    0 -0.66934609255E+02 -0.20737983552E+02 -0.84302257676E+03  0.84592988528E+03  0.00000000000E+00 0. -1.
</event>
<event>
 7    1  0.6443388E-006  0.1101543E+03  0.7818608E-02  0.1296825E+00
          2   -1    0    0  502    0  0.00000000000E+00  0.00000000000E+00  0.52825743400E+03  0.52825743400E+03  0.00000000000E+00 0. -1.
          1   -1    0    0  501    0 -0.00000000000E+00 -0.00000000000E+00 -0.34342654360E+03  0.34342654360E+03  0.00000000000E+00 0. -1.
         25    2    1    2    0    0  0.70568380679E+02  0.28223685756E+02  0.10597089618E+02  0.14667432562E+03  0.12499834678E+03 0.  0.
          2    1    1    2  501    0 -0.55702474698E+02 -0.10452409026E+03 -0.25903199384E+03  0.28482560448E+03  0.00000000000E+00 0. -1.
          1    1    1    2  502    0 -0.14865905981E+02  0.76300404504E+02  0.43326579462E+03  0.44018404750E+03  0.00000000000E+00 0. -1.
         22    1    3    3    0    0  0.95369470671E+02  0.37006276318E+02  0.37585161408E+02  0.10898369044E+03  0.00000000000E+00 0.  1.
         22    1    3    3    0    0 -0.24801089991E+02 -0.87825905618E+01 -0.26988071790E+02  0.37690635185E+02  0.00000000000E+00 0.  1.
</event>
<event>
 7    1  0.6443388E-006  0.1197239E+03  0.7818608E-02  0.1310401E+00
          2   -1    0    0  502    0  0.00000000000E+00  0.00000000000E+00  0.99285241237E+03  0.99285241237E+03  0.00000000000E+00 0. -1.
          1   -1    0    0  501    0 -0.00000000000E+00 -0.00000000000E+00 -0.34158845931E+03  0.34158845931E+03  0.00000000000E+00 0. -1.
         25    2    1    2    0    0  0.41673072178E+02 -0.13620288100E+03  0.23885717186E+03  0.30490164816E+03  0.12499758702E+03 0.  0.
          2    1    1    2  501    0 -0.60081375316E+02  0.19456101941E+02 -0.30041727719E+03  0.30698347186E+03  0.00000000000E+00 0. -1.
          1    1    1    2  502    0  0.18408303138E+02  0.11674677906E+03  0.71282405838E+03  0.72255575166E+03  0.00000000000E+00 0. -1.
         22    1    3    3    0    0  0.45688760030E+02  0.50765369964E+00  0.28052321026E+02  0.53615792639E+02  0.00000000000E+00 0. -1.
         22    1    3    3    0    0 -0.40156878517E+01 -0.13671053470E+03  0.21080485084E+03  0.25128585552E+03  0.00000000000E+00 0. -1.
</event>
<event>
 7    1  0.6443388E-006  0.6674257E+02  0.7818608E-02  0.1373466E+00
          2   -1    0    0  502    0  0.00000000000E+00  0.00000000000E+00  0.76691101605E+03  0.76691101605E+03  0.00000000000E+00 0. -1.
          1   -1    0    0  501    0 -0.00000000000E+00 -0.00000000000E+00 -0.12206120887E+04  0.12206120887E+04  0.00000000000E+00 0. -1.
         25    2    1    2    0    0 -0.94810589368E+00 -0.61506168674E+02 -0.10546544144E+03  0.17474082982E+03  0.12500996192E+03 0.  0.
          2    1    1    2  501    0  0.59731450127E+02  0.32191488693E+02 -0.10779669821E+04  0.10801004363E+04  0.00000000000E+00 0. -1.
          1    1    1    2  502    0 -0.58783344234E+02  0.29314679981E+02  0.72973135093E+03  0.73268183856E+03  0.00000000000E+00 0. -1.
         22    1    3    3    0    0  0.43796991871E+02 -0.76207432837E+02 -0.88360166886E+02  0.12463253351E+03  0.00000000000E+00 0. -1.
         22    1    3    3    0    0 -0.44745097764E+02  0.14701264163E+02 -0.17105274554E+02  0.50108296314E+02  0.00000000000E+00 0. -1.
</event>
<event>
 7    1  0.6443388E-006  0.7261921E+02  0.7818608E-02  0.1355455E+00
          2   -1    0    0  502    0  0.00000000000E+00  0.00000000000E+00  0.87499317001E+03  0.87499317001E+03  0.00000000000E+00 0. -1.
          1   -1    0    0  501    0 -0.00000000000E+00 -0.00000000000E+00 -0.53143173509E+03  0.53143173509E+03  0.00000000000E+00 0. -1.
         25    2    1    2    0    0  0.29340268911E+02  0.98280569186E+02  0.10685746095E+03  0.19381478963E+03  0.12500293620E+03 0.  0.
          2    1    1    2  501    0 -0.61689569374E+02 -0.33432294124E+02 -0.48360303410E+03  0.48866677384E+03  0.00000000000E+00 0. -1.
          1    1    1    2  502    0  0.32349300463E+02 -0.64848275062E+02  0.72030700807E+03  0.72394334163E+03  0.00000000000E+00 0. -1.
         22    1    3    3    0    0  0.26025062760E+02  0.69774326400E+02 -0.84887143166E+01  0.74952109957E+02  0.00000000000E+00 0.  1.
         22    1    3    3    0    0  0.33152061513E+01  0.28506242786E+02  0.11534617527E+03  0.11886267967E+03  0.00000000000E+00 0.  1.
</event>
<event>
 7    1  0.6443388E-006  0.1209770E+03  0.7818608E-02  0.1253294E+00
          2   -1    0    0  502    0  0.00000000000E+00  0.00000000000E+00  0.53141675523E+03  0.53141675523E+03  0.00000000000E+00 0. -1.
          1   -1    0    0  501    0 -0.00000000000E+00 -0.00000000000E+00 -0.43144821058E+03  0.43144821058E+03  0.00000000000E+00 0. -1.
         25    2    1    2    0    0  0.46150020200E+02 -0.18694396158E+03 -0.15387988094E+03  0.27636974501E+03  0.12499339608E+03 0.  0.
          2    1    1    2  501    0  0.36601740056E+02  0.10104676002E+03 -0.19468238154E+03  0.22237662820E+03  0.00000000000E+00 0. -1.
          1    1    1    2  502    0 -0.82751760256E+02  0.85897201555E+02  0.44853080713E+03  0.46411859261E+03  0.00000000000E+00 0. -1.
         22    1    3    3    0    0  0.16202967533E+02 -0.23922799834E+01 -0.69217211191E+02  0.71128626343E+02  0.00000000000E+00 0.  1.
         22    1    3    3    0    0  0.29947052667E+02 -0.18455168159E+03 -0.84662669746E+02  0.20524111866E+03  0.00000000000E+00 0.  1.
</event>
<event>
 7    1  0.6443388E-006  0.6736545E+02  0.7818608E-02  0.1437244E+00
          2   -1    0    0  502    0  0.00000000000E+00  0.00000000000E+00  0.14192992666E+04  0.14192992666E+04  0.00000000000E+00 0. -1.
          1   -1    0    0  501    0 -0.00000000000E+00 -0.00000000000E+00 -0.59152574878E+02  0.59152574878E+02  0.00000000000E+00 0. -1.
         25    2    1    2    0    0 -0.34133438105E+02  0.11865830641E+02  0.14225957704E+03  0.19279236059E+03  0.12500087004E+03 0.  0.
          2    1    1    2  501    0  0.73063513445E+02 -0.18070599462E+02  0.86279651346E+01  0.75757939149E+02  0.00000000000E+00 0. -1.
          1    1    1    2  502    0 -0.38930075340E+02  0.62047688218E+01  0.12092591495E+04  0.12099015417E+04  0.00000000000E+00 0. -1.
         22    1    3    3    0    0 -0.16179499211E+02  0.55904531348E+02  0.13182904819E+03  0.14410409698E+03  0.00000000000E+00 0.  1.
         22    1    3    3    0    0 -0.17953938893E+02 -0.44038700707E+02  0.10430528850E+02  0.48688263615E+02  0.00000000000E+00 0.  1.
</event>
<event>
 7    1  0.6443388E-006  0.1191785E+03  0.7818608E-02  0.1313650E+00
          2   -1    0    0  502    0  0.00000000000E+00  0.00000000000E+00  0.30658912576E+03  0.30658912576E+03  0.00000000000E+00 0. -1.
          1   -1    0    0  501    0 -0.00000000000E+00 -0.00000000000E+00 -0.21604281433E+04  0.21604281433E+04  0.00000000000E+00 0. -1.
         25    2    1    2    0    0  0.38852531878E+02 -0.61646623268E+02 -0.39184821759E+03  0.41770791453E+03  0.12500020335E+03 0.  0.
          2    1    1    2  501    0 -0.21192168693E+02 -0.57844929917E+02 -0.17426617774E+04  0.17437503303E+04  0.00000000000E+00 0. -1.
          1    1    1    2  502    0 -0.17660363185E+02  0.11949155319E+03  0.28067097745E+03  0.30555902424E+03  0.00000000000E+00 0. -1.
         22    1    3    3    0    0  0.56982424167E+02 -0.94688047394E+01 -0.32901208322E+03  0.33404431717E+03  0.00000000000E+00 0. -1.
         22    1    3    3    0    0 -0.18129892289E+02 -0.52177818528E+02 -0.62836134367E+02  0.83663597358E+02  0.00000000000E+00 0. -1.
</event>
<event>
 7    1  0.6443388E-006  0.1907309E+03  0.7818608E-02  0.1210634E+00
          2   -1    0    0  502    0  0.00000000000E+00  0.00000000000E+00  0.11785478451E+04  0.11785478451E+04  0.00000000000E+00 0. -1.
          1   -1    0    0  501    0 -0.00000000000E+00 -0.00000000000E+00 -0.11909693015E+03  0.11909693015E+03  0.00000000000E+00 0. -1.
         25    2    1    2    0    0 -0.82977694203E+02  0.19914670584E+03  0.40655094303E+03  0.47692078443E+03  0.12500022863E+03 0.  0.
          2    1    1    2  501    0  0.10511434283E+03 -0.11596717744E+02 -0.31821760556E+02  0.11043610540E+03  0.00000000000E+00 0. -1.
          1    1    1    2  502    0 -0.22136648627E+02 -0.18754998810E+03  0.68472173251E+03  0.71028788545E+03  0.00000000000E+00 0. -1.
         22    1    3    3    0    0 -0.11360489351E+03  0.17290657143E+03  0.36099785423E+03  0.41607956574E+03  0.00000000000E+00 0.  1.
         22    1    3    3    0    0  0.30627199308E+02  0.26240134413E+02  0.45553088806E+02  0.60841218686E+02  0.00000000000E+00 0.  1.
</event>
<event>
 7    1  0.6443388E-006  0.8392724E+02  0.7818608E-02  0.1433511E+00
          2   -1    0    0  502    0  0.00000000000E+00  0.00000000000E+00  0.13021007168E+04  0.13021007168E+04  0.00000000000E+00 0. -1.
          1   -1    0    0  501    0 -0.00000000000E+00 -0.00000000000E+00 -0.18810446589E+03  0.18810446589E+03  0.00000000000E+00 0. -1.
         25    2    1    2    0    0  0.73567839621E+02  0.89257692112E+02  0.40289775242E+03  0.43741453318E+03  0.12500284918E+03 0.  0.
          2    1    1    2  501    0 -0.53899523406E+02 -0.63330145111E+02 -0.16040432637E+03  0.18068041903E+03  0.00000000000E+00 0. -1.
          1    1    1    2  502    0 -0.19668316215E+02 -0.25927547001E+02  0.87150282491E+03  0.87211023052E+03  0.00000000000E+00 0. -1.
         22    1    3    3    0    0  0.24414519419E+02  0.74678405934E+01  0.28313932149E+03  0.28428808061E+03  0.00000000000E+00 0. -1.
         22    1    3    3    0    0  0.49153320202E+02  0.81789851518E+02  0.11975843093E+03  0.15312645257E+03  0.00000000000E+00 0. -1.
</event>
<event>
 7    1  0.6443388E-006  0.7030015E+02  0.7818608E-02  0.1390989E+00
          2   -1    0    0  502    0  0.00000000000E+00  0.00000000000E+00  0.68314275985E+03  0.68314275985E+03  0.00000000000E+00 0. -1.
          1   -1    0    0  501    0 -0.00000000000E+00 -0.00000000000E+00 -0.16095638787E+04  0.16095638787E+04  0.00000000000E+00 0. -1.
         25    2    1    2    0    0 -0.24781285668E+02 -0.21243241563E+02 -0.66136653361E+02  0.14513608981E+03  0.12500016086E+03 0.  0.
          2    1    1    2  501    0  0.20989300404E+02 -0.49845268980E+02 -0.15014706703E+04  0.15024444334E+04  0.00000000000E+00 0. -1.
          1    1    1    2  502    0  0.37919852647E+01  0.71088510543E+02  0.64118620482E+03  0.64512611537E+03  0.00000000000E+00 0. -1.
         22    1    3    3    0    0 -0.47346028675E+02 -0.58361214336E+02 -0.68428216034E+02  0.10163709224E+03  0.00000000000E+00 0. -1.
         22    1    3    3    0    0  0.22564743007E+02  0.37117972773E+02  0.22915626726E+01  0.43498997566E+02  0.00000000000E+00 0. -1.
</event>
<event>
 7    1  0.6443388E-006  0.2603866E+02  0.7818608E-02  0.1663187E+00
          2   -1    0    0  502    0  0.00000000000E+00  0.00000000000E+00  0.25437720114E+03  0.25437720114E+03  0.00000000000E+00 0. -1.
          1   -1    0    0  501    0 -0.00000000000E+00 -0.00000000000E+00 -0.37326803045E+03  0.37326803045E+03  0.00000000000E+00 0. -1.
         25    2    1    2    0    0 -0.18194130810E+02  0.33416486289E+02 -0.11188803605E+03  0.17202421670E+03  0.12500284224E+03 0.  0.
          2    1    1    2  501    0  0.23772671915E+02 -0.10369242840E+02 -0.22995417543E+03  0.23141215164E+03  0.00000000000E+00 0. -1.
          1    1    1    2  502    0 -0.55785411055E+01 -0.23047243449E+02  0.22295138217E+03  0.22420886325E+03  0.00000000000E+00 0. -1.
         22    1    3    3    0    0 -0.67597760460E+02  0.24726208793E+02 -0.94805204254E+02  0.11903306001E+03  0.00000000000E+00 0.  1.
         22    1    3    3    0    0  0.49403629650E+02  0.86902774958E+01 -0.17082831793E+02  0.52991156693E+02  0.00000000000E+00 0.  1.
</event>
<event>
 7    1  0.6443388E-006  0.4737810E+02  0.7818608E-02  0.1513170E+00
          2   -1    0    0  502    0  0.00000000000E+00  0.00000000000E+00  0.45039970844E+02  0.45039970844E+02  0.00000000000E+00 0. -1.
          1   -1    0    0  501    0 -0.00000000000E+00 -0.00000000000E+00 -0.18460680130E+04  0.18460680130E+04  0.00000000000E+00 0. -1.
         25    2    1    2    0    0  0.28972312490E+02 -0.11392319671E+02 -0.20241995621E+03  0.23993211396E+03  0.12499760317E+03 0.  0.
          2    1    1    2  501    0  0.18378099264E+02  0.26993371151E+02 -0.16009342789E+04  0.16012672987E+04  0.00000000000E+00 0. -1.
          1    1    1    2  502    0 -0.47350411754E+02 -0.15601051481E+02  0.23261929608E+01  0.49908571150E+02  0.00000000000E+00 0. -1.
         22    1    3    3    0    0  0.72021799594E+02 -0.34149287181E+02 -0.13482705936E+03  0.15662582599E+03  0.00000000000E+00 0.  1.
         22    1    3    3    0    0 -0.43049487104E+02  0.22756967510E+02 -0.67592896846E+02  0.83306287963E+02  0.00000000000E+00 0.  1.
</event>
<event>
 7    1  0.6443388E-006  0.1526435E+03  0.7818608E-02  0.1279703E+00
          2   -1    0    0  502    0  0.00000000000E+00  0.00000000000E+00  0.44245906680E+03  0.44245906680E+03  0.00000000000E+00 0. -1.
          1   -1    0    0  501    0 -0.00000000000E+00 -0.00000000000E+00 -0.73519457350E+03  0.73519457350E+03  0.00000000000E+00 0. -1.
         25    2    1    2    0    0 -0.18544852398E+02  0.20186497707E+03 -0.58231280477E+02  0.24517185108E+03  0.12499989607E+03 0.  0.
          2    1    1    2  501    0  0.36172622570E+02 -0.55063985474E+02 -0.56583504494E+03  0.56965761576E+03  0.00000000000E+00 0. -1.
          1    1    1    2  502    0 -0.17627770172E+02 -0.14680099160E+03  0.33133081872E+03  0.36282417346E+03  0.00000000000E+00 0. -1.
         22    1    3    3    0    0  0.15409268679E+00  0.71103378852E+02  0.39052235160E+02  0.81122076525E+02  0.00000000000E+00 0. -1.
         22    1    3    3    0    0 -0.18698945085E+02  0.13076159822E+03 -0.97283515637E+02  0.16404977456E+03  0.00000000000E+00 0. -1.
</event>
<event>
 7    1  0.6443388E-006  0.1210571E+03  0.7818608E-02  0.1366386E+00
          2   -1    0    0  502    0  0.00000000000E+00  0.00000000000E+00  0.59779866633E+03  0.59779866633E+03  0.00000000000E+00 0. -1.
          1   -1    0    0  501    0 -0.00000000000E+00 -0.00000000000E+00 -0.64215860359E+03  0.64215860359E+03  0.00000000000E+00 0. -1.
         25    2    1    2    0    0  0.18106787685E+02 -0.14608341015E+03 -0.31016410778E+03  0.36536958999E+03  0.12499978020E+03 0.  0.
          2    1    1    2  501    0 -0.28354615554E+02  0.25898292538E+02 -0.29676155057E+03  0.29923589971E+03  0.00000000000E+00 0. -1.
          1    1    1    2  502    0  0.10247827869E+02  0.12018511761E+03  0.56256572108E+03  0.57535178023E+03  0.00000000000E+00 0. -1.
         22    1    3    3    0    0 -0.36119916743E+02 -0.11079208126E+03 -0.13336401744E+03  0.17710306266E+03  0.00000000000E+00 0.  1.
         22    1    3    3    0    0  0.54226704428E+02 -0.35291328892E+02 -0.17680009034E+03  0.18826652733E+03  0.00000000000E+00 0.  1.
</event>
<event>
 7    1  0.6443388E-006  0.3984749E+02  0.7818608E-02  0.1517518E+00
          2   -1    0    0  502    0  0.00000000000E+00  0.00000000000E+00  0.75262972323E+03  0.75262972323E+03  0.00000000000E+00 0. -1.
          1   -1    0    0  501    0 -0.00000000000E+00 -0.00000000000E+00 -0.66088784369E+02  0.66088784369E+02  0.00000000000E+00 0. -1.
         25    2    1    2    0    0  0.15569597661E+02  0.55214554608E+02  0.12297631349E+03  0.18449665079E+03  0.12499912423E+03 0.  0.
          2    1    1    2  501    0  0.16741625611E+02 -0.35775809468E+02 -0.23490839736E+02  0.45956611306E+02  0.00000000000E+00 0. -1.
          1    1    1    2  502    0 -0.32311223272E+02 -0.19438745140E+02  0.58705546510E+03  0.58826524550E+03  0.00000000000E+00 0. -1.
         22    1    3    3    0    0 -0.39125440633E+02 -0.17050958910E+02  0.61975044120E+02  0.75249195332E+02  0.00000000000E+00 0.  1.
         22    1    3    3    0    0  0.54695038294E+02  0.72265513519E+02  0.61001269372E+02  0.10924745545E+03  0.00000000000E+00 0.  1.
</event>
<event>
 7    1  0.6443388E-006  0.7545101E+02  0.7818608E-02  0.1417326E+00
          2   -1    0    0  502    0  0.00000000000E+00  0.00000000000E+00  0.17275437104E+04  0.17275437104E+04  0.00000000000E+00 0. -1.
          1   -1    0    0  501    0 -0.00000000000E+00 -0.00000000000E+00 -0.19603159835E+02  0.19603159835E+02  0.00000000000E+00 0. -1.
         25    2    1    2    0    0 -0.45857510494E+02  0.89019218012E+01  0.53374696890E+03  0.55018088450E+03  0.12502409119E+03 0.  0.
          2    1    1    2  501    0  0.76193931338E+02 -0.36420291728E+02  0.15146356162E+03  0.17341615646E+03  0.00000000000E+00 0. -1.
          1    1    1    2  502    0 -0.30336420844E+02  0.27518369927E+02  0.10227300200E+04  0.10235498292E+04  0.00000000000E+00 0. -1.
         22    1    3    3    0    0 -0.19151337514E+02  0.19742908044E+00  0.51725266844E+03  0.51760712487E+03  0.00000000000E+00 0. -1.
         22    1    3    3    0    0 -0.26706172980E+02  0.87044927207E+01  0.16494300459E+02  0.32573759630E+02  0.00000000000E+00 0. -1.
</event>
<event>
 7    1  0.6443388E-006  0.3959723E+02  0.7818608E-02  0.1605647E+00
          2   -1    0    0  502    0  0.00000000000E+00  0.00000000000E+00  0.29769329931E+03  0.29769329931E+03  0.00000000000E+00 0. -1.
          1   -1    0    0  501    0 -0.00000000000E+00 -0.00000000000E+00 -0.88234841480E+03  0.88234841480E+03  0.00000000000E+00 0. -1.
         25    2    1    2    0    0 -0.15952203988E+02 -0.12022416564E+02  0.94296471911E+02  0.15784531196E+03  0.12499722630E+03 0.  0.
          2    1    1    2  501    0  0.37668766645E+02  0.12450845207E+02 -0.84942188989E+03  0.85034787385E+03  0.00000000000E+00 0. -1.
          1    1    1    2  502    0 -0.21716562657E+02 -0.42842864282E+00  0.17047030250E+03  0.17184852830E+03  0.00000000000E+00 0. -1.
         22    1    3    3    0    0 -0.40671105106E+02 -0.56574676142E+02  0.30133409264E+02  0.75913471302E+02  0.00000000000E+00 0. -1.
         22    1    3    3    0    0  0.24718901118E+02  0.44552259578E+02  0.64163062647E+02  0.81931840662E+02  0.00000000000E+00 0. -1.
</event>
<event>
 7    1  0.6443388E-006  0.8530733E+02  0.7818608E-02  0.1380783E+00
          2   -1    0    0  502    0  0.00000000000E+00  0.00000000000E+00  0.11129969628E+03  0.11129969628E+03  0.00000000000E+00 0. -1.
          1   -1    0    0  501    0 -0.00000000000E+00 -0.00000000000E+00 -0.50207840919E+03  0.50207840919E+03  0.00000000000E+00 0. -1.
         25    2    1    2    0    0 -0.46677173975E+02  0.16098195970E+02 -0.21147083865E+03  0.25056536102E+03  0.12500069625E+03 0.  0.
          2    1    1    2  501    0 -0.42143996928E+02 -0.23806548847E+02 -0.24647840936E+03  0.25118613522E+03  0.00000000000E+00 0. -1.
          1    1    1    2  502    0  0.88821170904E+02  0.77083528777E+01  0.67170535097E+02  0.11162660924E+03  0.00000000000E+00 0. -1.
         22    1    3    3    0    0 -0.66722787684E+02 -0.24581310840E+02 -0.18467220026E+03  0.19788883947E+03  0.00000000000E+00 0. -1.
         22    1    3    3    0    0  0.20045613708E+02  0.40679506809E+02 -0.26798638384E+02  0.52676521548E+02  0.00000000000E+00 0. -1.
</event>
<event>
 7    1  0.6443388E-006  0.4970389E+02  0.7818608E-02  0.1575126E+00
          2   -1    0    0  502    0  0.00000000000E+00  0.00000000000E+00  0.10118778324E+04  0.10118778324E+04  0.00000000000E+00 0. -1.
          1   -1    0    0  501    0 -0.00000000000E+00 -0.00000000000E+00 -0.33733495251E+03  0.33733495251E+03  0.00000000000E+00 0. -1.
         25    2    1    2    0    0 -0.61437564184E+02  0.33108551168E+02  0.12831367347E+03  0.19225093413E+03  0.12500108968E+03 0.  0.
          2    1    1    2  501    0  0.45224461149E+02 -0.20014665951E+02 -0.30323530205E+03  0.30724174057E+03  0.00000000000E+00 0. -1.
          1    1    1    2  502    0  0.16213103034E+02 -0.13093885216E+02  0.84946450849E+03  0.84972011023E+03  0.00000000000E+00 0. -1.
         22    1    3    3    0    0 -0.95852883710E+02  0.45544905436E+02  0.10185893076E+03  0.14709641567E+03  0.00000000000E+00 0. -1.
         22    1    3    3    0    0  0.34415319527E+02 -0.12436354268E+02  0.26454742710E+02  0.45154518461E+02  0.00000000000E+00 0. -1.
</event>
<event>
 7    1  0.6443388E-006  0.2169706E+03  0.7818608E-02  0.1286567E+00
          2   -1    0    0  502    0  0.00000000000E+00  0.00000000000E+00  0.23462222359E+04  0.23462222359E+04  0.00000000000E+00 0. -1.
          1   -1    0    0  501    0 -0.00000000000E+00 -0.00000000000E+00 -0.57423123848E+03  0.57423123848E+03  0.00000000000E+00 0. -1.
         25    2    1    2    0    0  0.21829899540E+03 -0.61535003282E+02  0.10127570515E+04  0.10453434748E+04  0.12500050756E+03 0.  0.
          2    1    1    2  501    0 -0.59889476715E+01  0.43018726244E+02 -0.54845339979E+03  0.55017052815E+03  0.00000000000E+00 0. -1.
          1    1    1    2  502    0 -0.21231004773E+03  0.18516277038E+02  0.13076873456E+04  0.13249394714E+04  0.00000000000E+00 0. -1.
         22    1    3    3    0    0  0.12128593705E+03 -0.89708409685E+02  0.48193734274E+03  0.50499651446E+03  0.00000000000E+00 0.  1.
         22    1    3    3    0    0  0.97013058350E+02  0.28173406404E+02  0.53081970879E+03  0.54034696035E+03  0.00000000000E+00 0.  1.
</event>
<event>
 7    1  0.6443388E-006  0.8849522E+02  0.7818608E-02  0.1316330E+00
          2   -1    0    0  502    0  0.00000000000E+00  0.00000000000E+00  0.13175275285E+03  0.13175275285E+03  0.00000000000E+00 0. -1.
          1   -1    0    0  501    0 -0.00000000000E+00 -0.00000000000E+00 -0.66413152600E+03  0.66413152600E+03  0.00000000000E+00 0. -1.
         25    2    1    2    0    0 -0.90384418173E+02  0.37250139272E+00  0.45787708871E+02  0.16090120497E+03  0.12499280648E+03 0.  0.
          2    1    1    2  501    0  0.39397066393E+02 -0.79241882127E+02 -0.51323111185E+03  0.52080474162E+03  0.00000000000E+00 0. -1.
          1    1    1    2  502    0  0.50987351780E+02  0.78869380734E+02 -0.64935370170E+02  0.11417833226E+03  0.00000000000E+00 0. -1.
         22    1    3    3    0    0 -0.80187797952E+01 -0.22702262041E+02  0.68326736971E+02  0.72444713515E+02  0.00000000000E+00 0.  1.
         22    1    3    3    0    0 -0.82365638378E+02  0.23074763434E+02 -0.22539028100E+02  0.88456491455E+02  0.00000000000E+00 0.  1.
</event>
<event>
 7    1  0.6443388E-006  0.6793094E+02  0.7818608E-02  0.1379131E+00
          2   -1    0    0  502    0  0.00000000000E+00  0.00000000000E+00  0.64726064736E+03  0.64726064736E+03  0.00000000000E+00 0. -1.
          1   -1    0    0  501    0 -0.00000000000E+00 -0.00000000000E+00 -0.10639440210E+03  0.10639440210E+03  0.00000000000E+00 0. -1.
         25    2    1    2    0    0 -0.12158709950E+02 -0.22915528867E+02  0.50617414520E+02  0.13733578364E+03  0.12500415643E+03 0.  0.
          2    1    1    2  501    0 -0.58592668448E+02  0.19040875708E+02 -0.45067946858E+02  0.76333318921E+02  0.00000000000E+00 0. -1.
          1    1    1    2  502    0  0.70751378398E+02  0.38746531592E+01  0.53531677759E+03  0.53998594690E+03  0.00000000000E+00 0. -1.
         22    1    3    3    0    0  0.47268607167E+02  0.16331775423E+02  0.42550443066E+02  0.65662685880E+02  0.00000000000E+00 0. -1.
         22    1    3    3    0    0 -0.59427317117E+02 -0.39247304290E+02  0.80669714540E+01  0.71673097757E+02  0.00000000000E+00 0. -1.
</event>
<event>
 7    1  0.6443388E-006  0.4436580E+02  0.7818608E-02  0.1547654E+00
          2   -1    0    0  502    0  0.00000000000E+00  0.00000000000E+00  0.34551188447E+03  0.34551188447E+03  0.00000000000E+00 0. -1.
          1   -1    0    0  501    0 -0.00000000000E+00 -0.00000000000E+00 -0.40798854564E+03  0.40798854564E+03  0.00000000000E+00 0. -1.
         25    2    1    2    0    0 -0.36528640818E+02 -0.87292613503E+01 -0.17374092327E+03  0.21730596691E+03  0.12500173292E+03 0.  0.
          2    1    1    2  501    0 -0.37899112627E+01  0.27520512277E+02 -0.21001804440E+03  0.21184740026E+03  0.00000000000E+00 0. -1.
          1    1    1    2  502    0  0.40318552080E+02 -0.18791250927E+02  0.32128230652E+03  0.32434706293E+03  0.00000000000E+00 0. -1.
         22    1    3    3    0    0  0.83007299225E+01 -0.53643339989E+02 -0.34583714566E+02  0.64362592828E+02  0.00000000000E+00 0.  1.
         22    1    3    3    0    0 -0.44829370740E+02  0.44914078638E+02 -0.13915720871E+03  0.15294337408E+03  0.00000000000E+00 0.  1.
</event>
<event>
 7    1  0.6443388E-006  0.8730519E+02  0.7818608E-02  0.1463646E+00
          2   -1    0    0  502    0  0.00000000000E+00  0.00000000000E+00  0.42088390133E+03  0.42088390133E+03  0.00000000000E+00 0. -1.
          1   -1    0    0  501    0 -0.00000000000E+00 -0.00000000000E+00 -0.22799700299E+03  0.22799700299E+03  0.00000000000E+00 0. -1.
         25    2    1    2    0    0  0.97193515020E+02 -0.39420548625E+02  0.54505937454E+02  0.17204377135E+03  0.12501041168E+03 0.  0.
          2    1    1    2  501    0 -0.72836386667E+02  0.45245314352E+02 -0.15780411692E+03  0.17959514751E+03  0.00000000000E+00 0. -1.
          1    1    1    2  502    0 -0.24357128354E+02 -0.58247657272E+01  0.29618507781E+03  0.29724198545E+03  0.00000000000E+00 0. -1.
         22    1    3    3    0    0  0.20152711003E+02  0.30207870320E+02  0.57672308535E+02  0.68152346708E+02  0.00000000000E+00 0. -1.
         22    1    3    3    0    0  0.77040804018E+02 -0.69628418945E+02 -0.31663710814E+01  0.10389142464E+03  0.00000000000E+00 0. -1.
</event>
<event>
 7    1  0.6443388E-006  0.1156108E+03  0.7818608E-02  0.1278010E+00
          2   -1    0    0  502    0  0.00000000000E+00  0.00000000000E+00  0.14115311765E+04  0.14115311765E+04  0.00000000000E+00 0. -1.
          1   -1    0    0  501    0 -0.00000000000E+00 -0.00000000000E+00 -0.18281144585E+03  0.18281144585E+03  0.00000000000E+00 0. -1.
         25    2    1    2    0    0  0.46129231288E+01  0.87070895319E+02  0.72364588461E+03  0.73952094095E+03  0.12500094365E+03 0.  0.
          2    1    1    2  501    0  0.83646837385E+02 -0.82060977455E+02 -0.15194606588E+03  0.19188122462E+03  0.00000000000E+00 0. -1.
          1    1    1    2  502    0 -0.88259760514E+02 -0.50099178642E+01  0.65701991193E+03  0.66294045681E+03  0.00000000000E+00 0. -1.
         22    1    3    3    0    0  0.30122805271E+02 -0.14550102855E+02  0.34589995053E+03  0.34751383377E+03  0.00000000000E+00 0.  1.
         22    1    3    3    0    0 -0.25509882143E+02  0.10162099817E+03  0.37774593408E+03  0.39200710717E+03  0.00000000000E+00 0.  1.
</event>
<event>
 7    1  0.6443388E-006  0.1317122E+03  0.7818608E-02  0.1257530E+00
          2   -1    0    0  502    0  0.00000000000E+00  0.00000000000E+00  0.63796491314E+02  0.63796491314E+02  0.00000000000E+00 0. -1.
          1   -1    0    0  501    0 -0.00000000000E+00 -0.00000000000E+00 -0.36405436162E+04  0.36405436162E+04  0.00000000000E+00 0. -1.
         25    2    1    2    0    0  0.14719717300E+03 -0.61153660352E+02 -0.65349817466E+03  0.68417290307E+03  0.12500367629E+03 0.  0.
          2    1    1    2  501    0 -0.79336913388E+02 -0.51629245768E+02 -0.28800936041E+04  0.28816486763E+04  0.00000000000E+00 0. -1.
          1    1    1    2  502    0 -0.67860259612E+02  0.11278290612E+03 -0.43155346052E+02  0.13851852815E+03  0.00000000000E+00 0. -1.
         22    1    3    3    0    0  0.11699235092E+03 -0.25032230304E+02 -0.60446932336E+03  0.61619557416E+03  0.00000000000E+00 0. -1.
         22    1    3    3    0    0  0.30204822076E+02 -0.36121430047E+02 -0.49028851307E+02  0.67977328910E+02  0.00000000000E+00 0. -1.
</event>
<event>
 7    1  0.6443388E-006  0.6254558E+02  0.7818608E-02  0.1406326E+00
          2   -1    0    0  502    0  0.00000000000E+00  0.00000000000E+00  0.16386966941E+04  0.16386966941E+04  0.00000000000E+00 0. -1.
          1   -1    0    0  501    0 -0.00000000000E+00 -0.00000000000E+00 -0.83147000887E+03  0.83147000887E+03  0.00000000000E+00 0. -1.
         25    2    1    2    0    0 -0.12439028738E+01  0.59977952747E+02  0.44194876236E+03  0.46318807403E+03  0.12500232503E+03 0.  0.
          2    1    1    2  501    0  0.50147237463E+02 -0.37492137040E+02 -0.81904420876E+03  0.82143400323E+03  0.00000000000E+00 0. -1.
          1    1    1    2  502    0 -0.48903334589E+02 -0.22485815707E+02  0.11843221317E+04  0.11855446258E+04  0.00000000000E+00 0. -1.
         22    1    3    3    0    0 -0.30911809938E+02 -0.29913358334E+02  0.11378780757E+03  0.12164708855E+03  0.00000000000E+00 0.  1.
         22    1    3    3    0    0  0.29667907064E+02  0.89891311081E+02  0.32816095478E+03  0.34154098548E+03  0.00000000000E+00 0.  1.
</event>
<event>
 7    1  0.6443388E-006  0.9690218E+02  0.7818608E-02  0.1394582E+00
          2   -1    0    0  502    0  0.00000000000E+00  0.00000000000E+00  0.10819636850E+04  0.10819636850E+04  0.00000000000E+00 0. -1.
          1   -1    0    0  501    0 -0.00000000000E+00 -0.00000000000E+00 -0.60004160916E+03  0.60004160916E+03  0.00000000000E+00 0. -1.
         25    2    1    2    0    0  0.79071913294E+02 -0.31743545756E+02  0.12626019196E+03  0.19704469211E+03  0.12499981777E+03 0.  0.
          2    1    1    2  501    0 -0.89658512370E+01 -0.37055409350E+02 -0.56138008206E+03  0.56267316125E+03  0.00000000000E+00 0. -1.
          1    1    1    2  502    0 -0.70106062057E+02  0.68798955106E+02  0.91704196589E+03  0.92228744075E+03  0.00000000000E+00 0. -1.
         22    1    3    3    0    0  0.11111391330E+03 -0.86645043724E+01  0.98885537133E+02  0.14899572081E+03  0.00000000000E+00 0. -1.
         22    1    3    3    0    0 -0.32042000008E+02 -0.23079041384E+02  0.27374654831E+02  0.48048971298E+02  0.00000000000E+00 0. -1.
</event>
<event>
 7    1  0.6443388E-006  0.7885527E+02  0.7818608E-02  0.1381767E+00
          2   -1    0    0  502    0  0.00000000000E+00  0.00000000000E+00  0.50658778967E+03  0.50658778967E+03  0.00000000000E+00 0. -1.
          1   -1    0    0  501    0 -0.00000000000E+00 -0.00000000000E+00 -0.26902856646E+04  0.26902856646E+04  0.00000000000E+00 0. -1.
         25    2    1    2    0    0  0.36266304329E+02  0.67078262385E+01 -0.78070454079E+03  0.79150884779E+03  0.12500574533E+03 0.  0.
          2    1    1    2  501    0 -0.78442338878E+02 -0.37032139178E+02 -0.19018417072E+04  0.19038189145E+04  0.00000000000E+00 0. -1.
          1    1    1    2  502    0  0.42176034549E+02  0.30324312939E+02  0.49884837307E+03  0.50154569199E+03  0.00000000000E+00 0. -1.
         22    1    3    3    0    0  0.74504353182E+02 -0.38710861251E+01 -0.66540468619E+03  0.66957395436E+03  0.00000000000E+00 0. -1.
         22    1    3    3    0    0 -0.38238048854E+02  0.10578912364E+02 -0.11529985460E+03  0.12193489344E+03  0.00000000000E+00 0. -1.
</event>
<event>
 7    1  0.6443388E-006  0.5958943E+02  0.7818608E-02  0.1414123E+00
          2   -1    0    0  502    0  0.00000000000E+00  0.00000000000E+00  0.23321020806E+04  0.23321020806E+04  0.00000000000E+00 0. -1.
          1   -1    0    0  501    0 -0.00000000000E+00 -0.00000000000E+00 -0.19071910507E+02  0.19071910507E+02  0.00000000000E+00 0. -1.
         25    2    1    2    0    0 -0.12482620761E+02  0.39286512837E+02  0.59611519631E+03  0.61047346586E+03  0.12500111731E+03 0.  0.
          2    1    1    2  501    0 -0.47936572610E+02 -0.22984023484E+02  0.51192071065E+02  0.73802496360E+02  0.00000000000E+00 0. -1.
          1    1    1    2  502    0  0.60419193372E+02 -0.16302489353E+02  0.16657229027E+04  0.16668980289E+04  0.00000000000E+00 0. -1.
         22    1    3    3    0    0  0.52219370298E+02 -0.58793822873E+01  0.22341333094E+03  0.22951023117E+03  0.00000000000E+00 0.  1.
         22    1    3    3    0    0 -0.64701991060E+02  0.45165895124E+02  0.37270186537E+03  0.38096323468E+03  0.00000000000E+00 0.  1.
</event>
<event>
 7    1  0.6443388E-006  0.1096510E+03  0.7818608E-02  0.1281625E+00
          2   -1    0    0  502    0  0.00000000000E+00  0.00000000000E+00  0.48518107413E+03  0.48518107413E+03  0.00000000000E+00 0. -1.
          1   -1    0    0  501    0 -0.00000000000E+00 -0.00000000000E+00 -0.87212307794E+03  0.87212307794E+03  0.00000000000E+00 0. -1.
         25    2    1    2    0    0  0.56994926298E+01  0.22117674691E+02 -0.57097387244E+03  0.58494263553E+03  0.12500019242E+03 0.  0.
          2    1    1    2  501    0 -0.22032999375E+02  0.87317128340E+02 -0.28062078783E+03  0.29471640695E+03  0.00000000000E+00 0. -1.
          1    1    1    2  502    0  0.16333506745E+02 -0.10943480303E+03  0.46465265646E+03  0.47764510958E+03  0.00000000000E+00 0. -1.
         22    1    3    3    0    0  0.32756783550E+02  0.26424583498E+02 -0.54676241049E+03  0.54837979449E+03  0.00000000000E+00 0. -1.
         22    1    3    3    0    0 -0.27057290920E+02 -0.43069088077E+01 -0.24211461955E+02  0.36562841047E+02  0.00000000000E+00 0. -1.
</event>
<event>
 7    1  0.6443388E-006  0.1144746E+03  0.7818608E-02  0.1439565E+00
          2   -1    0    0  502    0  0.00000000000E+00  0.00000000000E+00  0.98287771564E+03  0.98287771564E+03  0.00000000000E+00 0. -1.
          1   -1    0    0  501    0 -0.00000000000E+00 -0.00000000000E+00 -0.28015127412E+03  0.28015127412E+03  0.00000000000E+00 0. -1.
         25    2    1    2    0    0 -0.11996138892E+03 -0.35525577741E+02  0.15997892802E+02  0.17757787398E+03  0.12500066898E+03 0.  0.
          2    1    1    2  501    0  0.17503247731E+02 -0.14609066473E+02 -0.19502352993E+03  0.19635163797E+03  0.00000000000E+00 0. -1.
          1    1    1    2  502    0  0.10245814119E+03  0.50134644214E+02  0.88175207865E+03  0.88909947781E+03  0.00000000000E+00 0. -1.
         22    1    3    3    0    0 -0.11630492885E+03  0.15400894386E+01  0.50502520261E+02  0.12680580784E+03  0.00000000000E+00 0. -1.
         22    1    3    3    0    0 -0.36564600769E+01 -0.37065667179E+02 -0.34504627459E+02  0.50772066137E+02  0.00000000000E+00 0. -1.
</event>
<event>
 7    1  0.6443388E-006  0.5370762E+02  0.7818608E-02  0.1486577E+00
          2   -1    0    0  502    0  0.00000000000E+00  0.00000000000E+00  0.27970164389E+02  0.27970164389E+02  0.00000000000E+00 0. -1.
          1   -1    0    0  501    0 -0.00000000000E+00 -0.00000000000E+00 -0.69676935957E+03  0.69676935957E+03  0.00000000000E+00 0. -1.
         25    2    1    2    0    0 -0.80102074376E+02 -0.22644591742E+02 -0.32266845382E+03  0.35590612733E+03  0.12500048210E+03 0.  0.
          2    1    1    2  501    0  0.50056985729E+02  0.55165652851E+01 -0.32374022064E+03  0.32763373571E+03  0.00000000000E+00 0. -1.
          1    1    1    2  502    0  0.30045088647E+02  0.17128026457E+02 -0.22390520727E+02  0.41199660928E+02  0.00000000000E+00 0. -1.
         22    1    3    3    0    0 -0.43397091810E+01 -0.13625863604E+02  0.81116866142E+01  0.16440702372E+02  0.00000000000E+00 0. -1.
         22    1    3    3    0    0 -0.75762365195E+02 -0.90187281372E+01 -0.33078014043E+03  0.33946542496E+03  0.00000000000E+00 0. -1.
</event>
<event>
 7    1  0.6443388E-006  0.2087264E+03  0.7818608E-02  0.1270073E+00
          2   -1    0    0  502    0  0.00000000000E+00  0.00000000000E+00  0.19838230743E+04  0.19838230743E+04  0.00000000000E+00 0. -1.
          1   -1    0    0  501    0 -0.00000000000E+00 -0.00000000000E+00 -0.51606858557E+02  0.51606858557E+02  0.00000000000E+00 0. -1.
         25    2    1    2    0    0  0.12079199494E+03  0.15496955257E+03  0.39286338527E+03  0.45669834841E+03  0.12500189472E+03 0.  0.
          2    1    1    2  501    0 -0.34889052556E+02  0.39689838118E+02  0.45297335634E+02  0.69601565023E+02  0.00000000000E+00 0. -1.
          1    1    1    2  502    0 -0.85902942385E+02 -0.19465939068E+03  0.14940554949E+04  0.15091300195E+04  0.00000000000E+00 0. -1.
         22    1    3    3    0    0  0.38013560552E+02 -0.17231851182E+02  0.74986754065E+02  0.85819466127E+02  0.00000000000E+00 0. -1.
         22    1    3    3    0    0  0.82778434389E+02  0.17220140375E+03  0.31787663121E+03  0.37087888228E+03  0.00000000000E+00 0. -1.
</event>
<event>
 7    1  0.6443388E-006  0.1025669E+03  0.7818608E-02  0.1331903E+00
          2   -1    0    0  502    0  0.00000000000E+00  0.00000000000E+00  0.78971489846E+03  0.78971489846E+03  0.00000000000E+00 0. -1.
          1   -1    0    0  501    0 -0.00000000000E+00 -0.00000000000E+00 -0.44047714198E+03  0.44047714198E+03  0.00000000000E+00 0. -1.
         25    2    1    2    0    0 -0.43123477619E+00  0.14318577676E+03 -0.28542273759E+03  0.34291965995E+03  0.12500160565E+03 0.  0.
          2    1    1    2  501    0  0.79804074364E+01 -0.82802261164E+02 -0.11123441359E+03  0.13889923010E+03  0.00000000000E+00 0. -1.
          1    1    1    2  502    0 -0.75491726602E+01 -0.60383515595E+02  0.74589490766E+03  0.74837315039E+03  0.00000000000E+00 0. -1.
         22    1    3    3    0    0  0.31971102172E+02  0.14199936544E+03 -0.27061177147E+03  0.30727300893E+03  0.00000000000E+00 0. -1.
         22    1    3    3    0    0 -0.32402336948E+02  0.11864113236E+01 -0.14810966127E+02  0.35646651023E+02  0.00000000000E+00 0. -1.
</event>
<event>
 7    1  0.6443388E-006  0.9265273E+02  0.7818608E-02  0.1432534E+00
          2   -1    0    0  502    0  0.00000000000E+00  0.00000000000E+00  0.79023496845E+03  0.79023496845E+03  0.00000000000E+00 0. -1.
          1   -1    0    0  501    0 -0.00000000000E+00 -0.00000000000E+00 -0.15532040609E+03  0.15532040609E+03  0.00000000000E+00 0. -1.
         25    2    1    2    0    0  0.72346132228E+02  0.40939936533E+02  0.60308161807E+03  0.62149023541E+03  0.12503052992E+03 0.  0.
          2    1    1    2  501    0 -0.91223919239E+02 -0.18015407284E+02 -0.12983176929E+03  0.15969548102E+03  0.00000000000E+00 0. -1.
          1    1    1    2  502    0  0.18877787011E+02 -0.22924529249E+02  0.16166471359E+03  0.16436965810E+03  0.00000000000E+00 0. -1.
         22    1    3    3    0    0 -0.15766509456E+02  0.52999468686E+02  0.15248728697E+03  0.16220326504E+03  0.00000000000E+00 0. -1.
         22    1    3    3    0    0  0.88112641684E+02 -0.12059532153E+02  0.45059433109E+03  0.45928697037E+03  0.00000000000E+00 0. -1.
</event>
<event>
 7    1  0.6443388E-006  0.1278542E+03  0.7818608E-02  0.1301518E+00
          2   -1    0    0  502    0  0.00000000000E+00  0.00000000000E+00  0.13956588720E+04  0.13956588720E+04  0.00000000000E+00 0. -1.
          1   -1    0    0  501    0 -0.00000000000E+00 -0.00000000000E+00 -0.16691057213E+04  0.16691057213E+04  0.00000000000E+00 0. -1.
         25    2    1    2    0    0 -0.58295321793E+02  0.57230041574E+02  0.33576701233E+03  0.36748395636E+03  0.12502539506E+03 0.  0.
          2    1    1    2  501    0  0.12082267784E+03 -0.42964342923E+02 -0.16497718555E+04  0.16547480864E+04  0.00000000000E+00 0. -1.
          1    1    1    2  502    0 -0.62527356051E+02 -0.14265698650E+02  0.10405579939E+04  0.10425325506E+04  0.00000000000E+00 0. -1.
         22    1    3    3    0    0  0.25947973302E+01  0.71566955308E+02  0.96470862503E+02  0.12014653294E+03  0.00000000000E+00 0.  1.
         22    1    3    3    0    0 -0.60890119123E+02 -0.14336913734E+02  0.23929614983E+03  0.24733742342E+03  0.00000000000E+00 0.  1.
</event>
<event>
 7    1  0.6443388E-006  0.1595603E+03  0.7818608E-02  0.1265677E+00
          2   -1    0    0  502    0  0.00000000000E+00  0.00000000000E+00  0.25182288863E+04  0.25182288863E+04  0.00000000000E+00 0. -1.
          1   -1    0    0  501    0 -0.00000000000E+00 -0.00000000000E+00 -0.77733298486E+02  0.77733298486E+02  0.00000000000E+00 0. -1.
         25    2    1    2    0    0 -0.18646676397E+02  0.92305905715E+02  0.11313321992E+03  0.19311062225E+03  0.12499803280E+03 0.  0.
          2    1    1    2  501    0 -0.35115138283E+02  0.63016408008E+02  0.24965690640E+01  0.72182916759E+02  0.00000000000E+00 0. -1.
          1    1    1    2  502    0  0.53761814680E+02 -0.15532231372E+03  0.23248657989E+04  0.23306686458E+04  0.00000000000E+00 0. -1.
         22    1    3    3    0    0 -0.14951322983E+02  0.10771726048E+03  0.13031836347E+03  0.16973339719E+03  0.00000000000E+00 0.  1.
         22    1    3    3    0    0 -0.36953534146E+01 -0.15411354765E+02 -0.17185143549E+02  0.23377225057E+02  0.00000000000E+00 0.  1.
</event>
<event>
 7    1  0.6443388E-006  0.6694192E+02  0.7818608E-02  0.1403262E+00
          2   -1    0    0  502    0  0.00000000000E+00  0.00000000000E+00  0.92691048373E+03  0.92691048373E+03  0.00000000000E+00 0. -1.
          1   -1    0    0  501    0 -0.00000000000E+00 -0.00000000000E+00 -0.34058427153E+03  0.34058427153E+03  0.00000000000E+00 0. -1.
         25    2    1    2    0    0 -0.17375356342E+02 -0.38193851102E+01  0.10150669477E+03  0.16200481879E+03  0.12500184606E+03 0.  0.
          2    1    1    2  501    0  0.68226635325E+02 -0.44316941324E+01 -0.30572092265E+03  0.31327271861E+03  0.00000000000E+00 0. -1.
          1    1    1    2  502    0 -0.50851278983E+02  0.82510792426E+01  0.79054044007E+03  0.79221721786E+03  0.00000000000E+00 0. -1.
         22    1    3    3    0    0 -0.66167093723E+02 -0.23400396825E+02  0.76401026821E+02  0.10374381795E+03  0.00000000000E+00 0. -1.
         22    1    3    3    0    0  0.48791737381E+02  0.19581011715E+02  0.25105667945E+02  0.58261000845E+02  0.00000000000E+00 0. -1.
</event>
<event>
 7    1  0.6443388E-006  0.5109551E+02  0.7818608E-02  0.1488261E+00
          2   -1    0    0  502    0  0.00000000000E+00  0.00000000000E+00  0.50866096605E+03  0.50866096605E+03  0.00000000000E+00 0. -1.
          1   -1    0    0  501    0 -0.00000000000E+00 -0.00000000000E+00 -0.90912235406E+03  0.90912235406E+03  0.00000000000E+00 0. -1.
         25    2    1    2    0    0  0.66269422559E+02 -0.73020331691E+01  0.42039216061E+02  0.14777884080E+03  0.12500533608E+03 0.  0.
          2    1    1    2  501    0 -0.39962256001E+02  0.31769888036E+02 -0.85470954340E+03  0.85623286042E+03  0.00000000000E+00 0. -1.
          1    1    1    2  502    0 -0.26307166558E+02 -0.24467854867E+02  0.41220893932E+03  0.41377161888E+03  0.00000000000E+00 0. -1.
         22    1    3    3    0    0  0.54171488360E+02  0.43712594677E+02 -0.14037741508E+02  0.71009853339E+02  0.00000000000E+00 0. -1.
         22    1    3    3    0    0  0.12097934198E+02 -0.51014627846E+02  0.56076957569E+02  0.76768987465E+02  0.00000000000E+00 0. -1.
</event>
<event>
 7    1  0.6443388E-006  0.7720374E+02  0.7818608E-02  0.1424565E+00
          2   -1    0    0  502    0  0.00000000000E+00  0.00000000000E+00  0.34620384682E+03  0.34620384682E+03  0.00000000000E+00 0. -1.
          1   -1    0    0  501    0 -0.00000000000E+00 -0.00000000000E+00 -0.37969440653E+03  0.37969440653E+03  0.00000000000E+00 0. -1.
         25    2    1    2    0    0  0.50462060607E+01 -0.11391963731E+03 -0.16826209599E+03  0.23862236990E+03  0.12500141803E+03 0.  0.
          2    1    1    2  501    0  0.13765017678E+01  0.37838449996E+02 -0.16944523038E+03  0.17362410303E+03  0.00000000000E+00 0. -1.
          1    1    1    2  502    0 -0.64227078285E+01  0.76081187311E+02  0.30421676667E+03  0.31365178042E+03  0.00000000000E+00 0. -1.
         22    1    3    3    0    0  0.35910673731E+02  0.39958762378E+00 -0.89423581051E+02  0.96365517723E+02  0.00000000000E+00 0. -1.
         22    1    3    3    0    0 -0.30864467670E+02 -0.11431922493E+03 -0.78838514943E+02  0.14225685218E+03  0.00000000000E+00 0. -1.
</event>
<event>
 7    1  0.6443388E-006  0.1599460E+03  0.7818608E-02  0.1391203E+00
          2   -1    0    0  502    0  0.00000000000E+00  0.00000000000E+00  0.43688856426E+03  0.43688856426E+03  0.00000000000E+00 0. -1.
          1   -1    0    0  501    0 -0.00000000000E+00 -0.00000000000E+00 -0.11549080267E+03  0.11549080267E+03  0.00000000000E+00 0. -1.
         25    2    1    2    0    0 -0.45108538920E+02 -0.14815751781E+03  0.18785498489E+03  0.27367900038E+03  0.12500107814E+03 0.  0.
          2    1    1    2  501    0  0.68816859173E+02  0.14713257435E+03  0.21117330052E+02  0.16379772944E+03  0.00000000000E+00 0. -1.
          1    1    1    2  502    0 -0.23708320253E+02  0.10249434608E+01  0.11242544665E+03  0.11490263710E+03  0.00000000000E+00 0. -1.
         22    1    3    3    0    0 -0.65342281739E+02 -0.10419735997E+03  0.59745855200E+02  0.13673430741E+03  0.00000000000E+00 0. -1.
         22    1    3    3    0    0  0.20233742819E+02 -0.43960157843E+02  0.12810912969E+03  0.13694469298E+03  0.00000000000E+00 0. -1.
</event>
<event>
 7    1  0.6443388E-006  0.5566971E+02  0.7818608E-02  0.1427830E+00
          2   -1    0    0  502    0  0.00000000000E+00  0.00000000000E+00  0.73006560714E+03  0.73006560714E+03  0.00000000000E+00 0. -1.
          1   -1    0    0  501    0 -0.00000000000E+00 -0.00000000000E+00 -0.32645653967E+03  0.32645653967E+03  0.00000000000E+00 0. -1.
         25    2    1    2    0    0 -0.54967707196E+02 -0.36266073368E+01  0.50437737578E+02  0.14560498502E+03  0.12498898021E+03 0.  0.
          2    1    1    2  501    0  0.25574217886E+02 -0.44377679969E+02 -0.27525252168E+03  0.27997744515E+03  0.00000000000E+00 0. -1.
          1    1    1    2  502    0  0.29393489311E+02  0.48004287305E+02  0.62842385157E+03  0.63093971664E+03  0.00000000000E+00 0. -1.
         22    1    3    3    0    0  0.99102724490E+00  0.53404307424E+02  0.35997184433E+02  0.64411175067E+02  0.00000000000E+00 0.  1.
         22    1    3    3    0    0 -0.55958734441E+02 -0.57030914761E+02  0.14440553145E+02  0.81193809948E+02  0.00000000000E+00 0.  1.
</event>
<event>
 7    1  0.6443388E-006  0.1610027E+03  0.7818608E-02  0.1272757E+00
          2   -1    0    0  502    0  0.00000000000E+00  0.00000000000E+00  0.17795134017E+04  0.17795134017E+04  0.00000000000E+00 0. -1.
          1   -1    0    0  501    0 -0.00000000000E+00 -0.00000000000E+00 -0.87565489257E+03  0.87565489257E+03  0.00000000000E+00 0. -1.
         25    2    1    2    0    0  0.11647248121E+03  0.70731572110E+02  0.14932609983E+03  0.23768692867E+03  0.12501199061E+03 0.  0.
          2    1    1    2  501    0 -0.21264205886E+02  0.63279697201E+02 -0.82586431992E+03  0.82855800126E+03  0.00000000000E+00 0. -1.
          1    1    1    2  502    0 -0.95208275328E+02 -0.13401126931E+03  0.15803967292E+04  0.15889233644E+04  0.00000000000E+00 0. -1.
         22    1    3    3    0    0  0.13882561179E+03  0.76605956895E+02  0.11327987655E+03  0.19486752821E+03  0.00000000000E+00 0.  1.
         22    1    3    3    0    0 -0.22353130573E+02 -0.58743847849E+01  0.36046223273E+02  0.42819400455E+02  0.00000000000E+00 0.  1.
</event>
<event>
 7    1  0.6443388E-006  0.4552409E+02  0.7818608E-02  0.1554324E+00
          2   -1    0    0  502    0  0.00000000000E+00  0.00000000000E+00  0.14056649377E+04  0.14056649377E+04  0.00000000000E+00 0. -1.
          1   -1    0    0  501    0 -0.00000000000E+00 -0.00000000000E+00 -0.76182965804E+02  0.76182965804E+02  0.00000000000E+00 0. -1.
         25    2    1    2    0    0  0.11151054470E+02  0.54618603165E+02  0.56839797815E+03  0.58464518906E+03  0.12500479072E+03 0.  0.
          2    1    1    2  501    0  0.12400140442E+02 -0.43746737612E+02 -0.60237062447E+02  0.75472142059E+02  0.00000000000E+00 0. -1.
          1    1    1    2  502    0 -0.23551194912E+02 -0.10871865553E+02  0.82132105617E+03  0.82173057236E+03  0.00000000000E+00 0. -1.
         22    1    3    3    0    0  0.40309607748E+02 -0.22166443465E+02  0.31306590808E+03  0.31642768288E+03  0.00000000000E+00 0.  1.
         22    1    3    3    0    0 -0.29158553278E+02  0.76785046630E+02  0.25533207007E+03  0.26821750618E+03  0.00000000000E+00 0.  1.
</event>
<event>
 7    1  0.6443388E-006  0.9174582E+02  0.7818608E-02  0.1390765E+00
          2   -1    0    0  502    0  0.00000000000E+00  0.00000000000E+00  0.90544316866E+03  0.90544316866E+03  0.00000000000E+00 0. -1.
          1   -1    0    0  501    0 -0.00000000000E+00 -0.00000000000E+00 -0.10225003533E+03  0.10225003533E+03  0.00000000000E+00 0. -1.
         25    2    1    2    0    0 -0.38942810463E+02 -0.11067793413E+03  0.13827644399E+03  0.22025379712E+03  0.12500085037E+03 0.  0.
          2    1    1    2  501    0  0.51625120956E+02  0.71145838934E+02 -0.28785579776E+02  0.92495908636E+02  0.00000000000E+00 0. -1.
          1    1    1    2  502    0 -0.12682310493E+02  0.39532095197E+02  0.69370226912E+03  0.69494349823E+03  0.00000000000E+00 0. -1.
         22    1    3    3    0    0  0.20333981110E+02  0.19554537304E+02  0.19544543716E+02  0.34319672289E+02  0.00000000000E+00 0.  1.
         22    1    3    3    0    0 -0.59276791573E+02 -0.13023247144E+03  0.11873190027E+03  0.18593412483E+03  0.00000000000E+00 0.  1.
</event>
<event>
 7    1  0.6443388E-006  0.1860263E+03  0.7818608E-02  0.1174360E+00
          2   -1    0    0  502    0  0.00000000000E+00  0.00000000000E+00  0.78060614274E+03  0.78060614274E+03  0.00000000000E+00 0. -1.
          1   -1    0    0  501    0 -0.00000000000E+00 -0.00000000000E+00 -0.48732092080E+03  0.48732092080E+03  0.00000000000E+00 0. -1.
         25    2    1    2    0    0  0.17599487674E+01 -0.16931454942E+03 -0.41886211657E+02  0.21459348689E+03  0.12500158329E+03 0.  0.
          2    1    1    2  501    0 -0.15966890434E+03  0.13493452982E+03 -0.31794853040E+03  0.38051643109E+03  0.00000000000E+00 0. -1.
          1    1    1    2  502    0  0.15790895557E+03  0.34380019604E+02  0.65311996399E+03  0.67281714556E+03  0.00000000000E+00 0. -1.
         22    1    3    3    0    0 -0.71274799049E+01 -0.56128476228E+02 -0.77182270156E+02  0.95699057675E+02  0.00000000000E+00 0.  1.
         22    1    3    3    0    0  0.88874286723E+01 -0.11318607319E+03  0.35296058499E+02  0.11889442921E+03  0.00000000000E+00 0.  1.
</event>
<event>
 7    1  0.6443388E-006  0.4379692E+02  0.7818608E-02  0.1501029E+00
          2   -1    0    0  502    0  0.00000000000E+00  0.00000000000E+00  0.13888605461E+03  0.13888605461E+03  0.00000000000E+00 0. -1.
          1   -1    0    0  501    0 -0.00000000000E+00 -0.00000000000E+00 -0.30095688015E+03  0.30095688015E+03  0.00000000000E+00 0. -1.
         25    2    1    2    0    0 -0.84767705854E+01 -0.34146506518E+00 -0.34816118987E+02  0.13003359078E+03  0.12499840140E+03 0.  0.
          2    1    1    2  501    0  0.39401259174E+02  0.23052875380E+02 -0.21195968433E+03  0.21681974557E+03  0.00000000000E+00 0. -1.
          1    1    1    2  502    0 -0.30924488589E+02 -0.22711410314E+02  0.84704977779E+02  0.92989598416E+02  0.00000000000E+00 0. -1.
         22    1    3    3    0    0 -0.58292855511E+02 -0.31472877039E+02 -0.22905879325E+02  0.70094780836E+02  0.00000000000E+00 0. -1.
         22    1    3    3    0    0  0.49816084925E+02  0.31131411974E+02 -0.11910239661E+02  0.59938809945E+02  0.00000000000E+00 0. -1.
</event>
<event>
 7    1  0.6443388E-006  0.1742751E+03  0.7818608E-02  0.1340038E+00
          2   -1    0    0  502    0  0.00000000000E+00  0.00000000000E+00  0.12142091720E+04  0.12142091720E+04  0.00000000000E+00 0. -1.
          1   -1    0    0  501    0 -0.00000000000E+00 -0.00000000000E+00 -0.22010651436E+03  0.22010651436E+03  0.00000000000E+00 0. -1.
         25    2    1    2    0    0  0.15402708721E+03  0.40991957440E+01  0.26699519711E+02  0.20019992819E+03  0.12500399951E+03 0.  0.
          2    1    1    2  501    0 -0.18584237771E+03  0.59445297551E+01 -0.68144135286E+02  0.19803118431E+03  0.00000000000E+00 0. -1.
          1    1    1    2  502    0  0.31815290500E+02 -0.10043725499E+02  0.10355472732E+04  0.10360845738E+04  0.00000000000E+00 0. -1.
         22    1    3    3    0    0  0.15965578666E+03 -0.19881525051E+02 -0.38770710412E+01  0.16093562978E+03  0.00000000000E+00 0. -1.
         22    1    3    3    0    0 -0.56286994551E+01  0.23980720795E+02  0.30576590752E+02  0.39264298407E+02  0.00000000000E+00 0. -1.
</event>
<event>
 7    1  0.6443388E-006  0.2608923E+03  0.7818608E-02  0.1226443E+00
          2   -1    0    0  502    0  0.00000000000E+00  0.00000000000E+00  0.41614870435E+03  0.41614870435E+03  0.00000000000E+00 0. -1.
          1   -1    0    0  501    0 -0.00000000000E+00 -0.00000000000E+00 -0.20632391529E+04  0.20632391529E+04  0.00000000000E+00 0. -1.
         25    2    1    2    0    0  0.23068673155E+03 -0.69123581855E+02 -0.12665367034E+04  0.12952748181E+04  0.12500878297E+03 0.  0.
          2    1    1    2  501    0 -0.28178596954E+03  0.11003967943E+03 -0.75010559735E+03  0.80880805563E+03  0.00000000000E+00 0. -1.
          1    1    1    2  502    0  0.51099237990E+02 -0.40916097573E+02  0.36955185218E+03  0.37530498347E+03  0.00000000000E+00 0. -1.
         22    1    3    3    0    0  0.84248076480E+02 -0.68160458713E+02 -0.77016804289E+03  0.77775471764E+03  0.00000000000E+00 0. -1.
         22    1    3    3    0    0  0.14643865507E+03 -0.96312314278E+00 -0.49636866047E+03  0.51752010048E+03  0.00000000000E+00 0. -1.
</event>
<event>
 7    1  0.6443388E-006  0.6525229E+02  0.7818608E-02  0.1536418E+00
          2   -1    0    0  502    0  0.00000000000E+00  0.00000000000E+00  0.16077420678E+04  0.16077420678E+04  0.00000000000E+00 0. -1.
          1   -1    0    0  501    0 -0.00000000000E+00 -0.00000000000E+00 -0.12013035650E+04  0.12013035650E+04  0.00000000000E+00 0. -1.
         25    2    1    2    0    0  0.40314210215E+02  0.61488928601E+02  0.10832247138E+04  0.10928889695E+04  0.12499758090E+03 0.  0.
          2    1    1    2  501    0 -0.20202662739E+02 -0.21541851740E+01 -0.11944965321E+04  0.11946693071E+04  0.00000000000E+00 0. -1.
          1    1    1    2  502    0 -0.20111547476E+02 -0.59334743427E+02  0.51771032110E+03  0.52148735621E+03  0.00000000000E+00 0. -1.
         22    1    3    3    0    0 -0.11646277224E+02  0.81924986004E+02  0.79585131741E+03  0.80014164904E+03  0.00000000000E+00 0.  1.
         22    1    3    3    0    0  0.51960487439E+02 -0.20436057402E+02  0.28737339638E+03  0.29274732047E+03  0.00000000000E+00 0.  1.
</event>
<event>
 7    1  0.6443388E-006  0.1447707E+03  0.7818608E-02  0.1210226E+00
          2   -1    0    0  502    0  0.00000000000E+00  0.00000000000E+00  0.43261860642E+03  0.43261860642E+03  0.00000000000E+00 0. -1.
          1   -1    0    0  501    0 -0.00000000000E+00 -0.00000000000E+00 -0.22521707619E+03  0.22521707619E+03  0.00000000000E+00 0. -1.
         25    2    1    2    0    0  0.42434956175E+01 -0.25955014223E+02  0.18533314293E+03  0.22509059016E+03  0.12500291953E+03 0.  0.
          2    1    1    2  501    0 -0.13332920693E+03  0.91494579361E+02 -0.14110122664E+03  0.21461009210E+03  0.00000000000E+00 0. -1.
          1    1    1    2  502    0  0.12908571131E+03 -0.65539565138E+02  0.16316961394E+03  0.21813500035E+03  0.00000000000E+00 0. -1.
         22    1    3    3    0    0 -0.42103909724E+02  0.23578489246E+02  0.33359874760E+02  0.58664858418E+02  0.00000000000E+00 0.  1.
         22    1    3    3    0    0  0.46347405341E+02 -0.49533503468E+02  0.15197326817E+03  0.16642573174E+03  0.00000000000E+00 0.  1.
</event>
<event>
 7    1  0.6443388E-006  0.1196697E+03  0.7818608E-02  0.1298501E+00
          2   -1    0    0  502    0  0.00000000000E+00  0.00000000000E+00  0.14318769903E+04  0.14318769903E+04  0.00000000000E+00 0. -1.
          1   -1    0    0  501    0 -0.00000000000E+00 -0.00000000000E+00 -0.14508405514E+04  0.14508405514E+04  0.00000000000E+00 0. -1.
         25    2    1    2    0    0 -0.11495025838E+03  0.14541222902E+01  0.44467351509E+03  0.47599679248E+03  0.12499093991E+03 0.  0.
          2    1    1    2  501    0  0.10254291085E+02 -0.69702388175E+02 -0.14302891207E+04  0.14320232338E+04  0.00000000000E+00 0. -1.
          1    1    1    2  502    0  0.10469596730E+03  0.68248265885E+02  0.96665204453E+03  0.97469751542E+03  0.00000000000E+00 0. -1.
         22    1    3    3    0    0 -0.61711320378E+02 -0.57600619212E+02  0.29066153780E+03  0.30267184863E+03  0.00000000000E+00 0.  1.
         22    1    3    3    0    0 -0.53238938005E+02  0.59054741502E+02  0.15401197729E+03  0.17332494385E+03  0.00000000000E+00 0.  1.
</event>
<event>
 7    1  0.6443388E-006  0.8844414E+02  0.7818608E-02  0.1366269E+00
          2   -1    0    0  502    0  0.00000000000E+00  0.00000000000E+00  0.36673428761E+04  0.36673428761E+04  0.00000000000E+00 0. -1.
          1   -1    0    0  501    0 -0.00000000000E+00 -0.00000000000E+00 -0.29466615744E+02  0.29466615744E+02  0.00000000000E+00 0. -1.
         25    2    1    2    0    0 -0.45986232097E+02  0.37021347917E+01  0.13629446444E+04  0.13694425325E+04  0.12500522731E+03 0.  0.
          2    1    1    2  501    0  0.79859001225E+02 -0.43961502023E+02  0.54288187582E+02  0.10610033481E+03  0.00000000000E+00 0. -1.
          1    1    1    2  502    0 -0.33872769128E+02  0.40259367231E+02  0.22206434284E+04  0.22212666245E+04  0.00000000000E+00 0. -1.
         22    1    3    3    0    0  0.44767555416E+01  0.56278726914E+02  0.43646078619E+03  0.44009698286E+03  0.00000000000E+00 0. -1.
         22    1    3    3    0    0 -0.50462987639E+02 -0.52576592122E+02  0.92648385820E+03  0.92934554965E+03  0.00000000000E+00 0. -1.
</event>
<event>
 7    1  0.6443388E-006  0.8438645E+02  0.7818608E-02  0.1365167E+00
          2   -1    0    0  502    0  0.00000000000E+00  0.00000000000E+00  0.29585580235E+03  0.29585580235E+03  0.00000000000E+00 0. -1.
          1   -1    0    0  501    0 -0.00000000000E+00 -0.00000000000E+00 -0.24116561881E+03  0.24116561881E+03  0.00000000000E+00 0. -1.
         25    2    1    2    0    0  0.43669398047E+02 -0.28433783761E+02 -0.39556827451E+02  0.14108597321E+03  0.12500005142E+03 0.  0.
          2    1    1    2  501    0  0.44333223205E+02  0.33640376324E+02 -0.13731309473E+03  0.14816205851E+03  0.00000000000E+00 0. -1.
          1    1    1    2  502    0 -0.88002621252E+02 -0.52065925639E+01  0.23156010572E+03  0.24777338944E+03  0.00000000000E+00 0. -1.
         22    1    3    3    0    0  0.32482031488E+02 -0.74220240079E+02 -0.23739118412E+01  0.81051600011E+02  0.00000000000E+00 0.  1.
         22    1    3    3    0    0  0.11187366559E+02  0.45786456318E+02 -0.37182915610E+02  0.60034373204E+02  0.00000000000E+00 0.  1.
</event>
<event>
 7    1  0.6443388E-006  0.7945458E+02  0.7818608E-02  0.1356989E+00
          2   -1    0    0  502    0  0.00000000000E+00  0.00000000000E+00  0.70777813607E+03  0.70777813607E+03  0.00000000000E+00 0. -1.
          1   -1    0    0  501    0 -0.00000000000E+00 -0.00000000000E+00 -0.27099174516E+03  0.27099174516E+03  0.00000000000E+00 0. -1.
         25    2    1    2    0    0 -0.20939281079E+02  0.41038659320E+02  0.39399770928E+02  0.13892466154E+03  0.12500037834E+03 0.  0.
          2    1    1    2  501    0  0.52984059263E+02  0.34642280194E+02 -0.21389368418E+03  0.22306480279E+03  0.00000000000E+00 0. -1.
          1    1    1    2  502    0 -0.32044778184E+02 -0.75680939514E+02  0.61128030416E+03  0.61678041690E+03  0.00000000000E+00 0. -1.
         22    1    3    3    0    0  0.42938292073E+02  0.52376797574E+02  0.26795441902E+02  0.72835578923E+02  0.00000000000E+00 0.  1.
         22    1    3    3    0    0 -0.63877573153E+02 -0.11338138255E+02  0.12604329026E+02  0.66089082617E+02  0.00000000000E+00 0.  1.
</event>
<event>
 7    1  0.6443388E-006  0.7750896E+02  0.7818608E-02  0.1429077E+00
          2   -1    0    0  502    0  0.00000000000E+00  0.00000000000E+00  0.75067638227E+03  0.75067638227E+03  0.00000000000E+00 0. -1.
          1   -1    0    0  501    0 -0.00000000000E+00 -0.00000000000E+00 -0.14538334384E+04  0.14538334384E+04  0.00000000000E+00 0. -1.
         25    2    1    2    0    0  0.74736622279E+02  0.54373375269E+02  0.72242767996E+02  0.17142278631E+03  0.12499890996E+03 0.  0.
          2    1    1    2  501    0  0.26731315881E+00 -0.36439555321E+02 -0.14016413843E+04  0.14021150034E+04  0.00000000000E+00 0. -1.
          1    1    1    2  502    0 -0.75003935438E+02 -0.17933819948E+02  0.62624156013E+03  0.63097203097E+03  0.00000000000E+00 0. -1.
         22    1    3    3    0    0 -0.32048680792E+02  0.83801152785E+01  0.37581964088E+02  0.50097388128E+02  0.00000000000E+00 0.  1.
         22    1    3    3    0    0  0.10678530307E+03  0.45993259991E+02  0.34660803907E+02  0.12132539818E+03  0.00000000000E+00 0.  1.
</event>
<event>
 7    1  0.6443388E-006  0.1614733E+03  0.7818608E-02  0.1326028E+00
          2   -1    0    0  502    0  0.00000000000E+00  0.00000000000E+00  0.23779919607E+04  0.23779919607E+04  0.00000000000E+00 0. -1.
          1   -1    0    0  501    0 -0.00000000000E+00 -0.00000000000E+00 -0.11577700525E+03  0.11577700525E+03  0.00000000000E+00 0. -1.
         25    2    1    2    0    0  0.18552145281E+03  0.45237461033E+02  0.31319801519E+03  0.38753261995E+03  0.12499558983E+03 0.  0.
          2    1    1    2  501    0 -0.14567815000E+03 -0.53580949404E+02 -0.15674336414E+01  0.15522724753E+03  0.00000000000E+00 0. -1.
          1    1    1    2  502    0 -0.39843302806E+02  0.83434883707E+01  0.19505843739E+04  0.19510090984E+04  0.00000000000E+00 0. -1.
         22    1    3    3    0    0  0.81021859258E+02  0.57922680093E+02  0.67728330909E+02  0.12044378504E+03  0.00000000000E+00 0.  1.
         22    1    3    3    0    0  0.10449959355E+03 -0.12685219060E+02  0.24546968428E+03  0.26708883491E+03  0.00000000000E+00 0.  1.
</event>
<event>
 7    1  0.6443388E-006  0.4889753E+02  0.7818608E-02  0.1472755E+00
          2   -1    0    0  502    0  0.00000000000E+00  0.00000000000E+00  0.52408604876E+03  0.52408604876E+03  0.00000000000E+00 0. -1.
          1   -1    0    0  501    0 -0.00000000000E+00 -0.00000000000E+00 -0.14774232718E+04  0.14774232718E+04  0.00000000000E+00 0. -1.
         25    2    1    2    0    0 -0.12602625148E+02 -0.14513684945E+02 -0.43284118891E+02  0.13366849906E+03  0.12499711789E+03 0.  0.
          2    1    1    2  501    0  0.48838312221E+02 -0.64924362927E+01 -0.13875931368E+04  0.13884675170E+04  0.00000000000E+00 0. -1.
          1    1    1    2  502    0 -0.36235687073E+02  0.21006121238E+02  0.47754003273E+03  0.47937330443E+03  0.00000000000E+00 0. -1.
         22    1    3    3    0    0 -0.25881759579E+02 -0.62035883543E+01 -0.85020620872E+02  0.89089033897E+02  0.00000000000E+00 0.  1.
         22    1    3    3    0    0  0.13279134431E+02 -0.83100965910E+01  0.41736501980E+02  0.44579465162E+02  0.00000000000E+00 0.  1.
</event>
<event>
 7    1  0.6443388E-006  0.1197198E+03  0.7818608E-02  0.1288438E+00
          2   -1    0    0  502    0  0.00000000000E+00  0.00000000000E+00  0.95583010945E+02  0.95583010945E+02  0.00000000000E+00 0. -1.
          1   -1    0    0  501    0 -0.00000000000E+00 -0.00000000000E+00 -0.24159562920E+04  0.24159562920E+04  0.00000000000E+00 0. -1.
         25    2    1    2    0    0  0.79258789712E+02 -0.12245012279E+03 -0.67047259005E+03  0.69744850293E+03  0.12499972764E+03 0.  0.
          2    1    1    2  501    0  0.28815398081E+02  0.71774419482E+02 -0.16872476601E+04  0.16890194081E+04  0.00000000000E+00 0. -1.
          1    1    1    2  502    0 -0.10807418779E+03  0.50675703304E+02  0.37346969099E+02  0.12507139191E+03  0.00000000000E+00 0. -1.
         22    1    3    3    0    0  0.69395812020E+02 -0.77639659006E+02 -0.62218143334E+03  0.63083550263E+03  0.00000000000E+00 0.  1.
         22    1    3    3    0    0  0.98629776915E+01 -0.44810463780E+02 -0.48291156710E+02  0.66613000304E+02  0.00000000000E+00 0.  1.
</event>
<event>
 7    1  0.6443388E-006  0.7886291E+02  0.7818608E-02  0.1362392E+00
          2   -1    0    0  502    0  0.00000000000E+00  0.00000000000E+00  0.49888033480E+03  0.49888033480E+03  0.00000000000E+00 0. -1.
          1   -1    0    0  501    0 -0.00000000000E+00 -0.00000000000E+00 -0.29899216218E+03  0.29899216218E+03  0.00000000000E+00 0. -1.
         25    2    1    2    0    0  0.16935661078E+02  0.11211036439E+03  0.17068158428E+03  0.24002595578E+03  0.12499882325E+03 0.  0.
          2    1    1    2  501    0 -0.49563107759E+02 -0.60632943765E+02 -0.25521941124E+03  0.26696404888E+03  0.00000000000E+00 0. -1.
          1    1    1    2  502    0  0.32627446681E+02 -0.51477420620E+02  0.28442599957E+03  0.29088249233E+03  0.00000000000E+00 0. -1.
         22    1    3    3    0    0  0.24742542401E+02 -0.95309301141E+01 -0.42116582021E+01  0.26847161826E+02  0.00000000000E+00 0. -1.
         22    1    3    3    0    0 -0.78068813231E+01  0.12164129450E+03  0.17489324249E+03  0.21317879395E+03  0.00000000000E+00 0. -1.
</event>
<event>
 7    1  0.6443388E-006  0.7326902E+02  0.7818608E-02  0.1392287E+00
          2   -1    0    0  502    0  0.00000000000E+00  0.00000000000E+00  0.23488657805E+03  0.23488657805E+03  0.00000000000E+00 0. -1.
          1   -1    0    0  501    0 -0.00000000000E+00 -0.00000000000E+00 -0.23335210904E+03  0.23335210904E+03  0.00000000000E+00 0. -1.
         25    2    1    2    0    0 -0.98513901159E+01 -0.78749558647E+02 -0.61323286497E+02  0.16026229135E+03  0.12499965475E+03 0.  0.
          2    1    1    2  501    0 -0.39365085135E+02  0.64081941623E+02 -0.10685259799E+03  0.13066592084E+03  0.00000000000E+00 0. -1.
          1    1    1    2  502    0  0.49216475251E+02  0.14667617023E+02  0.16971035350E+03  0.17731047490E+03  0.00000000000E+00 0. -1.
         22    1    3    3    0    0  0.27687598660E+02 -0.99828679735E+02 -0.53169228444E+02  0.11644455878E+03  0.00000000000E+00 0.  1.
         22    1    3    3    0    0 -0.37538988776E+02  0.21079121088E+02 -0.81540580532E+01  0.43817732563E+02  0.00000000000E+00 0.  1.
</event>
<event>
 7    1  0.6443388E-006  0.3719498E+02  0.7818608E-02  0.1588419E+00
          2   -1    0    0  502    0  0.00000000000E+00  0.00000000000E+00  0.97343436053E+03  0.97343436053E+03  0.00000000000E+00 0. -1.
          1   -1    0    0  501    0 -0.00000000000E+00 -0.00000000000E+00 -0.26890375510E+03  0.26890375510E+03  0.00000000000E+00 0. -1.
         25    2    1    2    0    0  0.52758706638E+01 -0.60788219096E+02  0.98913562299E+02  0.17068280788E+03  0.12500274279E+03 0.  0.
          2    1    1    2  501    0  0.37243501035E+01  0.36759175389E+02 -0.23135669348E+03  0.23428834238E+03  0.00000000000E+00 0. -1.
          1    1    1    2  502    0 -0.90002207674E+01  0.24029043707E+02  0.83697373661E+03  0.83736696537E+03  0.00000000000E+00 0. -1.
         22    1    3    3    0    0 -0.48922018821E+02 -0.14960858341E+02  0.28425079942E+01  0.51237399032E+02  0.00000000000E+00 0. -1.
         22    1    3    3    0    0  0.54197889485E+02 -0.45827360755E+02  0.96071054305E+02  0.11944540884E+03  0.00000000000E+00 0. -1.
</event>
<event>
 7    1  0.6443388E-006  0.4042006E+02  0.7818608E-02  0.1608045E+00
          2   -1    0    0  502    0  0.00000000000E+00  0.00000000000E+00  0.27509548820E+04  0.27509548820E+04  0.00000000000E+00 0. -1.
          1   -1    0    0  501    0 -0.00000000000E+00 -0.00000000000E+00 -0.14017343118E+03  0.14017343118E+03  0.00000000000E+00 0. -1.
         25    2    1    2    0    0  0.45799062812E+02  0.38914118027E+02 -0.56023492429E+02  0.14958170658E+03  0.12499676997E+03 0.  0.
          2    1    1    2  501    0 -0.19150371694E+02 -0.85600625451E+01 -0.34264342935E+02  0.40175323316E+02  0.00000000000E+00 0. -1.
          1    1    1    2  502    0 -0.26648691118E+02 -0.30354055482E+02  0.27010692861E+04  0.27013712833E+04  0.00000000000E+00 0. -1.
         22    1    3    3    0    0  0.25393442854E+02  0.12931868202E+01  0.38317731078E+02  0.45986386975E+02  0.00000000000E+00 0. -1.
         22    1    3    3    0    0  0.20405619959E+02  0.37620931207E+02 -0.94341223507E+02  0.10359531960E+03  0.00000000000E+00 0. -1.
</event>
<event>
 7    1  0.6443388E-006  0.5405906E+02  0.7818608E-02  0.1433115E+00
          2   -1    0    0  502    0  0.00000000000E+00  0.00000000000E+00  0.79267036533E+03  0.79267036533E+03  0.00000000000E+00 0. -1.
          1   -1    0    0  501    0 -0.00000000000E+00 -0.00000000000E+00 -0.35431707033E+02  0.35431707033E+02  0.00000000000E+00 0. -1.
         25    2    1    2    0    0 -0.14317201668E+02 -0.63643446987E+02  0.35720036220E+03  0.38402133235E+03  0.12499925735E+03 0.  0.
          2    1    1    2  501    0 -0.34282375156E+02  0.37318701960E+02  0.11935133025E+02  0.52061638109E+02  0.00000000000E+00 0. -1.
          1    1    1    2  502    0  0.48599576824E+02  0.26324745027E+02  0.38810316308E+03  0.39201910190E+03  0.00000000000E+00 0. -1.
         22    1    3    3    0    0 -0.35463894217E+02  0.83343494646E+01  0.25308582725E+03  0.25569431970E+03  0.00000000000E+00 0. -1.
         22    1    3    3    0    0  0.21146692549E+02 -0.71977796451E+02  0.10411453495E+03  0.12832701265E+03  0.00000000000E+00 0. -1.
</event>
<event>
 7    1  0.6443388E-006  0.9966279E+02  0.7818608E-02  0.1345935E+00
          2   -1    0    0  502    0  0.00000000000E+00  0.00000000000E+00  0.10332898875E+04  0.10332898875E+04  0.00000000000E+00 0. -1.
          1   -1    0    0  501    0 -0.00000000000E+00 -0.00000000000E+00 -0.18766137863E+03  0.18766137863E+03  0.00000000000E+00 0. -1.
         25    2    1    2    0    0 -0.14526814321E+02 -0.13746023584E+03  0.53015673498E+03  0.56195879310E+03  0.12500070689E+03 0.  0.
          2    1    1    2  501    0 -0.16816727604E+02  0.52836098678E+02 -0.16295451234E+03  0.17212968583E+03  0.00000000000E+00 0. -1.
          1    1    1    2  502    0  0.31343541924E+02  0.84624137164E+02  0.47842628625E+03  0.48686278722E+03  0.00000000000E+00 0. -1.
         22    1    3    3    0    0 -0.31299753039E+02 -0.15427015595E+03  0.49583898965E+03  0.52022616160E+03  0.00000000000E+00 0.  1.
         22    1    3    3    0    0  0.16772938719E+02  0.16809920105E+02  0.34317745337E+02  0.41732631503E+02  0.00000000000E+00 0.  1.
</event>
<event>
 7    1  0.6443388E-006  0.1790340E+03  0.7818608E-02  0.1322674E+00
          2   -1    0    0  502    0  0.00000000000E+00  0.00000000000E+00  0.10010240432E+04  0.10010240432E+04  0.00000000000E+00 0. -1.
          1   -1    0    0  501    0 -0.00000000000E+00 -0.00000000000E+00 -0.21789606154E+04  0.21789606154E+04  0.00000000000E+00 0. -1.
         25    2    1    2    0    0 -0.13196084608E+03 -0.15905085229E+03  0.11187309083E+03  0.26617965784E+03  0.12500073313E+03 0.  0.
          2    1    1    2  501    0  0.35925336697E+02  0.11832826333E+02 -0.20921220544E+04  0.20924639390E+04  0.00000000000E+00 0. -1.
          1    1    1    2  502    0  0.96035509383E+02  0.14721802596E+03  0.80231239139E+03  0.82134106169E+03  0.00000000000E+00 0. -1.
         22    1    3    3    0    0 -0.74039411362E+01 -0.30683787712E+02 -0.25557789663E+02  0.40614206691E+02  0.00000000000E+00 0.  1.
         22    1    3    3    0    0 -0.12455690494E+03 -0.12836706458E+03  0.13743088050E+03  0.22556545115E+03  0.00000000000E+00 0.  1.
</event>
<event>
 7    1  0.6443388E-006  0.5084908E+02  0.7818608E-02  0.1529336E+00
          2   -1    0    0  502    0  0.00000000000E+00  0.00000000000E+00  0.56187541115E+03  0.56187541115E+03  0.00000000000E+00 0. -1.
          1   -1    0    0  501    0 -0.00000000000E+00 -0.00000000000E+00 -0.17410713308E+03  0.17410713308E+03  0.00000000000E+00 0. -1.
         25    2    1    2    0    0  0.18516577913E+02  0.44331692223E+02  0.98936891636E+02  0.16649810774E+03  0.12499979505E+03 0.  0.
          2    1    1    2  501    0 -0.26572359809E+02  0.63223794021E+01 -0.13744533791E+03  0.14013309281E+03  0.00000000000E+00 0. -1.
          1    1    1    2  502    0  0.80557818960E+01 -0.50654071625E+02  0.42627672435E+03  0.42935134367E+03  0.00000000000E+00 0. -1.
         22    1    3    3    0    0 -0.31321011388E+02 -0.27563365344E+02  0.12587169868E+02  0.43579601980E+02  0.00000000000E+00 0.  1.
         22    1    3    3    0    0  0.49837589300E+02  0.71895057567E+02  0.86349721769E+02  0.12291850576E+03  0.00000000000E+00 0.  1.
</event>
<event>
 7    1  0.7011742E-006  0.4527631E+02  0.7818608E-02  0.1541623E+00
          2   -1    0    0  502    0  0.00000000000E+00  0.00000000000E+00  0.17146579144E+04  0.17146579144E+04  0.00000000000E+00 0. -1.
          1   -1    0    0  501    0 -0.00000000000E+00 -0.00000000000E+00 -0.84203460010E+03  0.84203460010E+03  0.00000000000E+00 0. -1.
         25    2    1    2    0    0 -0.35365356249E-01 -0.17489156388E+02 -0.14744281429E+02  0.12707392514E+03  0.12499806708E+03 0.  0.
          2    1    1    2  501    0  0.75057196863E+01 -0.27291151514E+02 -0.77055492581E+03  0.77107459851E+03  0.00000000000E+00 0. -1.
          1    1    1    2  502    0 -0.74703543301E+01  0.44780307902E+02  0.16579225215E+04  0.16585439909E+04  0.00000000000E+00 0. -1.
         22    1    3    3    0    0 -0.14065954365E+02 -0.70184219407E+02 -0.58020151849E+01  0.71814616244E+02  0.00000000000E+00 0. -1.
         22    1    3    3    0    0  0.14030589009E+02  0.52695063020E+02 -0.89422662436E+01  0.55259308901E+02  0.00000000000E+00 0. -1.
</event>
<event>
 7    1  0.6443388E-006  0.2091092E+03  0.7818608E-02  0.1324134E+00
          2   -1    0    0  502    0  0.00000000000E+00  0.00000000000E+00  0.85291667719E+03  0.85291667719E+03  0.00000000000E+00 0. -1.
          1   -1    0    0  501    0 -0.00000000000E+00 -0.00000000000E+00 -0.54656981302E+03  0.54656981302E+03  0.00000000000E+00 0. -1.
         25    2    1    2    0    0 -0.12261625830E+03  0.14338187385E+03 -0.91383856602E+02  0.24407486178E+03  0.12501368067E+03 0.  0.
          2    1    1    2  501    0  0.13006458728E+03 -0.17446817591E+03 -0.34721880649E+03  0.40977657430E+03  0.00000000000E+00 0. -1.
          1    1    1    2  502    0 -0.74483289759E+01  0.31086302055E+02  0.74494952726E+03  0.74563505413E+03  0.00000000000E+00 0. -1.
         22    1    3    3    0    0 -0.12010729013E+03  0.46677347546E+02 -0.42487371581E+02  0.13568239628E+03  0.00000000000E+00 0. -1.
         22    1    3    3    0    0 -0.25089681727E+01  0.96704526305E+02 -0.48896485021E+02  0.10839246550E+03  0.00000000000E+00 0. -1.
</event>
<event>
 7    1  0.6443388E-006  0.1152453E+03  0.7818608E-02  0.1260195E+00
          2   -1    0    0  502    0  0.00000000000E+00  0.00000000000E+00  0.18044865878E+04  0.18044865878E+04  0.00000000000E+00 0. -1.
          1   -1    0    0  501    0 -0.00000000000E+00 -0.00000000000E+00 -0.70380635171E+03  0.70380635171E+03  0.00000000000E+00 0. -1.
         25    2    1    2    0    0  0.11384054696E+03 -0.18538337447E+03 -0.29641013650E+03  0.38834732517E+03  0.12501204055E+03 0.  0.
          2    1    1    2  501    0 -0.68620013329E+02  0.79977586135E+02 -0.35182759109E+03  0.36727070992E+03  0.00000000000E+00 0. -1.
          1    1    1    2  502    0 -0.45220533629E+02  0.10540578834E+03  0.17489179637E+04  0.17526749045E+04  0.00000000000E+00 0. -1.
         22    1    3    3    0    0  0.12335074453E+03 -0.18882172068E+03 -0.30189603516E+03  0.37684249286E+03  0.00000000000E+00 0. -1.
         22    1    3    3    0    0 -0.95101975698E+01  0.34383462066E+01  0.54858986586E+01  0.11504832313E+02  0.00000000000E+00 0. -1.
</event>
<event>
 7    1  0.6443388E-006  0.4782071E+02  0.7818608E-02  0.1566343E+00
          2   -1    0    0  502    0  0.00000000000E+00  0.00000000000E+00  0.68596129690E+02  0.68596129690E+02  0.00000000000E+00 0. -1.
          1   -1    0    0  501    0 -0.00000000000E+00 -0.00000000000E+00 -0.11088199498E+04  0.11088199498E+04  0.00000000000E+00 0. -1.
         25    2    1    2    0    0  0.74681368438E+01  0.64994958878E+02 -0.17086495550E+03  0.22158285828E+03  0.12499604921E+03 0.  0.
          2    1    1    2  501    0 -0.13364893339E+02 -0.18574663387E+02 -0.89974733944E+03  0.90003828436E+03  0.00000000000E+00 0. -1.
          1    1    1    2  502    0  0.58967564949E+01 -0.46420295490E+02  0.30388474856E+02  0.55794936819E+02  0.00000000000E+00 0. -1.
         22    1    3    3    0    0 -0.68519197826E+01  0.92913641897E+02 -0.71669653711E+02  0.11754332358E+03  0.00000000000E+00 0. -1.
         22    1    3    3    0    0  0.14320056626E+02 -0.27918683020E+02 -0.99195301791E+02  0.10403953470E+03  0.00000000000E+00 0. -1.
</event>
<event>
 7    1  0.6443388E-006  0.1697635E+03  0.7818608E-02  0.1302646E+00
          2   -1    0    0  502    0  0.00000000000E+00  0.00000000000E+00  0.88861085539E+03  0.88861085539E+03  0.00000000000E+00 0. -1.
          1   -1    0    0  501    0 -0.00000000000E+00 -0.00000000000E+00 -0.37781861741E+03  0.37781861741E+03  0.00000000000E+00 0. -1.
         25    2    1    2    0    0  0.18374647891E+03 -0.61947258534E+02  0.35987241203E+03  0.42747335143E+03  0.12500032755E+03 0.  0.
          2    1    1    2  501    0 -0.14382246428E+03  0.88238993061E+02 -0.32205055523E+03  0.36357610105E+03  0.00000000000E+00 0. -1.
          1    1    1    2  502    0 -0.39924014630E+02 -0.26291734527E+02  0.47297038118E+03  0.47538002032E+03  0.00000000000E+00 0. -1.
         22    1    3    3    0    0 -0.13344177323E+02 -0.23143858367E+02  0.68901937114E+02  0.73899811817E+02  0.00000000000E+00 0. -1.
         22    1    3    3    0    0  0.19709065623E+03 -0.38803400167E+02  0.29097047492E+03  0.35357353961E+03  0.00000000000E+00 0. -1.
</event>
<event>
 7    1  0.8621939E-006  0.1341613E+03  0.7818608E-02  0.1302890E+00
          2   -1    0    0  502    0  0.00000000000E+00  0.00000000000E+00  0.11566893352E+04  0.11566893352E+04  0.00000000000E+00 0. -1.
          1   -1    0    0  501    0 -0.00000000000E+00 -0.00000000000E+00 -0.93261609776E+03  0.93261609776E+03  0.00000000000E+00 0. -1.
         25    2    1    2    0    0 -0.76351065717E+02 -0.30335755376E+02 -0.24765008923E+03  0.28931485998E+03  0.12499111257E+03 0.  0.
          2    1    1    2  501    0 -0.30599499523E+02 -0.52021614830E+02 -0.65873878609E+03  0.66149782016E+03  0.00000000000E+00 0. -1.
          1    1    1    2  502    0  0.10695056524E+03  0.82357370206E+02  0.11304621128E+04  0.11384927528E+04  0.00000000000E+00 0. -1.
         22    1    3    3    0    0  0.13423277761E+02  0.20816586505E+02 -0.45714122346E+01  0.25187545918E+02  0.00000000000E+00 0. -1.
         22    1    3    3    0    0 -0.89774343478E+02 -0.51152341881E+02 -0.24307867699E+03  0.26412731406E+03  0.00000000000E+00 0. -1.
</event>
<event>
 7    1  0.6443388E-006  0.7197550E+02  0.7818608E-02  0.1452181E+00
          2   -1    0    0  502    0  0.00000000000E+00  0.00000000000E+00  0.19013926606E+04  0.19013926606E+04  0.00000000000E+00 0. -1.
          1   -1    0    0  501    0 -0.00000000000E+00 -0.00000000000E+00 -0.31698173389E+02  0.31698173389E+02  0.00000000000E+00 0. -1.
         25    2    1    2    0    0 -0.68426641206E+02 -0.69366088781E+02  0.40124620695E+03  0.43141339186E+03  0.12500054633E+03 0.  0.
          2    1    1    2  501    0  0.55642765392E+02  0.38916478496E+02  0.53768175580E+02  0.86611929572E+02  0.00000000000E+00 0. -1.
          1    1    1    2  502    0  0.12783875814E+02  0.30449610285E+02  0.14146801047E+04  0.14150655126E+04  0.00000000000E+00 0. -1.
         22    1    3    3    0    0 -0.68059495777E+02 -0.83771438309E+02  0.40271547459E+03  0.41692865375E+03  0.00000000000E+00 0.  1.
         22    1    3    3    0    0 -0.36714542946E+00  0.14405349528E+02 -0.14692676386E+01  0.14484738112E+02  0.00000000000E+00 0.  1.
</event>
<event>
 7    1  0.6443388E-006  0.6698231E+02  0.7818608E-02  0.1434412E+00
          2   -1    0    0  502    0  0.00000000000E+00  0.00000000000E+00  0.40519857293E+03  0.40519857293E+03  0.00000000000E+00 0. -1.
          1   -1    0    0  501    0 -0.00000000000E+00 -0.00000000000E+00 -0.14608880577E+04  0.14608880577E+04  0.00000000000E+00 0. -1.
         25    2    1    2    0    0 -0.81698045347E+01  0.58642597075E+02 -0.83876575762E+02  0.16175417491E+03  0.12499373281E+03 0.  0.
          2    1    1    2  501    0  0.47261864736E+02 -0.48055883695E+02 -0.13361009551E+04  0.13377999903E+04  0.00000000000E+00 0. -1.
          1    1    1    2  502    0 -0.39092060201E+02 -0.10586713379E+02  0.36428804610E+03  0.36653246541E+03  0.00000000000E+00 0. -1.
         22    1    3    3    0    0  0.45878870783E+02  0.38266230107E+02 -0.85102751635E+02  0.10397910120E+03  0.00000000000E+00 0. -1.
         22    1    3    3    0    0 -0.54048675318E+02  0.20376366968E+02  0.12261758728E+01  0.57775073706E+02  0.00000000000E+00 0. -1.
</event>
<event>
 7    1  0.6443388E-006  0.3467315E+03  0.7818608E-02  0.1148308E+00
          2   -1    0    0  502    0  0.00000000000E+00  0.00000000000E+00  0.39285405559E+04  0.39285405559E+04  0.00000000000E+00 0. -1.
          1   -1    0    0  501    0 -0.00000000000E+00 -0.00000000000E+00 -0.12899023100E+04  0.12899023100E+04  0.00000000000E+00 0. -1.
         25    2    1    2    0    0 -0.14119080898E+03  0.31638185068E+03 -0.34325086527E+03  0.50346560939E+03  0.12499657335E+03 0.  0.
          2    1    1    2  501    0  0.11354049026E+03  0.29612166764E+02 -0.85470115038E+03  0.86271801871E+03  0.00000000000E+00 0. -1.
          1    1    1    2  502    0  0.27650318716E+02 -0.34599401745E+03  0.38365902615E+04  0.38522592378E+04  0.00000000000E+00 0. -1.
         22    1    3    3    0    0 -0.11257441743E+02  0.55841165207E+02 -0.13196636152E+03  0.14373616907E+03  0.00000000000E+00 0. -1.
         22    1    3    3    0    0 -0.12993336723E+03  0.26054068548E+03 -0.21128450375E+03  0.35972944032E+03  0.00000000000E+00 0. -1.
</event>
<event>
 7    1  0.6443388E-006  0.3351093E+02  0.7818608E-02  0.1614693E+00
          2   -1    0    0  502    0  0.00000000000E+00  0.00000000000E+00  0.36048204902E+03  0.36048204902E+03  0.00000000000E+00 0. -1.
          1   -1    0    0  501    0 -0.00000000000E+00 -0.00000000000E+00 -0.12284986559E+04  0.12284986559E+04  0.00000000000E+00 0. -1.
         25    2    1    2    0    0 -0.49566882138E+02 -0.38736471613E+01  0.93243460354E+02  0.16367930804E+03  0.12499876814E+03 0.  0.
          2    1    1    2  501    0  0.20820565314E+02 -0.12575025884E+02 -0.11919741177E+04  0.11922222630E+04  0.00000000000E+00 0. -1.
          1    1    1    2  502    0  0.28746316824E+02  0.16448673045E+02  0.23071405044E+03  0.23307913387E+03  0.00000000000E+00 0. -1.
         22    1    3    3    0    0 -0.72701184995E+02  0.18182767295E+02  0.10553291054E+03  0.12943442561E+03  0.00000000000E+00 0. -1.
         22    1    3    3    0    0  0.23134302857E+02 -0.22056414456E+02 -0.12289450182E+02  0.34244882437E+02  0.00000000000E+00 0. -1.
</event>
<event>
 7    1  0.6443388E-006  0.1664769E+03  0.7818608E-02  0.1321175E+00
          2   -1    0    0  502    0  0.00000000000E+00  0.00000000000E+00  0.55219156066E+03  0.55219156066E+03  0.00000000000E+00 0. -1.
          1   -1    0    0  501    0 -0.00000000000E+00 -0.00000000000E+00 -0.21322297675E+03  0.21322297675E+03  0.00000000000E+00 0. -1.
         25    2    1    2    0    0  0.15362480464E+02 -0.13445477385E+03  0.81490527469E+02  0.20144390251E+03  0.12499939110E+03 0.  0.
          2    1    1    2  501    0  0.87015524386E+01 -0.40294672378E+02 -0.13099242410E+03  0.13732586358E+03  0.00000000000E+00 0. -1.
          1    1    1    2  502    0 -0.24064032902E+02  0.17474944623E+03  0.38847048054E+03  0.42664477131E+03  0.00000000000E+00 0. -1.
         22    1    3    3    0    0 -0.25133142399E+02  0.11032316931E+02  0.32802887747E+02  0.42771676472E+02  0.00000000000E+00 0. -1.
         22    1    3    3    0    0  0.40495622863E+02 -0.14548709078E+03  0.48687639722E+02  0.15867222604E+03  0.00000000000E+00 0. -1.
</event>
<event>
 7    1  0.6443388E-006  0.3184983E+02  0.7818608E-02  0.1609416E+00
          2   -1    0    0  502    0  0.00000000000E+00  0.00000000000E+00  0.10118914800E+03  0.10118914800E+03  0.00000000000E+00 0. -1.
          1   -1    0    0  501    0 -0.00000000000E+00 -0.00000000000E+00 -0.10238047988E+03  0.10238047988E+03  0.00000000000E+00 0. -1.
         25    2    1    2    0    0 -0.44348368381E+02 -0.24006311671E+02 -0.24262765849E+00  0.13478726085E+03  0.12499786414E+03 0.  0.
          2    1    1    2  501    0  0.26404509966E+02 -0.10807553088E+00 -0.20062407526E+02  0.33161876042E+02  0.00000000000E+00 0. -1.
          1    1    1    2  502    0  0.17943858415E+02  0.24114387202E+02  0.19113703304E+02  0.35620490998E+02  0.00000000000E+00 0. -1.
         22    1    3    3    0    0 -0.29809721117E+02 -0.38668155772E+02 -0.56610327983E+02  0.74756772123E+02  0.00000000000E+00 0.  1.
         22    1    3    3    0    0 -0.14538647264E+02  0.14661844101E+02  0.56367700324E+02  0.60030488725E+02  0.00000000000E+00 0.  1.
</event>
<event>
 7    1  0.6443388E-006  0.7754373E+02  0.7818608E-02  0.1467127E+00
          2   -1    0    0  502    0  0.00000000000E+00  0.00000000000E+00  0.68750771379E+02  0.68750771379E+02  0.00000000000E+00 0. -1.
          1   -1    0    0  501    0 -0.00000000000E+00 -0.00000000000E+00 -0.14123877763E+04  0.14123877763E+04  0.00000000000E+00 0. -1.
         25    2    1    2    0    0 -0.26133586325E+02  0.51724550295E+02 -0.68285521392E+03  0.69661548020E+03  0.12499396241E+03 0.  0.
          2    1    1    2  501    0 -0.26841608208E+02  0.59715180316E+01 -0.69748201909E+03  0.69802385196E+03  0.00000000000E+00 0. -1.
          1    1    1    2  502    0  0.52975194534E+02 -0.57696068327E+02  0.36700228114E+02  0.86499215487E+02  0.00000000000E+00 0. -1.
         22    1    3    3    0    0 -0.48654681564E+02  0.76068607558E+02 -0.60897560901E+03  0.61563382254E+03  0.00000000000E+00 0. -1.
         22    1    3    3    0    0  0.22521095239E+02 -0.24344057263E+02 -0.73879604909E+02  0.80981657653E+02  0.00000000000E+00 0. -1.
</event>
<event>
 7    1  0.6443388E-006  0.4738125E+02  0.7818608E-02  0.1460204E+00
          2   -1    0    0  502    0  0.00000000000E+00  0.00000000000E+00  0.26630205525E+04  0.26630205525E+04  0.00000000000E+00 0. -1.
          1   -1    0    0  501    0 -0.00000000000E+00 -0.00000000000E+00 -0.13263499755E+03  0.13263499755E+03  0.00000000000E+00 0. -1.
         25    2    1    2    0    0 -0.11838245357E+02  0.21995393283E+02 -0.58498910573E+02  0.14026049900E+03  0.12500777441E+03 0.  0.
          2    1    1    2  501    0  0.20981511735E+01 -0.68364707746E+02  0.23609891511E+01  0.68437634189E+02  0.00000000000E+00 0. -1.
          1    1    1    2  502    0  0.97400941834E+01  0.46369314463E+02  0.25865234764E+04  0.25869574169E+04  0.00000000000E+00 0. -1.
         22    1    3    3    0    0  0.16196318062E+02 -0.36636877453E+02 -0.63499654680E+02  0.75078543225E+02  0.00000000000E+00 0.  1.
         22    1    3    3    0    0 -0.28034563419E+02  0.58632270735E+02  0.50007441077E+01  0.65181955780E+02  0.00000000000E+00 0.  1.
</event>
<event>
 7    1  0.6443388E-006  0.8943488E+02  0.7818608E-02  0.1349257E+00
          2   -1    0    0  502    0  0.00000000000E+00  0.00000000000E+00  0.64575538532E+02  0.64575538532E+02  0.00000000000E+00 0. -1.
          1   -1    0    0  501    0 -0.00000000000E+00 -0.00000000000E+00 -0.57798649073E+03  0.57798649073E+03  0.00000000000E+00 0. -1.
         25    2    1    2    0    0 -0.61607768852E+02  0.96671564375E+02 -0.29816135116E+03  0.34302166734E+03  0.12499105727E+03 0.  0.
          2    1    1    2  501    0  0.27954332599E+01 -0.84514479428E+02 -0.22346150234E+03  0.23892583516E+03  0.00000000000E+00 0. -1.
          1    1    1    2  502    0  0.58812335592E+02 -0.12157084947E+02  0.82119012939E+01  0.60614526766E+02  0.00000000000E+00 0. -1.
         22    1    3    3    0    0 -0.85206304372E+02  0.19902527257E+02 -0.13053832484E+03  0.15715113473E+03  0.00000000000E+00 0.  1.
         22    1    3    3    0    0  0.23598535521E+02  0.76769037118E+02 -0.16762302632E+03  0.18587053261E+03  0.00000000000E+00 0.  1.
</event>
<event>
 7    1  0.6443388E-006  0.1106036E+03  0.7818608E-02  0.1365047E+00
          2   -1    0    0  502    0  0.00000000000E+00  0.00000000000E+00  0.12921988279E+04  0.12921988279E+04  0.00000000000E+00 0. -1.
          1   -1    0    0  501    0 -0.00000000000E+00 -0.00000000000E+00 -0.63132719772E+02  0.63132719772E+02  0.00000000000E+00 0. -1.
         25    2    1    2    0    0  0.10372466654E+03 -0.53918980921E+02  0.22709244509E+03  0.28436240814E+03  0.12499975037E+03 0.  0.
          2    1    1    2  501    0 -0.30760299157E+02 -0.29330940130E+02 -0.17163415633E+02  0.45837570718E+02  0.00000000000E+00 0. -1.
          1    1    1    2  502    0 -0.72964367380E+02  0.83249921051E+02  0.10191370787E+04  0.10251315688E+04  0.00000000000E+00 0. -1.
         22    1    3    3    0    0  0.12814267955E+03 -0.37153866304E+02  0.21352987129E+03  0.25178554771E+03  0.00000000000E+00 0. -1.
         22    1    3    3    0    0 -0.24418013010E+02 -0.16765114617E+02  0.13562573807E+02  0.32576860434E+02  0.00000000000E+00 0. -1.
</event>
<event>
 7    1  0.6443388E-006  0.2873100E+02  0.7818608E-02  0.1671363E+00
          2   -1    0    0  502    0  0.00000000000E+00  0.00000000000E+00  0.14400897945E+04  0.14400897945E+04  0.00000000000E+00 0. -1.
          1   -1    0    0  501    0 -0.00000000000E+00 -0.00000000000E+00 -0.17612632727E+03  0.17612632727E+03  0.00000000000E+00 0. -1.
         25    2    1    2    0    0  0.40112941093E+02  0.28459045562E+02 -0.70503440120E+02  0.15170437275E+03  0.12499806528E+03 0.  0.
          2    1    1    2  501    0 -0.16017887241E+02 -0.12859550811E+02 -0.63249093879E+02  0.66501042362E+02  0.00000000000E+00 0. -1.
          1    1    1    2  502    0 -0.24095053852E+02 -0.15599494751E+02  0.13977160013E+04  0.13980107067E+04  0.00000000000E+00 0. -1.
         22    1    3    3    0    0  0.15260299679E+02 -0.37251931592E+02 -0.70806200976E+02  0.81449992328E+02  0.00000000000E+00 0.  1.
         22    1    3    3    0    0  0.24852641414E+02  0.65710977153E+02  0.30276085634E+00  0.70254380418E+02  0.00000000000E+00 0.  1.
</event>
<event>
 7    1  0.6443388E-006  0.8428606E+02  0.7818608E-02  0.1373693E+00
          2   -1    0    0  502    0  0.00000000000E+00  0.00000000000E+00  0.92912147867E+03  0.92912147867E+03  0.00000000000E+00 0. -1.
          1   -1    0    0  501    0 -0.00000000000E+00 -0.00000000000E+00 -0.53529984173E+02  0.53529984173E+02  0.00000000000E+00 0. -1.
         25    2    1    2    0    0 -0.44415744984E+00  0.81366898640E+02  0.29099310191E+03  0.32698818611E+03  0.12499407597E+03 0.  0.
          2    1    1    2  501    0 -0.50767501802E+02 -0.10869126496E+02 -0.11544450223E+02  0.53186008319E+02  0.00000000000E+00 0. -1.
          1    1    1    2  502    0  0.51211659252E+02 -0.70497772144E+02  0.59614284281E+03  0.60247726841E+03  0.00000000000E+00 0. -1.
         22    1    3    3    0    0  0.58248111983E+02  0.47307379390E+02  0.10543798768E+03  0.12941406392E+03  0.00000000000E+00 0.  1.
         22    1    3    3    0    0 -0.58692269433E+02  0.34059519249E+02  0.18555511422E+03  0.19757412219E+03  0.00000000000E+00 0.  1.
</event>
<event>
 7    1  0.6443388E-006  0.1984095E+03  0.7818608E-02  0.1211878E+00
          2   -1    0    0  502    0  0.00000000000E+00  0.00000000000E+00  0.11343386102E+04  0.11343386102E+04  0.00000000000E+00 0. -1.
          1   -1    0    0  501    0 -0.00000000000E+00 -0.00000000000E+00 -0.30472626703E+04  0.30472626703E+04  0.00000000000E+00 0. -1.
         25    2    1    2    0    0 -0.75386323636E+02  0.89940670583E+02 -0.23865750155E+03  0.29386218667E+03  0.12500063877E+03 0.  0.
          2    1    1    2  501    0  0.82151928596E+01  0.99984416341E+02 -0.27709201805E+04  0.27727356562E+04  0.00000000000E+00 0. -1.
          1    1    1    2  502    0  0.67171130777E+02 -0.18992508692E+03  0.10966536219E+04  0.11150034376E+04  0.00000000000E+00 0. -1.
         22    1    3    3    0    0 -0.31692735111E+02  0.92172565258E+01 -0.18419948557E+03  0.18713320860E+03  0.00000000000E+00 0.  1.
         22    1    3    3    0    0 -0.43693588525E+02  0.80723414058E+02 -0.54458015978E+02  0.10672897807E+03  0.00000000000E+00 0.  1.
</event>
<event>
 7    1  0.6443388E-006  0.7862925E+02  0.7818608E-02  0.1354843E+00
          2   -1    0    0  502    0  0.00000000000E+00  0.00000000000E+00  0.82037454355E+03  0.82037454355E+03  0.00000000000E+00 0. -1.
          1   -1    0    0  501    0 -0.00000000000E+00 -0.00000000000E+00 -0.20366681478E+04  0.20366681478E+04  0.00000000000E+00 0. -1.
         25    2    1    2    0    0  0.10826161953E+03 -0.35507341441E+02 -0.14654836436E+03  0.22379163818E+03  0.12499969865E+03 0.  0.
          2    1    1    2  501    0 -0.75461378724E+02 -0.20771575153E+02 -0.18493120077E+04  0.18509675254E+04  0.00000000000E+00 0. -1.
          1    1    1    2  502    0 -0.32800240808E+02  0.56278916594E+02  0.77956676787E+03  0.78228352777E+03  0.00000000000E+00 0. -1.
         22    1    3    3    0    0  0.30962096172E+02  0.45146057365E+02 -0.67649825780E+02  0.87024805792E+02  0.00000000000E+00 0.  1.
         22    1    3    3    0    0  0.77299523360E+02 -0.80653398807E+02 -0.78898538576E+02  0.13676683238E+03  0.00000000000E+00 0.  1.
</event>
<event>
 7    1  0.6443388E-006  0.1430106E+03  0.7818608E-02  0.1295892E+00
          2   -1    0    0  502    0  0.00000000000E+00  0.00000000000E+00  0.60731992531E+03  0.60731992531E+03  0.00000000000E+00 0. -1.
          1   -1    0    0  501    0 -0.00000000000E+00 -0.00000000000E+00 -0.99585257916E+03  0.99585257916E+03  0.00000000000E+00 0. -1.
         25    2    1    2    0    0 -0.82235552171E+02 -0.15577111769E+03 -0.24947955864E+03  0.32998805821E+03  0.12499896493E+03 0.  0.
          2    1    1    2  501    0  0.58362279993E+02  0.15539366778E+02 -0.69586927742E+03  0.69848527465E+03  0.00000000000E+00 0. -1.
          1    1    1    2  502    0  0.23873272177E+02  0.14023175091E+03  0.55681618221E+03  0.57469917162E+03  0.00000000000E+00 0. -1.
         22    1    3    3    0    0 -0.74702185114E+02 -0.89952105695E+02 -0.64573267476E+02  0.13357209534E+03  0.00000000000E+00 0.  1.
         22    1    3    3    0    0 -0.75333670564E+01 -0.65819011998E+02 -0.18490629116E+03  0.19641596287E+03  0.00000000000E+00 0.  1.
</event>
<event>
 7    1  0.6443388E-006  0.9712195E+02  0.7818608E-02  0.1328889E+00
          2   -1    0    0  502    0  0.00000000000E+00  0.00000000000E+00  0.44274809453E+03  0.44274809453E+03  0.00000000000E+00 0. -1.
          1   -1    0    0  501    0 -0.00000000000E+00 -0.00000000000E+00 -0.15070489945E+04  0.15070489945E+04  0.00000000000E+00 0. -1.
         25    2    1    2    0    0  0.58823841075E+02 -0.12418147585E+03 -0.40356289460E+03  0.44425957254E+03  0.12498909821E+03 0.  0.
          2    1    1    2  501    0 -0.24407559409E-01  0.94224020393E+02 -0.10784936469E+04  0.10826018257E+04  0.00000000000E+00 0. -1.
          1    1    1    2  502    0 -0.58799433516E+02  0.29957455453E+02  0.41775564152E+03  0.42293569079E+03  0.00000000000E+00 0. -1.
         22    1    3    3    0    0 -0.39654107093E+01  0.17905022177E+02 -0.11581702283E+03  0.11725995513E+03  0.00000000000E+00 0.  1.
         22    1    3    3    0    0  0.62789251785E+02 -0.14208649802E+03 -0.28774587177E+03  0.32699961741E+03  0.00000000000E+00 0.  1.
</event>
<event>
 7    1  0.6443388E-006  0.3054598E+03  0.7818608E-02  0.1238536E+00
          2   -1    0    0  502    0  0.00000000000E+00  0.00000000000E+00  0.15101339197E+04  0.15101339197E+04  0.00000000000E+00 0. -1.
          1   -1    0    0  501    0 -0.00000000000E+00 -0.00000000000E+00 -0.24408099796E+03  0.24408099796E+03  0.00000000000E+00 0. -1.
         25    2    1    2    0    0 -0.23756627291E+03  0.23260222705E+03  0.10129322270E+04  0.10734049636E+04  0.12499995779E+03 0.  0.
          2    1    1    2  501    0  0.24109966911E+03 -0.18335522836E+03 -0.10402729764E+03  0.32026531012E+03  0.00000000000E+00 0. -1.
          1    1    1    2  502    0 -0.35333961998E+01 -0.49246998688E+02  0.35714799240E+03  0.36054464389E+03  0.00000000000E+00 0. -1.
         22    1    3    3    0    0 -0.21492610204E+03  0.18329955518E+03  0.94585451767E+03  0.98713359018E+03  0.00000000000E+00 0. -1.
         22    1    3    3    0    0 -0.22640170872E+02  0.49302671868E+02  0.67077709282E+02  0.86271373427E+02  0.00000000000E+00 0. -1.
</event>
<event>
 7    1  0.6443388E-006  0.5582891E+02  0.7818608E-02  0.1513367E+00
          2   -1    0    0  502    0  0.00000000000E+00  0.00000000000E+00  0.87964647247E+03  0.87964647247E+03  0.00000000000E+00 0. -1.
          1   -1    0    0  501    0 -0.00000000000E+00 -0.00000000000E+00 -0.88063248535E+03  0.88063248535E+03  0.00000000000E+00 0. -1.
         25    2    1    2    0    0 -0.30817473448E+02  0.36273841428E+01 -0.15264538925E+03  0.19973336582E+03  0.12501971035E+03 0.  0.
          2    1    1    2  501    0  0.53826737584E+02 -0.19006685195E+02 -0.70306232865E+03  0.70537593504E+03  0.00000000000E+00 0. -1.
          1    1    1    2  502    0 -0.23009264136E+02  0.15379301052E+02  0.85472170503E+03  0.85516965696E+03  0.00000000000E+00 0. -1.
         22    1    3    3    0    0  0.35085697951E+02 -0.37117235358E+02 -0.54544389539E+02  0.74724733466E+02  0.00000000000E+00 0.  1.
         22    1    3    3    0    0 -0.65903171399E+02  0.40744619501E+02 -0.98100999716E+02  0.12500863236E+03  0.00000000000E+00 0.  1.
</event>
<event>
 7    1  0.6443388E-006  0.1067680E+03  0.7818608E-02  0.1326758E+00
          2   -1    0    0  502    0  0.00000000000E+00  0.00000000000E+00  0.36976247187E+03  0.36976247187E+03  0.00000000000E+00 0. -1.
          1   -1    0    0  501    0 -0.00000000000E+00 -0.00000000000E+00 -0.16535910068E+03  0.16535910068E+03  0.00000000000E+00 0. -1.
         25    2    1    2    0    0  0.33707836106E+02  0.11629788599E+03 -0.37472582572E+02  0.17801833104E+03  0.12499966097E+03 0.  0.
          2    1    1    2  501    0  0.43766612349E+02 -0.42732342530E+02 -0.27685409356E+02  0.67142023695E+02  0.00000000000E+00 0. -1.
          1    1    1    2  502    0 -0.77474448455E+02 -0.73565543456E+02  0.26956136312E+03  0.28996121781E+03  0.00000000000E+00 0. -1.
         22    1    3    3    0    0  0.18297210601E+01  0.54347875918E+02  0.44623331806E+02  0.70344020623E+02  0.00000000000E+00 0.  1.
         22    1    3    3    0    0  0.31878115046E+02  0.61950010069E+02 -0.82095914379E+02  0.10767431042E+03  0.00000000000E+00 0.  1.
</event>
<event>
 7    1  0.6443388E-006  0.1209061E+03  0.7818608E-02  0.1419623E+00
          2   -1    0    0  502    0  0.00000000000E+00  0.00000000000E+00  0.68912415190E+03  0.68912415190E+03  0.00000000000E+00 0. -1.
          1   -1    0    0  501    0 -0.00000000000E+00 -0.00000000000E+00 -0.21068692069E+03  0.21068692069E+03  0.00000000000E+00 0. -1.
         25    2    1    2    0    0  0.10501851407E+03 -0.79718607354E+01  0.43126865281E+03  0.46120604009E+03  0.12500368657E+03 0.  0.
          2    1    1    2  501    0 -0.12110280330E+03 -0.11311980861E+02 -0.17604912751E+03  0.21397931016E+03  0.00000000000E+00 0. -1.
          1    1    1    2  502    0  0.16084289230E+02  0.19283841597E+02  0.22321770591E+03  0.22462572234E+03  0.00000000000E+00 0. -1.
         22    1    3    3    0    0  0.24407402412E+02 -0.13910225582E+02  0.33202354670E+03  0.33320992067E+03  0.00000000000E+00 0. -1.
         22    1    3    3    0    0  0.80611111660E+02  0.59383648469E+01  0.99245106113E+02  0.12799611942E+03  0.00000000000E+00 0. -1.
</event>
<event>
 7    1  0.6443388E-006  0.1660449E+03  0.7818608E-02  0.1335184E+00
          2   -1    0    0  502    0  0.00000000000E+00  0.00000000000E+00  0.23303194335E+04  0.23303194335E+04  0.00000000000E+00 0. -1.
          1   -1    0    0  501    0 -0.00000000000E+00 -0.00000000000E+00 -0.13515609041E+03  0.13515609041E+03  0.00000000000E+00 0. -1.
         25    2    1    2    0    0  0.15156922312E+03  0.69355595998E+02  0.32273787991E+03  0.38414592981E+03  0.12499971269E+03 0.  0.
          2    1    1    2  501    0 -0.19004477263E+02  0.31192719473E+02 -0.97641152288E+02  0.10424946294E+03  0.00000000000E+00 0. -1.
          1    1    1    2  502    0 -0.13256474585E+03 -0.10054831547E+03  0.19700666155E+04  0.19770801311E+04  0.00000000000E+00 0. -1.
         22    1    3    3    0    0  0.14168663608E+03  0.98398879326E+02  0.23735825395E+03  0.29342185163E+03  0.00000000000E+00 0. -1.
         22    1    3    3    0    0  0.98825870339E+01 -0.29043283328E+02  0.85379625959E+02  0.90724078182E+02  0.00000000000E+00 0. -1.
</event>
<event>
 7    1  0.6443388E-006  0.7666942E+02  0.7818608E-02  0.1425391E+00
          2   -1    0    0  502    0  0.00000000000E+00  0.00000000000E+00  0.91975249070E+03  0.91975249070E+03  0.00000000000E+00 0. -1.
          1   -1    0    0  501    0 -0.00000000000E+00 -0.00000000000E+00 -0.10515641448E+04  0.10515641448E+04  0.00000000000E+00 0. -1.
         25    2    1    2    0    0 -0.17492632147E+02  0.50988492981E+02  0.34041587033E+03  0.36662504586E+03  0.12500056352E+03 0.  0.
          2    1    1    2  501    0 -0.10968487500E+02 -0.75997223983E+02 -0.10364039292E+04  0.10392444324E+04  0.00000000000E+00 0. -1.
          1    1    1    2  502    0  0.28461119646E+02  0.25008731002E+02  0.56417640477E+03  0.56544715726E+03  0.00000000000E+00 0. -1.
         22    1    3    3    0    0 -0.23932596755E+02  0.84662791692E+02  0.15644685378E+03  0.17948865017E+03  0.00000000000E+00 0.  1.
         22    1    3    3    0    0  0.64399646082E+01 -0.33674298711E+02  0.18396901655E+03  0.18713639568E+03  0.00000000000E+00 0.  1.
</event>
<event>
 7    1  0.6443388E-006  0.5561910E+02  0.7818608E-02  0.1431266E+00
          2   -1    0    0  502    0  0.00000000000E+00  0.00000000000E+00  0.32853169375E+04  0.32853169375E+04  0.00000000000E+00 0. -1.
          1   -1    0    0  501    0 -0.00000000000E+00 -0.00000000000E+00 -0.52214509929E+03  0.52214509929E+03  0.00000000000E+00 0. -1.
         25    2    1    2    0    0 -0.65591066144E+01 -0.68138656305E+02  0.13635115952E+03  0.19723657017E+03  0.12499891018E+03 0.  0.
          2    1    1    2  501    0 -0.36199882640E+02  0.42324538214E+02 -0.48992458937E+03  0.49308001512E+03  0.00000000000E+00 0. -1.
          1    1    1    2  502    0  0.42758989255E+02  0.25814118091E+02  0.31167452681E+04  0.31171454515E+04  0.00000000000E+00 0. -1.
         22    1    3    3    0    0 -0.64801712926E+02 -0.48883266403E+02  0.77366553167E+02  0.11213571813E+03  0.00000000000E+00 0.  1.
         22    1    3    3    0    0  0.58242606311E+02 -0.19255389903E+02  0.58984606352E+02  0.85100852033E+02  0.00000000000E+00 0.  1.
</event>
<event>
 7    1  0.6443388E-006  0.1891818E+03  0.7818608E-02  0.1193352E+00
          2   -1    0    0  502    0  0.00000000000E+00  0.00000000000E+00  0.25942913652E+03  0.25942913652E+03  0.00000000000E+00 0. -1.
          1   -1    0    0  501    0 -0.00000000000E+00 -0.00000000000E+00 -0.56034123242E+03  0.56034123242E+03  0.00000000000E+00 0. -1.
         25    2    1    2    0    0  0.11662347243E+03  0.60102740742E+02  0.27162172241E+02  0.18323580899E+03  0.12499681728E+03 0.  0.
          2    1    1    2  501    0 -0.20481908809E+03  0.33418078289E+02 -0.42671407256E+03  0.47450239886E+03  0.00000000000E+00 0. -1.
          1    1    1    2  502    0  0.88195615667E+02 -0.93520819031E+02  0.98639804412E+02  0.16203216110E+03  0.00000000000E+00 0. -1.
         22    1    3    3    0    0  0.35277736965E+02  0.86007477750E+02 -0.21118984446E+01  0.92985294909E+02  0.00000000000E+00 0. -1.
         22    1    3    3    0    0  0.81345735460E+02 -0.25904737008E+02  0.29274070685E+02  0.90250514079E+02  0.00000000000E+00 0. -1.
</event>
<event>
 7    1  0.6443388E-006  0.1143367E+03  0.7818608E-02  0.1381451E+00
          2   -1    0    0  502    0  0.00000000000E+00  0.00000000000E+00  0.32673882094E+03  0.32673882094E+03  0.00000000000E+00 0. -1.
          1   -1    0    0  501    0 -0.00000000000E+00 -0.00000000000E+00 -0.35491376802E+03  0.35491376802E+03  0.00000000000E+00 0. -1.
         25    2    1    2    0    0 -0.82726501014E+02  0.54522881765E+02  0.13812805270E+03  0.21100105935E+03  0.12500267796E+03 0.  0.
          2    1    1    2  501    0 -0.61212734093E+01  0.35392423134E+02 -0.29093031490E+03  0.29313911668E+03  0.00000000000E+00 0. -1.
          1    1    1    2  502    0  0.88847774423E+02 -0.89915304899E+02  0.12462731511E+03  0.17751241294E+03  0.00000000000E+00 0. -1.
         22    1    3    3    0    0 -0.98394666323E+01  0.61960440742E+02  0.10174776833E+02  0.63556568537E+02  0.00000000000E+00 0.  1.
         22    1    3    3    0    0 -0.72887034382E+02 -0.74375589773E+01  0.12795327587E+03  0.14744449081E+03  0.00000000000E+00 0.  1.
</event>
<event>
 7    1  0.6443388E-006  0.7027289E+02  0.7818608E-02  0.1364522E+00
          2   -1    0    0  502    0  0.00000000000E+00  0.00000000000E+00  0.32920957844E+03  0.32920957844E+03  0.00000000000E+00 0. -1.
          1   -1    0    0  501    0 -0.00000000000E+00 -0.00000000000E+00 -0.43584932002E+03  0.43584932002E+03  0.00000000000E+00 0. -1.
         25    2    1    2    0    0  0.58767028087E+01  0.28747607377E+02  0.97761777222E+02  0.16138096565E+03  0.12500196168E+03 0.  0.
          2    1    1    2  501    0  0.60613438609E+02 -0.38417316031E+02 -0.39506093854E+03  0.40152586999E+03  0.00000000000E+00 0. -1.
          1    1    1    2  502    0 -0.66490141418E+02  0.96697086544E+01  0.19065941973E+03  0.20215206282E+03  0.00000000000E+00 0. -1.
         22    1    3    3    0    0 -0.20967525900E+02  0.52720495700E+02  0.10966544149E+03  0.12347306130E+03  0.00000000000E+00 0.  1.
         22    1    3    3    0    0  0.26844228709E+02 -0.23972888323E+02 -0.11903664269E+02  0.37907904355E+02  0.00000000000E+00 0.  1.
</event>
<event>
 7    1  0.6443388E-006  0.1415325E+03  0.7818608E-02  0.1368254E+00
          2   -1    0    0  502    0  0.00000000000E+00  0.00000000000E+00  0.13253502205E+04  0.13253502205E+04  0.00000000000E+00 0. -1.
          1   -1    0    0  501    0 -0.00000000000E+00 -0.00000000000E+00 -0.10139498913E+04  0.10139498913E+04  0.00000000000E+00 0. -1.
         25    2    1    2    0    0 -0.25042030147E+02 -0.10844763075E+03  0.40874994609E+02  0.17228859826E+03  0.12499841607E+03 0.  0.
          2    1    1    2  501    0 -0.36332987416E+01 -0.32135628433E+02 -0.94374245872E+03  0.94429641949E+03  0.00000000000E+00 0. -1.
          1    1    1    2  502    0  0.28675328889E+02  0.14058325918E+03  0.12142677933E+04  0.12227150940E+04  0.00000000000E+00 0. -1.
         22    1    3    3    0    0  0.31894793559E+02 -0.19803617753E+02  0.54371036258E+02  0.66073222383E+02  0.00000000000E+00 0.  1.
         22    1    3    3    0    0 -0.56936823706E+02 -0.88644012995E+02 -0.13496041650E+02  0.10621537588E+03  0.00000000000E+00 0.  1.
</event>
<event>
 7    1  0.6443388E-006  0.6080608E+02  0.7818608E-02  0.1438163E+00
          2   -1    0    0  502    0  0.00000000000E+00  0.00000000000E+00  0.24643027372E+03  0.24643027372E+03  0.00000000000E+00 0. -1.
          1   -1    0    0  501    0 -0.00000000000E+00 -0.00000000000E+00 -0.95604236164E+03  0.95604236164E+03  0.00000000000E+00 0. -1.
         25    2    1    2    0    0 -0.31430714682E+00  0.35454295905E+02 -0.47678320044E+03  0.49417011633E+03  0.12499911106E+03 0.  0.
          2    1    1    2  501    0 -0.42630537024E+02  0.79977913918E+01 -0.46561617699E+03  0.46763206865E+03  0.00000000000E+00 0. -1.
          1    1    1    2  502    0  0.42944844171E+02 -0.43452087297E+02  0.23278728951E+03  0.24067045038E+03  0.00000000000E+00 0. -1.
         22    1    3    3    0    0 -0.57648691302E+02  0.27328211512E+02 -0.16209093895E+03  0.17419436054E+03  0.00000000000E+00 0.  1.
         22    1    3    3    0    0  0.57334384155E+02  0.81260843934E+01 -0.31469226149E+03  0.31997575579E+03  0.00000000000E+00 0.  1.
</event>
<event>
 7    1  0.6443388E-006  0.3235356E+02  0.7818608E-02  0.1634187E+00
          2   -1    0    0  502    0  0.00000000000E+00  0.00000000000E+00  0.19947780147E+04  0.19947780147E+04  0.00000000000E+00 0. -1.
          1   -1    0    0  501    0 -0.00000000000E+00 -0.00000000000E+00 -0.44519608206E+03  0.44519608206E+03  0.00000000000E+00 0. -1.
         25    2    1    2    0    0 -0.41871026022E+02  0.25908328346E+02  0.16470752022E+04  0.16525453508E+04  0.12499996199E+03 0.  0.
          2    1    1    2  501    0  0.19384693372E+02 -0.25897363131E+02 -0.44150218953E+03  0.44268569337E+03  0.00000000000E+00 0. -1.
          1    1    1    2  502    0  0.22486332650E+02 -0.10965214289E-01  0.34400891994E+03  0.34474305254E+03  0.00000000000E+00 0. -1.
         22    1    3    3    0    0 -0.31853388870E+02  0.74766434561E+02  0.11858161468E+04  0.11885977419E+04  0.00000000000E+00 0.  1.
         22    1    3    3    0    0 -0.10017637152E+02 -0.48858106216E+02  0.46125905543E+03  0.46394760891E+03  0.00000000000E+00 0.  1.
</event>
<event>
 7    1  0.6443388E-006  0.5720965E+02  0.7818608E-02  0.1417436E+00
          2   -1    0    0  502    0  0.00000000000E+00  0.00000000000E+00  0.66095555248E+03  0.66095555248E+03  0.00000000000E+00 0. -1.
          1   -1    0    0  501    0 -0.00000000000E+00 -0.00000000000E+00 -0.29858000845E+03  0.29858000845E+03  0.00000000000E+00 0. -1.
         25    2    1    2    0    0 -0.15144103016E+02  0.58695266787E+02 -0.34101561444E+02  0.14304724673E+03  0.12500048042E+03 0.  0.
          2    1    1    2  501    0  0.54524856187E+02 -0.21788833707E+02 -0.20466855287E+03  0.21292470442E+03  0.00000000000E+00 0. -1.
          1    1    1    2  502    0 -0.39380753172E+02 -0.36906433081E+02  0.60114565834E+03  0.60356360979E+03  0.00000000000E+00 0. -1.
         22    1    3    3    0    0  0.44676189071E+02  0.56303485553E+02  0.41625691106E+01  0.71995634152E+02  0.00000000000E+00 0. -1.
         22    1    3    3    0    0 -0.59820292086E+02  0.23917812342E+01 -0.38264130555E+02  0.71051612578E+02  0.00000000000E+00 0. -1.
</event>
<event>
 7    1  0.6443388E-006  0.4116204E+02  0.7818608E-02  0.1550569E+00
          2   -1    0    0  502    0  0.00000000000E+00  0.00000000000E+00  0.98590197575E+03  0.98590197575E+03  0.00000000000E+00 0. -1.
          1   -1    0    0  501    0 -0.00000000000E+00 -0.00000000000E+00 -0.40980166091E+03  0.40980166091E+03  0.00000000000E+00 0. -1.
         25    2    1    2    0    0  0.68939987922E+02  0.20367454906E+01  0.24165584775E+03  0.28067581523E+03  0.12499797693E+03 0.  0.
          2    1    1    2  501    0 -0.40215801157E+02 -0.82396645376E+01 -0.38891306986E+03  0.39107362305E+03  0.00000000000E+00 0. -1.
          1    1    1    2  502    0 -0.28724186765E+02  0.62029190470E+01  0.72335753695E+03  0.72395419839E+03  0.00000000000E+00 0. -1.
         22    1    3    3    0    0 -0.29669676920E+01 -0.23379107522E+02 -0.35958270755E+01  0.23839369500E+02  0.00000000000E+00 0. -1.
         22    1    3    3    0    0  0.71906955614E+02  0.25415853013E+02  0.24525167483E+03  0.25683644573E+03  0.00000000000E+00 0. -1.
</event>
<event>
 7    1  0.6443388E-006  0.2051571E+03  0.7818608E-02  0.1158812E+00
          2   -1    0    0  502    0  0.00000000000E+00  0.00000000000E+00  0.20430982939E+04  0.20430982939E+04  0.00000000000E+00 0. -1.
          1   -1    0    0  501    0 -0.00000000000E+00 -0.00000000000E+00 -0.25461142097E+03  0.25461142097E+03  0.00000000000E+00 0. -1.
         25    2    1    2    0    0  0.10219942250E+03  0.11768082763E+03  0.75639426189E+02  0.21363674263E+03  0.12500334338E+03 0.  0.
          2    1    1    2  501    0 -0.25298283685E+03 -0.28377152342E+02 -0.92040503635E+02  0.27069730849E+03  0.00000000000E+00 0. -1.
          1    1    1    2  502    0  0.15078341435E+03 -0.89303675286E+02  0.18048879504E+04  0.18133756638E+04  0.00000000000E+00 0. -1.
         22    1    3    3    0    0  0.64455550565E+02  0.12118140953E+03  0.98887936372E+02  0.16916937068E+03  0.00000000000E+00 0.  1.
         22    1    3    3    0    0  0.37743871935E+02 -0.35005819070E+01 -0.23248510183E+02  0.44467371949E+02  0.00000000000E+00 0.  1.
</event>
<event>
 7    1  0.6443388E-006  0.5604009E+02  0.7818608E-02  0.1536231E+00
          2   -1    0    0  502    0  0.00000000000E+00  0.00000000000E+00  0.18376594475E+04  0.18376594475E+04  0.00000000000E+00 0. -1.
          1   -1    0    0  501    0 -0.00000000000E+00 -0.00000000000E+00 -0.13292595141E+03  0.13292595141E+03  0.00000000000E+00 0. -1.
         25    2    1    2    0    0 -0.31384239713E+01 -0.65627066290E+02  0.19989530573E+03  0.24474439207E+03  0.12499969064E+03 0.  0.
          2    1    1    2  501    0 -0.17027063379E+02  0.53202153679E+02 -0.10334900708E+03  0.11747939099E+03  0.00000000000E+00 0. -1.
          1    1    1    2  502    0  0.20165487350E+02  0.12424912611E+02  0.16081871974E+04  0.16083616158E+04  0.00000000000E+00 0. -1.
         22    1    3    3    0    0 -0.34469776038E+01  0.36842152035E+02  0.37204323408E+02  0.52472731027E+02  0.00000000000E+00 0. -1.
         22    1    3    3    0    0  0.30855363249E+00 -0.10246921833E+03  0.16269098232E+03  0.19227166104E+03  0.00000000000E+00 0. -1.
</event>
<event>
 7    1  0.6443388E-006  0.2891080E+02  0.7818608E-02  0.1619826E+00
          2   -1    0    0  502    0  0.00000000000E+00  0.00000000000E+00  0.23349814252E+04  0.23349814252E+04  0.00000000000E+00 0. -1.
          1   -1    0    0  501    0 -0.00000000000E+00 -0.00000000000E+00 -0.13562327249E+02  0.13562327249E+02  0.00000000000E+00 0. -1.
         25    2    1    2    0    0  0.26496694243E+02  0.35380221424E+02  0.62911812589E+03  0.64293709250E+03  0.12499861483E+03 0.  0.
          2    1    1    2  501    0 -0.26549453922E+02 -0.65886316049E+01  0.22124539569E+02  0.35182080966E+02  0.00000000000E+00 0. -1.
          1    1    1    2  502    0  0.52759678797E-01 -0.28791589819E+02  0.16701764324E+04  0.16704245789E+04  0.00000000000E+00 0. -1.
         22    1    3    3    0    0 -0.17590369662E+02  0.61511159050E+02  0.49908823339E+03  0.50317204662E+03  0.00000000000E+00 0.  1.
         22    1    3    3    0    0  0.44087063905E+02 -0.26130937626E+02  0.13002989251E+03  0.13976504588E+03  0.00000000000E+00 0.  1.
</event>
<event>
 7    1  0.6443388E-006  0.1678704E+03  0.7818608E-02  0.1303010E+00
          2   -1    0    0  502    0  0.00000000000E+00  0.00000000000E+00  0.33155091704E+04  0.33155091704E+04  0.00000000000E+00 0. -1.
          1   -1    0    0  501    0 -0.00000000000E+00 -0.00000000000E+00 -0.36371579830E+03  0.36371579830E+03  0.00000000000E+00 0. -1.
         25    2    1    2    0    0  0.10731996064E+03  0.16913706787E+03  0.21439250812E+03  0.31892769231E+03  0.12500321479E+03 0.  0.
          2    1    1    2  501    0 -0.61749489854E+02 -0.15349104489E+03 -0.28927098043E+03  0.33324195486E+03  0.00000000000E+00 0. -1.
          1    1    1    2  502    0 -0.45570470786E+02 -0.15646022977E+02  0.30266718444E+04  0.30270553216E+04  0.00000000000E+00 0. -1.
         22    1    3    3    0    0  0.10768662888E+03  0.60873196832E+02  0.84377601736E+02  0.14973822427E+03  0.00000000000E+00 0.  1.
         22    1    3    3    0    0 -0.36666823669E+00  0.10826387104E+03  0.13001490638E+03  0.16918946805E+03  0.00000000000E+00 0.  1.
</event>
<event>
 7    1  0.6443388E-006  0.1040842E+03  0.7818608E-02  0.1362737E+00
          2   -1    0    0  502    0  0.00000000000E+00  0.00000000000E+00  0.19167404719E+04  0.19167404719E+04  0.00000000000E+00 0. -1.
          1   -1    0    0  501    0 -0.00000000000E+00 -0.00000000000E+00 -0.27016532744E+04  0.27016532744E+04  0.00000000000E+00 0. -1.
         25    2    1    2    0    0 -0.68542941415E+02  0.11666642989E+03  0.14289927482E+03  0.23313904200E+03  0.12499767790E+03 0.  0.
          2    1    1    2  501    0  0.75741777121E+02 -0.71187628560E+02 -0.26552097018E+04  0.26572435071E+04  0.00000000000E+00 0. -1.
          1    1    1    2  502    0 -0.71988357061E+01 -0.45478801325E+02  0.17273976245E+04  0.17280111972E+04  0.00000000000E+00 0. -1.
         22    1    3    3    0    0 -0.68398123335E+02  0.12683060792E+02  0.20475660609E+02  0.72514936283E+02  0.00000000000E+00 0. -1.
         22    1    3    3    0    0 -0.14481808068E+00  0.10398336909E+03  0.12242361421E+03  0.16062410571E+03  0.00000000000E+00 0. -1.
</event>
<event>
 7    1  0.6443388E-006  0.1096728E+03  0.7818608E-02  0.1324021E+00
          2   -1    0    0  502    0  0.00000000000E+00  0.00000000000E+00  0.15630335848E+04  0.15630335848E+04  0.00000000000E+00 0. -1.
          1   -1    0    0  501    0 -0.00000000000E+00 -0.00000000000E+00 -0.38784551968E+02  0.38784551968E+02  0.00000000000E+00 0. -1.
         25    2    1    2    0    0 -0.10678703288E+03 -0.21844979381E+02  0.34256271091E+03  0.38058362959E+03  0.12495605104E+03 0.  0.
          2    1    1    2  501    0  0.10857863549E+03 -0.39138895312E+02  0.15765574794E+03  0.19538809603E+03  0.00000000000E+00 0. -1.
          1    1    1    2  502    0 -0.17916026046E+01  0.60983874693E+02  0.10240305740E+04  0.10258464112E+04  0.00000000000E+00 0. -1.
         22    1    3    3    0    0 -0.65830995904E+02  0.13773812695E+02  0.52052775989E+02  0.85046630892E+02  0.00000000000E+00 0.  1.
         22    1    3    3    0    0 -0.40956036978E+02 -0.35618792076E+02  0.29050993492E+03  0.29553699870E+03  0.00000000000E+00 0.  1.
</event>
<event>
 7    1  0.6443388E-006  0.3719244E+02  0.7818608E-02  0.1539151E+00
          2   -1    0    0  502    0  0.00000000000E+00  0.00000000000E+00  0.19009237714E+03  0.19009237714E+03  0.00000000000E+00 0. -1.
          1   -1    0    0  501    0 -0.00000000000E+00 -0.00000000000E+00 -0.42367603325E+03  0.42367603325E+03  0.00000000000E+00 0. -1.
         25    2    1    2    0    0 -0.47131162672E+02  0.11326535416E+02  0.97070377727E+02  0.16552324759E+03  0.12500260142E+03 0.  0.
          2    1    1    2  501    0  0.15580469102E+02 -0.31357822591E+02 -0.38262953863E+03  0.38422835383E+03  0.00000000000E+00 0. -1.
          1    1    1    2  502    0  0.31550693570E+02  0.20031287174E+02  0.51975504802E+02  0.64016808965E+02  0.00000000000E+00 0. -1.
         22    1    3    3    0    0 -0.41930229487E+02 -0.15671688315E+02  0.12103701610E+03  0.12904923567E+03  0.00000000000E+00 0. -1.
         22    1    3    3    0    0 -0.52009331848E+01  0.26998223731E+02 -0.23966638377E+02  0.36474011922E+02  0.00000000000E+00 0. -1.
</event>
<event>
 7    1  0.6443388E-006  0.9403326E+02  0.7818608E-02  0.1318178E+00
          2   -1    0    0  502    0  0.00000000000E+00  0.00000000000E+00  0.33742625506E+04  0.33742625506E+04  0.00000000000E+00 0. -1.
          1   -1    0    0  501    0 -0.00000000000E+00 -0.00000000000E+00 -0.19622290516E+03  0.19622290516E+03  0.00000000000E+00 0. -1.
         25    2    1    2    0    0 -0.13391219647E+03 -0.73467266255E+02  0.99672014476E+02  0.22110648346E+03  0.12499460383E+03 0.  0.
          2    1    1    2  501    0  0.41031751056E+02  0.62737293907E+02 -0.12440320143E+03  0.14524368891E+03  0.00000000000E+00 0. -1.
          1    1    1    2  502    0  0.92880445411E+02  0.10729972348E+02  0.32027708324E+04  0.32041352834E+04  0.00000000000E+00 0. -1.
         22    1    3    3    0    0 -0.74356026920E+02 -0.90252605083E+02  0.10736952631E+03  0.15875316263E+03  0.00000000000E+00 0. -1.
         22    1    3    3    0    0 -0.59556169547E+02  0.16785338827E+02 -0.76975118378E+01  0.62353320835E+02  0.00000000000E+00 0. -1.
</event>
<event>
 7    1  0.6443388E-006  0.2959782E+03  0.7818608E-02  0.1221940E+00
          2   -1    0    0  502    0  0.00000000000E+00  0.00000000000E+00  0.15426893718E+04  0.15426893718E+04  0.00000000000E+00 0. -1.
          1   -1    0    0  501    0 -0.00000000000E+00 -0.00000000000E+00 -0.15381612606E+03  0.15381612606E+03  0.00000000000E+00 0. -1.
         25    2    1    2    0    0  0.25172208355E+03  0.18135453923E+03  0.60052048011E+03  0.68738928079E+03  0.12500280024E+03 0.  0.
          2    1    1    2  501    0 -0.26605526465E+03 -0.12260212475E+03  0.87604678976E+02  0.30576341282E+03  0.00000000000E+00 0. -1.
          1    1    1    2  502    0  0.14333181096E+02 -0.58752414478E+02  0.70074808663E+03  0.70335280422E+03  0.00000000000E+00 0. -1.
         22    1    3    3    0    0  0.20825974965E+03  0.86963257963E+02  0.35349878405E+03  0.41939971613E+03  0.00000000000E+00 0. -1.
         22    1    3    3    0    0  0.43462333904E+02  0.94391281264E+02  0.24702169605E+03  0.26798956466E+03  0.00000000000E+00 0. -1.
</event>
<event>
 7    1  0.6443388E-006  0.7645624E+02  0.7818608E-02  0.1423864E+00
          2   -1    0    0  502    0  0.00000000000E+00  0.00000000000E+00  0.75747836621E+03  0.75747836621E+03  0.00000000000E+00 0. -1.
          1   -1    0    0  501    0 -0.00000000000E+00 -0.00000000000E+00 -0.76771729540E+03  0.76771729540E+03  0.00000000000E+00 0. -1.
         25    2    1    2    0    0 -0.11142704215E+03 -0.10459717941E+02  0.22512767034E+03  0.28076886663E+03  0.12499318820E+03 0.  0.
          2    1    1    2  501    0  0.73871847260E+02  0.18655792758E+02 -0.73719828342E+03  0.74112508897E+03  0.00000000000E+00 0. -1.
          1    1    1    2  502    0  0.37555194895E+02 -0.81960748172E+01  0.50183168390E+03  0.50330170601E+03  0.00000000000E+00 0. -1.
         22    1    3    3    0    0 -0.12782580775E+03  0.14423100940E+02  0.13786635305E+03  0.18855925930E+03  0.00000000000E+00 0.  1.
         22    1    3    3    0    0  0.16398765591E+02 -0.24882818881E+02  0.87261317291E+02  0.92209607329E+02  0.00000000000E+00 0.  1.
</event>
<event>
 7    1  0.6443388E-006  0.6881941E+02  0.7818608E-02  0.1512168E+00
          2   -1    0    0  502    0  0.00000000000E+00  0.00000000000E+00  0.37692506437E+03  0.37692506437E+03  0.00000000000E+00 0. -1.
          1   -1    0    0  501    0 -0.00000000000E+00 -0.00000000000E+00 -0.12813671276E+03  0.12813671276E+03  0.00000000000E+00 0. -1.
         25    2    1    2    0    0  0.57278334980E+02 -0.37704967806E+02  0.55110246155E+02  0.15285824392E+03  0.12500412492E+03 0.  0.
          2    1    1    2  501    0  0.96847263742E+01  0.20457671290E+02 -0.73144456016E+02  0.76566452742E+02  0.00000000000E+00 0. -1.
          1    1    1    2  502    0 -0.66963061354E+02  0.17247296516E+02  0.26682256147E+03  0.27563708047E+03  0.00000000000E+00 0. -1.
         22    1    3    3    0    0  0.44512925320E+02 -0.29642260914E+02  0.95656984258E+02  0.10959161825E+03  0.00000000000E+00 0. -1.
         22    1    3    3    0    0  0.12765409660E+02 -0.80627068917E+01 -0.40546738102E+02  0.43266625671E+02  0.00000000000E+00 0. -1.
</event>
<event>
 7    1  0.6443388E-006  0.1041088E+03  0.7818608E-02  0.1441802E+00
          2   -1    0    0  502    0  0.00000000000E+00  0.00000000000E+00  0.55446070973E+03  0.55446070973E+03  0.00000000000E+00 0. -1.
          1   -1    0    0  501    0 -0.00000000000E+00 -0.00000000000E+00 -0.14129621374E+03  0.14129621374E+03  0.00000000000E+00 0. -1.
         25    2    1    2    0    0  0.21318103237E+02 -0.78920172713E+02  0.24968323958E+03  0.29094548986E+03  0.12499881101E+03 0.  0.
          2    1    1    2  501    0 -0.32180237717E+02  0.10105204299E+03 -0.96666934246E+02  0.14349766294E+03  0.00000000000E+00 0. -1.
          1    1    1    2  502    0  0.10862134480E+02 -0.22131870274E+02  0.26014819065E+03  0.26131377067E+03  0.00000000000E+00 0. -1.
         22    1    3    3    0    0  0.11914509596E+02  0.21803834158E+02  0.38913065233E+01  0.25149651874E+02  0.00000000000E+00 0. -1.
         22    1    3    3    0    0  0.94035936411E+01 -0.10072400687E+03  0.24579193306E+03  0.26579583799E+03  0.00000000000E+00 0. -1.
</event>
<event>
 7    1  0.6443388E-006  0.8196107E+02  0.7818608E-02  0.1341724E+00
          2   -1    0    0  502    0  0.00000000000E+00  0.00000000000E+00  0.75901080388E+03  0.75901080388E+03  0.00000000000E+00 0. -1.
          1   -1    0    0  501    0 -0.00000000000E+00 -0.00000000000E+00 -0.58090347031E+02  0.58090347031E+02  0.00000000000E+00 0. -1.
         25    2    1    2    0    0  0.10350900021E+02 -0.33665123350E+02  0.18587174697E+03  0.22674499899E+03  0.12499802631E+03 0.  0.
          2    1    1    2  501    0 -0.84667105638E+02 -0.89958344152E+00  0.17959885332E+02  0.86555678662E+02  0.00000000000E+00 0. -1.
          1    1    1    2  502    0  0.74316205617E+02  0.34564706791E+02  0.49708882454E+03  0.50380047326E+03  0.00000000000E+00 0. -1.
         22    1    3    3    0    0 -0.81612572406E+00 -0.10597930342E+02  0.19807489126E+03  0.19835988691E+03  0.00000000000E+00 0.  1.
         22    1    3    3    0    0  0.11167025745E+02 -0.23067193007E+02 -0.12203144282E+02  0.28385112077E+02  0.00000000000E+00 0.  1.
</event>
<event>
 7    1  0.6443388E-006  0.5340482E+02  0.7818608E-02  0.1472674E+00
          2   -1    0    0  502    0  0.00000000000E+00  0.00000000000E+00  0.14745178825E+04  0.14745178825E+04  0.00000000000E+00 0. -1.
          1   -1    0    0  501    0 -0.00000000000E+00 -0.00000000000E+00 -0.22274597624E+03  0.22274597624E+03  0.00000000000E+00 0. -1.
         25    2    1    2    0    0 -0.19088036747E+02  0.46281950716E+02  0.24120043969E+03  0.27624186285E+03  0.12500217029E+03 0.  0.
          2    1    1    2  501    0  0.38139462310E+02  0.42124935461E+01 -0.20282660811E+03  0.20642431214E+03  0.00000000000E+00 0. -1.
          1    1    1    2  502    0 -0.19051425563E+02 -0.50494444262E+02  0.12133980747E+04  0.12145976837E+04  0.00000000000E+00 0. -1.
         22    1    3    3    0    0  0.55276080932E+01 -0.31527736183E+02  0.14200226152E+02  0.35017124708E+02  0.00000000000E+00 0.  1.
         22    1    3    3    0    0 -0.24615644840E+02  0.77809686899E+02  0.22700021354E+03  0.24122473814E+03  0.00000000000E+00 0.  1.
</event>
<event>
 7    1  0.6443388E-006  0.3547240E+02  0.7818608E-02  0.1633304E+00
          2   -1    0    0  502    0  0.00000000000E+00  0.00000000000E+00  0.40968373786E+03  0.40968373786E+03  0.00000000000E+00 0. -1.
          1   -1    0    0  501    0 -0.00000000000E+00 -0.00000000000E+00 -0.84981507446E+02  0.84981507446E+02  0.00000000000E+00 0. -1.
         25    2    1    2    0    0  0.53177098481E+02  0.13066614835E+02  0.98982833591E+02  0.16858384329E+03  0.12499748256E+03 0.  0.
          2    1    1    2  501    0 -0.20604578636E+02 -0.61947713882E+00 -0.46905626268E+02  0.51235438793E+02  0.00000000000E+00 0. -1.
          1    1    1    2  502    0 -0.32572519845E+02 -0.12447137696E+02  0.27262502309E+03  0.27484596323E+03  0.00000000000E+00 0. -1.
         22    1    3    3    0    0  0.66787088176E+02  0.58355527240E+02  0.57677923764E+02  0.10579520592E+03  0.00000000000E+00 0. -1.
         22    1    3    3    0    0 -0.13609989695E+02 -0.45288912405E+02  0.41304909827E+02  0.62788637366E+02  0.00000000000E+00 0. -1.
</event>
<event>
 7    1  0.6443388E-006  0.6664707E+02  0.7818608E-02  0.1407741E+00
          2   -1    0    0  502    0  0.00000000000E+00  0.00000000000E+00  0.43197410268E+03  0.43197410268E+03  0.00000000000E+00 0. -1.
          1   -1    0    0  501    0 -0.00000000000E+00 -0.00000000000E+00 -0.85094294271E+02  0.85094294271E+02  0.00000000000E+00 0. -1.
         25    2    1    2    0    0 -0.65616202920E+01 -0.22891675089E+02  0.22069187921E+03  0.25474850105E+03  0.12499923836E+03 0.  0.
          2    1    1    2  501    0 -0.12081190268E+02  0.69238451040E+02 -0.45357008334E+02  0.83649127107E+02  0.00000000000E+00 0. -1.
          1    1    1    2  502    0  0.18642810560E+02 -0.46346775951E+02  0.17154493753E+03  0.17867076879E+03  0.00000000000E+00 0. -1.
         22    1    3    3    0    0  0.34764579536E+02 -0.99509260070E+01  0.71511871726E+01  0.36861041720E+02  0.00000000000E+00 0.  1.
         22    1    3    3    0    0 -0.41326199828E+02 -0.12940749082E+02  0.21354069203E+03  0.21788745933E+03  0.00000000000E+00 0.  1.
</event>
<event>
 7    1  0.6443388E-006  0.6436285E+02  0.7818608E-02  0.1444855E+00
          2   -1    0    0  502    0  0.00000000000E+00  0.00000000000E+00  0.18376431006E+04  0.18376431006E+04  0.00000000000E+00 0. -1.
          1   -1    0    0  501    0 -0.00000000000E+00 -0.00000000000E+00 -0.11650499180E+03  0.11650499180E+03  0.00000000000E+00 0. -1.
         25    2    1    2    0    0  0.77900975251E+02 -0.21095721936E+02  0.45914284657E+03  0.48265037791E+03  0.12500256921E+03 0.  0.
          2    1    1    2  501    0 -0.31555580634E+02 -0.22888916124E+02 -0.10034952615E+03  0.10765539721E+03  0.00000000000E+00 0. -1.
          1    1    1    2  502    0 -0.46345394616E+02  0.43984638060E+02  0.13623447884E+04  0.13638423173E+04  0.00000000000E+00 0. -1.
         22    1    3    3    0    0 -0.87903528551E+01 -0.54730686354E+02  0.18829333696E+03  0.19628321140E+03  0.00000000000E+00 0. -1.
         22    1    3    3    0    0  0.86691328106E+02  0.33634964418E+02  0.27084950961E+03  0.28636716651E+03  0.00000000000E+00 0. -1.
</event>
<event>
 7    1  0.6443388E-006  0.5056482E+02  0.7818608E-02  0.1445443E+00
          2   -1    0    0  502    0  0.00000000000E+00  0.00000000000E+00  0.13746172616E+04  0.13746172616E+04  0.00000000000E+00 0. -1.
          1   -1    0    0  501    0 -0.00000000000E+00 -0.00000000000E+00 -0.58014430745E+02  0.58014430745E+02  0.00000000000E+00 0. -1.
         25    2    1    2    0    0 -0.14043497799E+02 -0.49371349559E+01  0.82751675626E+03  0.83703679254E+03  0.12500006012E+03 0.  0.
          2    1    1    2  501    0 -0.32386441645E+02 -0.38831940249E+02 -0.38881590913E+02  0.63785416028E+02  0.00000000000E+00 0. -1.
          1    1    1    2  502    0  0.46429939444E+02  0.43769075205E+02  0.52796766547E+03  0.53180948374E+03  0.00000000000E+00 0. -1.
         22    1    3    3    0    0 -0.62650994552E+02  0.10729264696E+02  0.27906251441E+03  0.28620997744E+03  0.00000000000E+00 0. -1.
         22    1    3    3    0    0  0.48607496753E+02 -0.15666399652E+02  0.54845424186E+03  0.55082681510E+03  0.00000000000E+00 0. -1.
</event>
<event>
 7    1  0.6443388E-006  0.1006335E+03  0.7818608E-02  0.1352310E+00
          2   -1    0    0  502    0  0.00000000000E+00  0.00000000000E+00  0.17819973933E+03  0.17819973933E+03  0.00000000000E+00 0. -1.
          1   -1    0    0  501    0 -0.00000000000E+00 -0.00000000000E+00 -0.82483861455E+03  0.82483861455E+03  0.00000000000E+00 0. -1.
         25    2    1    2    0    0  0.13092659363E+03 -0.55100033709E+02 -0.12016365072E+03  0.22415342873E+03  0.12501067962E+03 0.  0.
          2    1    1    2  501    0 -0.78998828589E+02  0.57879137272E+02 -0.64345630814E+03  0.65086621508E+03  0.00000000000E+00 0. -1.
          1    1    1    2  502    0 -0.51927765045E+02 -0.27791035635E+01  0.11698108365E+03  0.12801871008E+03  0.00000000000E+00 0. -1.
         22    1    3    3    0    0  0.33571953126E+02  0.39680390084E+02 -0.45721666558E+02  0.69224852378E+02  0.00000000000E+00 0. -1.
         22    1    3    3    0    0  0.97354640508E+02 -0.94780423793E+02 -0.74441984165E+02  0.15492857635E+03  0.00000000000E+00 0. -1.
</event>
<event>
 7    1  0.6443388E-006  0.1263698E+03  0.7818608E-02  0.1373072E+00
          2   -1    0    0  502    0  0.00000000000E+00  0.00000000000E+00  0.34449412828E+04  0.34449412828E+04  0.00000000000E+00 0. -1.
          1   -1    0    0  501    0 -0.00000000000E+00 -0.00000000000E+00 -0.10303958788E+04  0.10303958788E+04  0.00000000000E+00 0. -1.
         25    2    1    2    0    0  0.11751626047E+03  0.25011256545E+01  0.18715841494E+04  0.18794330355E+04  0.12499991819E+03 0.  0.
          2    1    1    2  501    0 -0.12228574907E+03  0.31976507630E+02 -0.10223861728E+04  0.10301697859E+04  0.00000000000E+00 0. -1.
          1    1    1    2  502    0  0.47694885955E+01 -0.34477633285E+02  0.15653474274E+04  0.15657343401E+04  0.00000000000E+00 0. -1.
         22    1    3    3    0    0  0.71290205267E+02  0.52521206531E+02  0.65693367798E+03  0.66287451887E+03  0.00000000000E+00 0. -1.
         22    1    3    3    0    0  0.46226055206E+02 -0.50020080877E+02  0.12146504714E+04  0.12165585166E+04  0.00000000000E+00 0. -1.
</event>
<event>
 7    1  0.6443388E-006  0.1068212E+03  0.7818608E-02  0.1366044E+00
          2   -1    0    0  502    0  0.00000000000E+00  0.00000000000E+00  0.19657507104E+04  0.19657507104E+04  0.00000000000E+00 0. -1.
          1   -1    0    0  501    0 -0.00000000000E+00 -0.00000000000E+00 -0.14273365657E+04  0.14273365657E+04  0.00000000000E+00 0. -1.
         25    2    1    2    0    0  0.56626052114E+02  0.42704471424E+02  0.25256172751E+02  0.14592084773E+03  0.12499935153E+03 0.  0.
          2    1    1    2  501    0  0.92118746693E+01  0.42660511242E+02 -0.13651098777E+04  0.13658073642E+04  0.00000000000E+00 0. -1.
          1    1    1    2  502    0 -0.65837926784E+02 -0.85364982666E+02  0.18782678497E+04  0.18813590642E+04  0.00000000000E+00 0. -1.
         22    1    3    3    0    0 -0.65847152670E+00  0.76359360960E+02  0.52846513947E+01  0.76544843924E+02  0.00000000000E+00 0. -1.
         22    1    3    3    0    0  0.57284523641E+02 -0.33654889536E+02  0.19971521356E+02  0.69376003803E+02  0.00000000000E+00 0. -1.
</event>
<event>
 7    1  0.6443388E-006  0.5810477E+02  0.7818608E-02  0.1412939E+00
          2   -1    0    0  502    0  0.00000000000E+00  0.00000000000E+00  0.67349667391E+03  0.67349667391E+03  0.00000000000E+00 0. -1.
          1   -1    0    0  501    0 -0.00000000000E+00 -0.00000000000E+00 -0.98957620055E+02  0.98957620055E+02  0.00000000000E+00 0. -1.
         25    2    1    2    0    0  0.99197393445E+01 -0.55442062501E+02  0.22820120499E+03  0.26622061982E+03  0.12500161974E+03 0.  0.
          2    1    1    2  501    0  0.43102331227E+02  0.40736724710E+02 -0.66868749369E+02  0.89379647233E+02  0.00000000000E+00 0. -1.
          1    1    1    2  502    0 -0.53022070571E+02  0.14705337791E+02  0.41320659823E+03  0.41685402691E+03  0.00000000000E+00 0. -1.
         22    1    3    3    0    0  0.22101582550E+02 -0.93825107796E+02  0.17039603064E+03  0.19577139235E+03  0.00000000000E+00 0. -1.
         22    1    3    3    0    0 -0.12181843205E+02  0.38383045295E+02  0.57805174353E+02  0.70449227476E+02  0.00000000000E+00 0. -1.
</event>
<event>
 7    1  0.6443388E-006  0.1458306E+03  0.7818608E-02  0.1208598E+00
          2   -1    0    0  502    0  0.00000000000E+00  0.00000000000E+00  0.65082202834E+03  0.65082202834E+03  0.00000000000E+00 0. -1.
          1   -1    0    0  501    0 -0.00000000000E+00 -0.00000000000E+00 -0.25577325015E+04  0.25577325015E+04  0.00000000000E+00 0. -1.
         25    2    1    2    0    0  0.57309672621E+02  0.92719933185E+02 -0.38628500318E+03  0.42038534500E+03  0.12500539999E+03 0.  0.
          2    1    1    2  501    0 -0.16101410270E+03  0.33345526617E+01 -0.21434569314E+04  0.21494986106E+04  0.00000000000E+00 0. -1.
          1    1    1    2  502    0  0.10370443007E+03 -0.96054485847E+02  0.62283146139E+03  0.63867057421E+03  0.00000000000E+00 0. -1.
         22    1    3    3    0    0 -0.65097905779E+01 -0.33887823767E+01  0.72332046880E+01  0.10304390784E+02  0.00000000000E+00 0.  1.
         22    1    3    3    0    0  0.63819463199E+02  0.96108715562E+02 -0.39351820786E+03  0.41008095421E+03  0.00000000000E+00 0.  1.
</event>
<event>
 7    1  0.6443388E-006  0.6299147E+02  0.7818608E-02  0.1421824E+00
          2   -1    0    0  502    0  0.00000000000E+00  0.00000000000E+00  0.20717072861E+04  0.20717072861E+04  0.00000000000E+00 0. -1.
          1   -1    0    0  501    0 -0.00000000000E+00 -0.00000000000E+00 -0.15585287388E+02  0.15585287388E+02  0.00000000000E+00 0. -1.
         25    2    1    2    0    0  0.17673516509E+01  0.28420212973E+02  0.15770106216E+04  0.15822128509E+04  0.12499669193E+03 0.  0.
          2    1    1    2  501    0 -0.45289429644E+02 -0.47173526653E+02  0.80747271330E+02  0.10390666909E+03  0.00000000000E+00 0. -1.
          1    1    1    2  502    0  0.43522077993E+02  0.18753313679E+02  0.39836410582E+03  0.40117305350E+03  0.00000000000E+00 0. -1.
         22    1    3    3    0    0  0.53417134975E+02 -0.20333250537E+02  0.71621923275E+03  0.71849622180E+03  0.00000000000E+00 0.  1.
         22    1    3    3    0    0 -0.51649783324E+02  0.48753463510E+02  0.86079138883E+03  0.86371662911E+03  0.00000000000E+00 0.  1.
</event>
<event>
 7    1  0.6443388E-006  0.8465779E+02  0.7818608E-02  0.1401851E+00
          2   -1    0    0  502    0  0.00000000000E+00  0.00000000000E+00  0.31015843587E+03  0.31015843587E+03  0.00000000000E+00 0. -1.
          1   -1    0    0  501    0 -0.00000000000E+00 -0.00000000000E+00 -0.14649745837E+04  0.14649745837E+04  0.00000000000E+00 0. -1.
         25    2    1    2    0    0  0.10144454032E+03 -0.55858532142E+02 -0.73361143902E+03  0.75314072001E+03  0.12499612116E+03 0.  0.
          2    1    1    2  501    0 -0.19274027019E+02  0.36404301452E+02 -0.71505977874E+03  0.71624524323E+03  0.00000000000E+00 0. -1.
          1    1    1    2  502    0 -0.82170513301E+02  0.19454230690E+02  0.29385506991E+03  0.30574705634E+03  0.00000000000E+00 0. -1.
         22    1    3    3    0    0  0.70909811172E+02 -0.36084603205E+02 -0.69700892564E+03  0.70153527519E+03  0.00000000000E+00 0.  1.
         22    1    3    3    0    0  0.30534729147E+02 -0.19773928937E+02 -0.36602513374E+02  0.51605444819E+02  0.00000000000E+00 0.  1.
</event>
<event>
 7    1  0.6443388E-006  0.4015723E+03  0.7818608E-02  0.1219725E+00
          2   -1    0    0  502    0  0.00000000000E+00  0.00000000000E+00  0.93114724505E+03  0.93114724505E+03  0.00000000000E+00 0. -1.
          1   -1    0    0  501    0 -0.00000000000E+00 -0.00000000000E+00 -0.43689008359E+04  0.43689008359E+04  0.00000000000E+00 0. -1.
         25    2    1    2    0    0 -0.10983131191E+03 -0.43249225370E+03 -0.21417214870E+04  0.21912796735E+04  0.12499285279E+03 0.  0.
          2    1    1    2  501    0  0.90695686838E+01  0.44709780547E+02 -0.21578695197E+04  0.21583517058E+04  0.00000000000E+00 0. -1.
          1    1    1    2  502    0  0.10076174323E+03  0.38778247315E+03  0.86183741587E+03  0.95041670165E+03  0.00000000000E+00 0. -1.
         22    1    3    3    0    0  0.77758854418E-01 -0.23171514532E+03 -0.11973672352E+04  0.12195819819E+04  0.00000000000E+00 0.  1.
         22    1    3    3    0    0 -0.10990907077E+03 -0.20077710838E+03 -0.94435425174E+03  0.97169769161E+03  0.00000000000E+00 0.  1.
</event>
<event>
 7    1  0.6443388E-006  0.4717331E+02  0.7818608E-02  0.1516861E+00
          2   -1    0    0  502    0  0.00000000000E+00  0.00000000000E+00  0.57828984372E+03  0.57828984372E+03  0.00000000000E+00 0. -1.
          1   -1    0    0  501    0 -0.00000000000E+00 -0.00000000000E+00 -0.36782956767E+02  0.36782956767E+02  0.00000000000E+00 0. -1.
         25    2    1    2    0    0  0.75939087854E+01 -0.56236039387E+02  0.17076060948E+03  0.21909911225E+03  0.12500030265E+03 0.  0.
          2    1    1    2  501    0 -0.28725237472E+02  0.14085125824E+02  0.12042321399E+02  0.34184024660E+02  0.00000000000E+00 0. -1.
          1    1    1    2  502    0  0.21131328686E+02  0.42150913564E+02  0.35870395607E+03  0.36178966358E+03  0.00000000000E+00 0. -1.
         22    1    3    3    0    0  0.16667841140E+02 -0.72965580188E+02  0.18214453233E+03  0.19692237932E+03  0.00000000000E+00 0. -1.
         22    1    3    3    0    0 -0.90739323544E+01  0.16729540801E+02 -0.11383922852E+02  0.22176732927E+02  0.00000000000E+00 0. -1.
</event>
<event>
 7    1  0.6982594E-006  0.7801373E+02  0.7818608E-02  0.1339705E+00
          2   -1    0    0  502    0  0.00000000000E+00  0.00000000000E+00  0.15045859201E+04  0.15045859201E+04  0.00000000000E+00 0. -1.
          1   -1    0    0  501    0 -0.00000000000E+00 -0.00000000000E+00 -0.53412862871E+03  0.53412862871E+03  0.00000000000E+00 0. -1.
         25    2    1    2    0    0  0.87339889186E+02  0.30759773547E+02 -0.16257689394E+03  0.22501202530E+03  0.12499898070E+03 0.  0.
          2    1    1    2  501    0 -0.27427835511E+02 -0.75451533725E+02 -0.33463539309E+03  0.34413088558E+03  0.00000000000E+00 0. -1.
          1    1    1    2  502    0 -0.59912053675E+02  0.44691760177E+02  0.14676695784E+04  0.14695716379E+04  0.00000000000E+00 0. -1.
         22    1    3    3    0    0  0.58061589042E+02  0.52103295189E+02 -0.23768280148E+02  0.81552637191E+02  0.00000000000E+00 0.  1.
         22    1    3    3    0    0  0.29278300144E+02 -0.21343521641E+02 -0.13880861379E+03  0.14345938811E+03  0.00000000000E+00 0.  1.
</event>
<event>
 7    1  0.6443388E-006  0.9652301E+02  0.7818608E-02  0.1478004E+00
          2   -1    0    0  502    0  0.00000000000E+00  0.00000000000E+00  0.17305901866E+03  0.17305901866E+03  0.00000000000E+00 0. -1.
          1   -1    0    0  501    0 -0.00000000000E+00 -0.00000000000E+00 -0.16307698529E+04  0.16307698529E+04  0.00000000000E+00 0. -1.
         25    2    1    2    0    0  0.89327967066E+02  0.21323318305E+02 -0.37508740361E+02  0.15958171816E+03  0.12500099825E+03 0.  0.
          2    1    1    2  501    0  0.85257041099E+01 -0.18578036556E+02 -0.15107562269E+04  0.15108945060E+04  0.00000000000E+00 0. -1.
          1    1    1    2  502    0 -0.97853671176E+02 -0.27452817491E+01  0.90554133093E+02  0.13335264735E+03  0.00000000000E+00 0. -1.
         22    1    3    3    0    0 -0.20149974111E+02 -0.22183670247E+02  0.11349219582E+02  0.32045927470E+02  0.00000000000E+00 0.  1.
         22    1    3    3    0    0  0.10947794118E+03  0.43506988552E+02 -0.48857959943E+02  0.12753579069E+03  0.00000000000E+00 0.  1.
</event>
<event>
 7    1  0.6443388E-006  0.7300440E+02  0.7818608E-02  0.1409700E+00
          2   -1    0    0  502    0  0.00000000000E+00  0.00000000000E+00  0.18412888795E+04  0.18412888795E+04  0.00000000000E+00 0. -1.
          1   -1    0    0  501    0 -0.00000000000E+00 -0.00000000000E+00 -0.18207469196E+03  0.18207469196E+03  0.00000000000E+00 0. -1.
         25    2    1    2    0    0 -0.42432153927E+02 -0.14945790468E+02  0.17203850933E+03  0.21736195108E+03  0.12500041899E+03 0.  0.
          2    1    1    2  501    0 -0.16709255150E+01 -0.44881280049E+02 -0.15539246677E+03  0.16175271256E+03  0.00000000000E+00 0. -1.
          1    1    1    2  502    0  0.44103079442E+02  0.59827070517E+02  0.16425681450E+04  0.16442489078E+04  0.00000000000E+00 0. -1.
         22    1    3    3    0    0 -0.15792957832E+02  0.49454880433E+02  0.32122865419E+02  0.61049825540E+02  0.00000000000E+00 0.  1.
         22    1    3    3    0    0 -0.26639196094E+02 -0.64400670901E+02  0.13991564391E+03  0.15631212554E+03  0.00000000000E+00 0.  1.
</event>
<event>
 7    1  0.6443388E-006  0.9420482E+02  0.7818608E-02  0.1372458E+00
          2   -1    0    0  502    0  0.00000000000E+00  0.00000000000E+00  0.32872074970E+03  0.32872074970E+03  0.00000000000E+00 0. -1.
          1   -1    0    0  501    0 -0.00000000000E+00 -0.00000000000E+00 -0.19589981016E+03  0.19589981016E+03  0.00000000000E+00 0. -1.
         25    2    1    2    0    0  0.38460803755E+02 -0.62683395574E+02  0.10602727579E+03  0.17965186428E+03  0.12499827047E+03 0.  0.
          2    1    1    2  501    0 -0.23302522414E+02 -0.40732345039E+02 -0.14026532634E+03  0.14790704262E+03  0.00000000000E+00 0. -1.
          1    1    1    2  502    0 -0.15158281341E+02  0.10341574061E+03  0.16705899009E+03  0.19706165297E+03  0.00000000000E+00 0. -1.
         22    1    3    3    0    0 -0.71900579789E+01  0.48103902184E+01 -0.24386545014E+02  0.25875478073E+02  0.00000000000E+00 0. -1.
         22    1    3    3    0    0  0.45650861733E+02 -0.67493785792E+02  0.13041382080E+03  0.15377638621E+03  0.00000000000E+00 0. -1.
</event>
<event>
 7    1  0.9128041E-006  0.6435327E+02  0.7818608E-02  0.1408142E+00
          2   -1    0    0  502    0  0.00000000000E+00  0.00000000000E+00  0.79279891351E+03  0.79279891351E+03  0.00000000000E+00 0. -1.
          1   -1    0    0  501    0 -0.00000000000E+00 -0.00000000000E+00 -0.12703322717E+04  0.12703322717E+04  0.00000000000E+00 0. -1.
         25    2    1    2    0    0  0.33036295400E+02 -0.21818354591E+02 -0.66950509073E+03  0.68222351853E+03  0.12499770118E+03 0.  0.
          2    1    1    2  501    0 -0.29215959086E+02 -0.42500946750E+02 -0.59202524941E+03  0.59426744709E+03  0.00000000000E+00 0. -1.
          1    1    1    2  502    0 -0.38203363139E+01  0.64319301342E+02  0.78399698191E+03  0.78664021963E+03  0.00000000000E+00 0. -1.
         22    1    3    3    0    0 -0.16528094691E+02 -0.61196910718E+02 -0.24709604126E+03  0.25509741944E+03  0.00000000000E+00 0. -1.
         22    1    3    3    0    0  0.49564390091E+02  0.39378556127E+02 -0.42240904947E+03  0.42712609909E+03  0.00000000000E+00 0. -1.
</event>
<event>
 7    1  0.6443388E-006  0.9012041E+02  0.7818608E-02  0.1382472E+00
          2   -1    0    0  502    0  0.00000000000E+00  0.00000000000E+00  0.11469889167E+04  0.11469889167E+04  0.00000000000E+00 0. -1.
          1   -1    0    0  501    0 -0.00000000000E+00 -0.00000000000E+00 -0.48321826562E+03  0.48321826562E+03  0.00000000000E+00 0. -1.
         25    2    1    2    0    0 -0.48502566558E+02 -0.12419474547E+02 -0.10333677509E+02  0.13505123079E+03  0.12500123094E+03 0.  0.
          2    1    1    2  501    0 -0.42694198110E+02  0.14818279967E+02 -0.40735569220E+03  0.40985489620E+03  0.00000000000E+00 0. -1.
          1    1    1    2  502    0  0.91196764668E+02 -0.23988054194E+01  0.10814600207E+04  0.10853010553E+04  0.00000000000E+00 0. -1.
         22    1    3    3    0    0  0.59931581647E+01  0.24487484811E+02 -0.51556577057E+02  0.57390203825E+02  0.00000000000E+00 0. -1.
         22    1    3    3    0    0 -0.54495724723E+02 -0.36906959359E+02  0.41222899549E+02  0.77661026966E+02  0.00000000000E+00 0. -1.
</event>
<event>
 7    1  0.6443388E-006  0.8489446E+02  0.7818608E-02  0.1423366E+00
          2   -1    0    0  502    0  0.00000000000E+00  0.00000000000E+00  0.21441963734E+03  0.21441963734E+03  0.00000000000E+00 0. -1.
          1   -1    0    0  501    0 -0.00000000000E+00 -0.00000000000E+00 -0.15154415460E+03  0.15154415460E+03  0.00000000000E+00 0. -1.
         25    2    1    2    0    0 -0.49856357787E+02  0.32654237700E+02  0.40604226860E+01  0.13853743127E+03  0.12499670867E+03 0.  0.
          2    1    1    2  501    0 -0.13980965479E+02  0.31813969204E+02 -0.65131795560E+02  0.73822400565E+02  0.00000000000E+00 0. -1.
          1    1    1    2  502    0  0.63837323266E+02 -0.64468206905E+02  0.12394685561E+03  0.15360396010E+03  0.00000000000E+00 0. -1.
         22    1    3    3    0    0 -0.24867313861E+02  0.58101051287E+02 -0.45216043351E+02  0.77708468236E+02  0.00000000000E+00 0. -1.
         22    1    3    3    0    0 -0.24989043926E+02 -0.25446813587E+02  0.49276466037E+02  0.60828963029E+02  0.00000000000E+00 0. -1.
</event>
<event>
 7    1  0.6443388E-006  0.2240452E+03  0.7818608E-02  0.1314321E+00
          2   -1    0    0  502    0  0.00000000000E+00  0.00000000000E+00  0.15364638470E+04  0.15364638470E+04  0.00000000000E+00 0. -1.
          1   -1    0    0  501    0 -0.00000000000E+00 -0.00000000000E+00 -0.54015686542E+03  0.54015686542E+03  0.00000000000E+00 0. -1.
         25    2    1    2    0    0  0.22365380675E+03 -0.40036675278E+02 -0.26157753698E+03  0.36833725839E+03  0.12500226966E+03 0.  0.
          2    1    1    2  501    0 -0.21067029554E+03  0.69909488872E+02 -0.17027344318E+03  0.27975409829E+03  0.00000000000E+00 0. -1.
          1    1    1    2  502    0 -0.12983511210E+02 -0.29872813593E+02  0.14281579617E+04  0.14285293557E+04  0.00000000000E+00 0. -1.
         22    1    3    3    0    0  0.17335098480E+03  0.18949203274E+01 -0.24612543902E+03  0.30105130192E+03  0.00000000000E+00 0. -1.
         22    1    3    3    0    0  0.50302821949E+02 -0.41931595606E+02 -0.15452097961E+02  0.67285956465E+02  0.00000000000E+00 0. -1.
</event>
<event>
 7    1  0.6443388E-006  0.9520671E+02  0.7818608E-02  0.1352775E+00
          2   -1    0    0  502    0  0.00000000000E+00  0.00000000000E+00  0.10574724908E+03  0.10574724908E+03  0.00000000000E+00 0. -1.
          1   -1    0    0  501    0 -0.00000000000E+00 -0.00000000000E+00 -0.15754947780E+04  0.15754947780E+04  0.00000000000E+00 0. -1.
         25    2    1    2    0    0  0.56824170700E+02 -0.12839453022E+02 -0.21887368114E+03  0.25869757160E+03  0.12499962929E+03 0.  0.
          2    1    1    2  501    0  0.40852208152E+02  0.36449985623E+02 -0.13065267137E+04  0.13076733377E+04  0.00000000000E+00 0. -1.
          1    1    1    2  502    0 -0.97676378852E+02 -0.23610532600E+02  0.55652865901E+02  0.11487111786E+03  0.00000000000E+00 0. -1.
         22    1    3    3    0    0 -0.26475431591E+02  0.22555914995E+01 -0.14161739545E+03  0.14408859381E+03  0.00000000000E+00 0.  1.
         22    1    3    3    0    0  0.83299602292E+02 -0.15095044522E+02 -0.77256285690E+02  0.11460897779E+03  0.00000000000E+00 0.  1.
</event>
<event>
 7    1  0.6443388E-006  0.1714695E+03  0.7818608E-02  0.1324083E+00
          2   -1    0    0  502    0  0.00000000000E+00  0.00000000000E+00  0.84156047205E+03  0.84156047205E+03  0.00000000000E+00 0. -1.
          1   -1    0    0  501    0 -0.00000000000E+00 -0.00000000000E+00 -0.16894393344E+03  0.16894393344E+03  0.00000000000E+00 0. -1.
         25    2    1    2    0    0  0.20059470966E+03 -0.41051808429E+02  0.47090149944E+01  0.23993787888E+03  0.12499808950E+03 0.  0.
          2    1    1    2  501    0 -0.38560323821E+02 -0.58459496271E+01 -0.32105675001E+02  0.50515819972E+02  0.00000000000E+00 0. -1.
          1    1    1    2  502    0 -0.16203438584E+03  0.46897758056E+02  0.70001319861E+03  0.72005070664E+03  0.00000000000E+00 0. -1.
         22    1    3    3    0    0  0.30654690212E-01  0.18523839844E+02 -0.22284933638E+02  0.28978472174E+02  0.00000000000E+00 0.  1.
         22    1    3    3    0    0  0.20056405497E+03 -0.59575648273E+02  0.26993948633E+02  0.21095940670E+03  0.00000000000E+00 0.  1.
</event>
<event>
 7    1  0.6443388E-006  0.1117818E+03  0.7818608E-02  0.1321982E+00
          2   -1    0    0  502    0  0.00000000000E+00  0.00000000000E+00  0.67473270369E+03  0.67473270369E+03  0.00000000000E+00 0. -1.
          1   -1    0    0  501    0 -0.00000000000E+00 -0.00000000000E+00 -0.36702558734E+04  0.36702558734E+04  0.00000000000E+00 0. -1.
         25    2    1    2    0    0 -0.15900147112E+03 -0.32771234045E+02  0.58910369022E+02  0.21319135064E+03  0.12499879524E+03 0.  0.
          2    1    1    2  501    0  0.10021134801E+03  0.48869058982E+02 -0.35905229990E+04  0.35922535970E+04  0.00000000000E+00 0. -1.
          1    1    1    2  502    0  0.58790123113E+02 -0.16097824938E+02  0.53608946030E+03  0.53954362936E+03  0.00000000000E+00 0. -1.
         22    1    3    3    0    0 -0.13587393668E+02 -0.32173530800E+01  0.63218219306E+02  0.64741886593E+02  0.00000000000E+00 0. -1.
         22    1    3    3    0    0 -0.14541407746E+03 -0.29553880965E+02 -0.43078502839E+01  0.14844946405E+03  0.00000000000E+00 0. -1.
</event>
<event>
 7    1  0.6443388E-006  0.3229610E+02  0.7818608E-02  0.1643714E+00
          2   -1    0    0  502    0  0.00000000000E+00  0.00000000000E+00  0.76825157596E+03  0.76825157596E+03  0.00000000000E+00 0. -1.
          1   -1    0    0  501    0 -0.00000000000E+00 -0.00000000000E+00 -0.39652119234E+03  0.39652119234E+03  0.00000000000E+00 0. -1.
         25    2    1    2    0    0 -0.18738480126E+02 -0.35427454885E+02 -0.96016037950E+02  0.16262999226E+03  0.12499279837E+03 0.  0.
          2    1    1    2  501    0 -0.92041142144E+01  0.19242604931E+02 -0.26641699772E+03  0.26726954604E+03  0.00000000000E+00 0. -1.
          1    1    1    2  502    0  0.27942594341E+02  0.16184849954E+02  0.73416341929E+03  0.73487323000E+03  0.00000000000E+00 0. -1.
         22    1    3    3    0    0 -0.14104193667E+02 -0.18253049882E+02 -0.12582214738E+03  0.12791917323E+03  0.00000000000E+00 0. -1.
         22    1    3    3    0    0 -0.46342864593E+01 -0.17174405002E+02  0.29806109433E+02  0.34710819029E+02  0.00000000000E+00 0. -1.
</event>
<event>
 7    1  0.6443388E-006  0.3221411E+03  0.7818608E-02  0.1273614E+00
          2   -1    0    0  502    0  0.00000000000E+00  0.00000000000E+00  0.10359977806E+04  0.10359977806E+04  0.00000000000E+00 0. -1.
          1   -1    0    0  501    0 -0.00000000000E+00 -0.00000000000E+00 -0.15090166185E+04  0.15090166185E+04  0.00000000000E+00 0. -1.
         25    2    1    2    0    0  0.11387485265E+03 -0.29486852750E+03  0.13548380868E+03  0.36591792079E+03  0.12500052705E+03 0.  0.
          2    1    1    2  501    0  0.32615176816E+02  0.55870776648E+01 -0.13601173509E+04  0.13605198174E+04  0.00000000000E+00 0. -1.
          1    1    1    2  502    0 -0.14649002947E+03  0.28928144984E+03  0.75161470436E+03  0.81857666090E+03  0.00000000000E+00 0. -1.
         22    1    3    3    0    0 -0.25107847135E+02 -0.67118603789E+02  0.15225644087E+02  0.73260707068E+02  0.00000000000E+00 0. -1.
         22    1    3    3    0    0  0.13898269979E+03 -0.22774992371E+03  0.12025816459E+03  0.29265721372E+03  0.00000000000E+00 0. -1.
</event>
<event>
 7    1  0.6443388E-006  0.1507886E+03  0.7818608E-02  0.1246556E+00
          2   -1    0    0  502    0  0.00000000000E+00  0.00000000000E+00  0.73771324442E+03  0.73771324442E+03  0.00000000000E+00 0. -1.
          1   -1    0    0  501    0 -0.00000000000E+00 -0.00000000000E+00 -0.64473073024E+03  0.64473073024E+03  0.00000000000E+00 0. -1.
         25    2    1    2    0    0 -0.16566788037E+03  0.16815757254E+02  0.35165243320E+03  0.40867279005E+03  0.12500159707E+03 0.  0.
          2    1    1    2  501    0  0.11721260307E+03 -0.95288153648E+02 -0.60076340378E+03  0.61946371473E+03  0.00000000000E+00 0. -1.
          1    1    1    2  502    0  0.48455277302E+02  0.78472396394E+02  0.34209348476E+03  0.35430746988E+03  0.00000000000E+00 0. -1.
         22    1    3    3    0    0 -0.15545716265E+02  0.50791293273E+02  0.11019873235E+03  0.12233227448E+03  0.00000000000E+00 0.  1.
         22    1    3    3    0    0 -0.15012216411E+03 -0.33975536019E+02  0.24145370085E+03  0.28634051557E+03  0.00000000000E+00 0.  1.
</event>
<event>
 7    1  0.6443388E-006  0.4027130E+02  0.7818608E-02  0.1527884E+00
          2   -1    0    0  502    0  0.00000000000E+00  0.00000000000E+00  0.64769897694E+03  0.64769897694E+03  0.00000000000E+00 0. -1.
          1   -1    0    0  501    0 -0.00000000000E+00 -0.00000000000E+00 -0.34740600819E+03  0.34740600819E+03  0.00000000000E+00 0. -1.
         25    2    1    2    0    0  0.16255773138E+02 -0.31785674729E+02 -0.13503126379E+02  0.13069649558E+03  0.12499864102E+03 0.  0.
          2    1    1    2  501    0 -0.40231092657E+02  0.65329681346E+01 -0.27327896032E+03  0.27630166602E+03  0.00000000000E+00 0. -1.
          1    1    1    2  502    0  0.23975319519E+02  0.25252706594E+02  0.58707505546E+03  0.58810682352E+03  0.00000000000E+00 0. -1.
         22    1    3    3    0    0  0.42867485024E+02  0.33176890192E+02 -0.24767365628E+02  0.59596557914E+02  0.00000000000E+00 0. -1.
         22    1    3    3    0    0 -0.26611711886E+02 -0.64962564921E+02  0.11264239248E+02  0.71099937668E+02  0.00000000000E+00 0. -1.
</event>
<event>
 7    1  0.6443388E-006  0.6377379E+02  0.7818608E-02  0.1399195E+00
          2   -1    0    0  502    0  0.00000000000E+00  0.00000000000E+00  0.31276352829E+02  0.31276352829E+02  0.00000000000E+00 0. -1.
          1   -1    0    0  501    0 -0.00000000000E+00 -0.00000000000E+00 -0.21188885052E+04  0.21188885052E+04  0.00000000000E+00 0. -1.
         25    2    1    2    0    0  0.12586306618E+02  0.40255264381E+01 -0.40968411157E+03  0.42853304985E+03  0.12499953424E+03 0.  0.
          2    1    1    2  501    0 -0.67003506297E+02  0.85091517315E+01 -0.16622621756E+04  0.16636337987E+04  0.00000000000E+00 0. -1.
          1    1    1    2  502    0  0.54417199679E+02 -0.12534678170E+02 -0.15665865182E+02  0.57998009531E+02  0.00000000000E+00 0. -1.
         22    1    3    3    0    0 -0.68762393838E+01 -0.40027217160E+02 -0.44738835654E+02  0.60423705590E+02  0.00000000000E+00 0. -1.
         22    1    3    3    0    0  0.19462546002E+02  0.44052743598E+02 -0.36494527592E+03  0.36810934426E+03  0.00000000000E+00 0. -1.
</event>
<event>
 7    1  0.6443388E-006  0.1123665E+03  0.7818608E-02  0.1457242E+00
          2   -1    0    0  502    0  0.00000000000E+00  0.00000000000E+00  0.40175853403E+03  0.40175853403E+03  0.00000000000E+00 0. -1.
          1   -1    0    0  501    0 -0.00000000000E+00 -0.00000000000E+00 -0.61091094474E+03  0.61091094474E+03  0.00000000000E+00 0. -1.
         25    2    1    2    0    0 -0.10147684364E+03 -0.87020249764E-01 -0.93243877846E+02  0.18605651307E+03  0.12500019174E+03 0.  0.
          2    1    1    2  501    0 -0.10275963475E+02 -0.17604689383E+02 -0.46202398575E+03  0.46247344131E+03  0.00000000000E+00 0. -1.
          1    1    1    2  502    0  0.11175280711E+03  0.17691709633E+02  0.34611545289E+03  0.36413952438E+03  0.00000000000E+00 0. -1.
         22    1    3    3    0    0 -0.44555100906E+02 -0.37819104880E+02  0.12892973750E+02  0.59847059099E+02  0.00000000000E+00 0. -1.
         22    1    3    3    0    0 -0.56921742732E+02  0.37732084630E+02 -0.10613685160E+03  0.12620945398E+03  0.00000000000E+00 0. -1.
</event>
<event>
 7    1  0.6443388E-006  0.6433555E+02  0.7818608E-02  0.1494221E+00
          2   -1    0    0  502    0  0.00000000000E+00  0.00000000000E+00  0.20352217158E+03  0.20352217158E+03  0.00000000000E+00 0. -1.
          1   -1    0    0  501    0 -0.00000000000E+00 -0.00000000000E+00 -0.46237738660E+03  0.46237738660E+03  0.00000000000E+00 0. -1.
         25    2    1    2    0    0  0.16628586811E+02  0.83922591252E+02 -0.21444763522E+03  0.26254800994E+03  0.12499663214E+03 0.  0.
          2    1    1    2  501    0 -0.19782706431E+01 -0.60798176169E+02 -0.21865911655E+03  0.22696286267E+03  0.00000000000E+00 0. -1.
          1    1    1    2  502    0 -0.14650316168E+02 -0.23124415083E+02  0.17425153676E+03  0.17638868557E+03  0.00000000000E+00 0. -1.
         22    1    3    3    0    0  0.56249098540E+02  0.17062857167E+02 -0.15160733701E+03  0.16260346495E+03  0.00000000000E+00 0.  1.
         22    1    3    3    0    0 -0.39620511729E+02  0.66859734085E+02 -0.62840298216E+02  0.99944544981E+02  0.00000000000E+00 0.  1.
</event>
<event>
 7    1  0.6443388E-006  0.8484811E+02  0.7818608E-02  0.1374369E+00
          2   -1    0    0  502    0  0.00000000000E+00  0.00000000000E+00  0.79893649385E+03  0.79893649385E+03  0.00000000000E+00 0. -1.
          1   -1    0    0  501    0 -0.00000000000E+00 -0.00000000000E+00 -0.67001166604E+02  0.67001166604E+02  0.00000000000E+00 0. -1.
         25    2    1    2    0    0 -0.71042840668E+02 -0.44647137639E+01  0.12092257840E+03  0.18792317961E+03  0.12500333032E+03 0.  0.
          2    1    1    2  501    0  0.76804092187E+02  0.55428014930E+02  0.36954838532E+02  0.10167002266E+03  0.00000000000E+00 0. -1.
          1    1    1    2  502    0 -0.57612515195E+01 -0.50963301166E+02  0.57405791032E+03  0.57634445819E+03  0.00000000000E+00 0. -1.
         22    1    3    3    0    0 -0.85048776140E+02 -0.22155149503E+02  0.13517580895E+03  0.16123474904E+03  0.00000000000E+00 0.  1.
         22    1    3    3    0    0  0.14005935472E+02  0.17690435739E+02 -0.14253230555E+02  0.26688430571E+02  0.00000000000E+00 0.  1.
</event>
<event>
 7    1  0.6443388E-006  0.1020187E+03  0.7818608E-02  0.1283148E+00
          2   -1    0    0  502    0  0.00000000000E+00  0.00000000000E+00  0.23094491243E+04  0.23094491243E+04  0.00000000000E+00 0. -1.
          1   -1    0    0  501    0 -0.00000000000E+00 -0.00000000000E+00 -0.49117217684E+02  0.49117217684E+02  0.00000000000E+00 0. -1.
         25    2    1    2    0    0 -0.68308128262E+02  0.29194382633E+02  0.30136324346E+03  0.33460750310E+03  0.12499625698E+03 0.  0.
          2    1    1    2  501    0  0.55254236476E+02  0.77774335977E+02  0.42464729998E+02  0.10442763657E+03  0.00000000000E+00 0. -1.
          1    1    1    2  502    0  0.13053891785E+02 -0.10696871861E+03  0.19165039332E+04  0.19195312023E+04  0.00000000000E+00 0. -1.
         22    1    3    3    0    0 -0.17454850933E+02 -0.47171308793E+02  0.74450553382E+02  0.89848144629E+02  0.00000000000E+00 0.  1.
         22    1    3    3    0    0 -0.50853277328E+02  0.76365691426E+02  0.22691269008E+03  0.24475935847E+03  0.00000000000E+00 0.  1.
</event>
<event>
 7    1  0.6443388E-006  0.1318236E+03  0.7818608E-02  0.1314274E+00
          2   -1    0    0  502    0  0.00000000000E+00  0.00000000000E+00  0.46685433606E+03  0.46685433606E+03  0.00000000000E+00 0. -1.
          1   -1    0    0  501    0 -0.00000000000E+00 -0.00000000000E+00 -0.58220326561E+03  0.58220326561E+03  0.00000000000E+00 0. -1.
         25    2    1    2    0    0 -0.16714244625E+03  0.58228621241E+02 -0.19802082781E+03  0.29353761980E+03  0.12499966529E+03 0.  0.
          2    1    1    2  501    0  0.54874138630E+02  0.74887060464E+01 -0.32392197920E+03  0.32862242836E+03  0.00000000000E+00 0. -1.
          1    1    1    2  502    0  0.11226830762E+03 -0.65717327287E+02  0.40659387746E+03  0.42689755351E+03  0.00000000000E+00 0. -1.
         22    1    3    3    0    0 -0.14366177569E+03  0.18330200654E+02 -0.77127671201E+02  0.16408345351E+03  0.00000000000E+00 0. -1.
         22    1    3    3    0    0 -0.23480670557E+02  0.39898420587E+02 -0.12089315661E+03  0.12945416629E+03  0.00000000000E+00 0. -1.
</event>
<event>
 7    1  0.6443388E-006  0.4091705E+02  0.7818608E-02  0.1520155E+00
          2   -1    0    0  502    0  0.00000000000E+00  0.00000000000E+00  0.11918402062E+04  0.11918402062E+04  0.00000000000E+00 0. -1.
          1   -1    0    0  501    0 -0.00000000000E+00 -0.00000000000E+00 -0.20427287220E+03  0.20427287220E+03  0.00000000000E+00 0. -1.
         25    2    1    2    0    0 -0.54552025455E+02  0.18962573285E+02 -0.45312067410E+01  0.13776596595E+03  0.12499370733E+03 0.  0.
          2    1    1    2  501    0  0.32570331045E+02  0.15520648678E+02 -0.13030051996E+03  0.13520333761E+03  0.00000000000E+00 0. -1.
          1    1    1    2  502    0  0.21981694410E+02 -0.34483221963E+02  0.11223990607E+04  0.11231437748E+04  0.00000000000E+00 0. -1.
         22    1    3    3    0    0 -0.67691298508E+01  0.67857707854E+02  0.65468031583E+01  0.68508030666E+02  0.00000000000E+00 0.  1.
         22    1    3    3    0    0 -0.47782895604E+02 -0.48895134568E+02 -0.11078009899E+02  0.69257935286E+02  0.00000000000E+00 0.  1.
</event>
<event>
 7    1  0.6443388E-006  0.1107481E+03  0.7818608E-02  0.1420116E+00
          2   -1    0    0  502    0  0.00000000000E+00  0.00000000000E+00  0.36613465938E+03  0.36613465938E+03  0.00000000000E+00 0. -1.
          1   -1    0    0  501    0 -0.00000000000E+00 -0.00000000000E+00 -0.38372909827E+03  0.38372909827E+03  0.00000000000E+00 0. -1.
         25    2    1    2    0    0 -0.10361865488E+03  0.64922508659E+02  0.90582231438E+02  0.19692164387E+03  0.12498494070E+03 0.  0.
          2    1    1    2  501    0  0.10355363894E+03 -0.37611879726E+02 -0.32048042867E+03  0.33888894168E+03  0.00000000000E+00 0. -1.
          1    1    1    2  502    0  0.65015937438E-01 -0.27310628933E+02  0.21230375834E+03  0.21405317210E+03  0.00000000000E+00 0. -1.
         22    1    3    3    0    0 -0.25840347047E+02  0.87374110421E+02  0.65346650796E+02  0.11212557013E+03  0.00000000000E+00 0.  1.
         22    1    3    3    0    0 -0.77778307830E+02 -0.22451601762E+02  0.25235580642E+02  0.84796073735E+02  0.00000000000E+00 0.  1.
</event>
<event>
 7    1  0.6443388E-006  0.8497559E+02  0.7818608E-02  0.1316248E+00
          2   -1    0    0  502    0  0.00000000000E+00  0.00000000000E+00  0.20211615359E+03  0.20211615359E+03  0.00000000000E+00 0. -1.
          1   -1    0    0  501    0 -0.00000000000E+00 -0.00000000000E+00 -0.33325404983E+03  0.33325404983E+03  0.00000000000E+00 0. -1.
         25    2    1    2    0    0 -0.42586068204E+02 -0.12990306082E+02  0.45588010489E+02  0.14030473817E+03  0.12499932638E+03 0.  0.
          2    1    1    2  501    0 -0.33978430018E+02 -0.77261451912E+02 -0.24451546664E+03  0.25867291911E+03  0.00000000000E+00 0. -1.
          1    1    1    2  502    0  0.76564498222E+02  0.90251757994E+02  0.67789559905E+02  0.13639254613E+03  0.00000000000E+00 0. -1.
         22    1    3    3    0    0 -0.17262064328E+02  0.55909591664E+02  0.12743147907E+02  0.59885299728E+02  0.00000000000E+00 0. -1.
         22    1    3    3    0    0 -0.25324003876E+02 -0.68899897746E+02  0.32844862581E+02  0.80419438445E+02  0.00000000000E+00 0. -1.
</event>
<event>
 7    1  0.6443388E-006  0.8599646E+02  0.7818608E-02  0.1343409E+00
          2   -1    0    0  502    0  0.00000000000E+00  0.00000000000E+00  0.32184276180E+03  0.32184276180E+03  0.00000000000E+00 0. -1.
          1   -1    0    0  501    0 -0.00000000000E+00 -0.00000000000E+00 -0.22284163356E+03  0.22284163356E+03  0.00000000000E+00 0. -1.
         25    2    1    2    0    0  0.85346112660E+01 -0.63919536333E+02  0.14911665367E+02  0.14144319656E+03  0.12500109349E+03 0.  0.
          2    1    1    2  501    0  0.56391264742E+02  0.73780306692E+02 -0.14096368614E+03  0.16880245616E+03  0.00000000000E+00 0. -1.
          1    1    1    2  502    0 -0.64925876008E+02 -0.98607703588E+01  0.22505314902E+03  0.23443874264E+03  0.00000000000E+00 0. -1.
         22    1    3    3    0    0  0.20460667178E+02 -0.12122731162E+02  0.64503871007E+02  0.68748446434E+02  0.00000000000E+00 0. -1.
         22    1    3    3    0    0 -0.11926055912E+02 -0.51796805171E+02 -0.49592205640E+02  0.72694750126E+02  0.00000000000E+00 0. -1.
</event>
<event>
 7    1  0.6443388E-006  0.1356097E+03  0.7818608E-02  0.1366321E+00
          2   -1    0    0  502    0  0.00000000000E+00  0.00000000000E+00  0.11533025794E+04  0.11533025794E+04  0.00000000000E+00 0. -1.
          1   -1    0    0  501    0 -0.00000000000E+00 -0.00000000000E+00 -0.53594905110E+02  0.53594905110E+02  0.00000000000E+00 0. -1.
         25    2    1    2    0    0 -0.11031996669E+03  0.31816576089E+02  0.29993047717E+03  0.34462447429E+03  0.12499979032E+03 0.  0.
          2    1    1    2  501    0 -0.30440981631E+02 -0.15805015042E+02 -0.13417414633E+02  0.36830406983E+02  0.00000000000E+00 0. -1.
          1    1    1    2  502    0  0.14076094832E+03 -0.16011561046E+02  0.81319461176E+03  0.82544260325E+03  0.00000000000E+00 0. -1.
         22    1    3    3    0    0 -0.63057257819E+01 -0.14477012283E+02  0.17456217891E+03  0.17527492796E+03  0.00000000000E+00 0. -1.
         22    1    3    3    0    0 -0.10401424091E+03  0.46293588372E+02  0.12536829825E+03  0.16934954633E+03  0.00000000000E+00 0. -1.
</event>
<event>
 7    1  0.6443388E-006  0.8453625E+02  0.7818608E-02  0.1384669E+00
          2   -1    0    0  502    0  0.00000000000E+00  0.00000000000E+00  0.66719089309E+03  0.66719089309E+03  0.00000000000E+00 0. -1.
          1   -1    0    0  501    0 -0.00000000000E+00 -0.00000000000E+00 -0.15410123977E+03  0.15410123977E+03  0.00000000000E+00 0. -1.
         25    2    1    2    0    0  0.66202815615E+02  0.71233073099E+02  0.13644386755E+03  0.20903471007E+03  0.12498646936E+03 0.  0.
          2    1    1    2  501    0 -0.20110507733E+02 -0.81973237671E+02 -0.10136757651E+03  0.13190689817E+03  0.00000000000E+00 0. -1.
          1    1    1    2  502    0 -0.46092307882E+02  0.10740164572E+02  0.47801336229E+03  0.48035052462E+03  0.00000000000E+00 0. -1.
         22    1    3    3    0    0  0.93847569095E+02  0.14131757093E+02  0.80350112935E+02  0.12435116981E+03  0.00000000000E+00 0. -1.
         22    1    3    3    0    0 -0.27644753480E+02  0.57101316006E+02  0.56093754613E+02  0.84683540261E+02  0.00000000000E+00 0. -1.
</event>
<event>
 7    1  0.6443388E-006  0.5592719E+02  0.7818608E-02  0.1444418E+00
          2   -1    0    0  502    0  0.00000000000E+00  0.00000000000E+00  0.80771146768E+03  0.80771146768E+03  0.00000000000E+00 0. -1.
          1   -1    0    0  501    0 -0.00000000000E+00 -0.00000000000E+00 -0.99336931442E+03  0.99336931442E+03  0.00000000000E+00 0. -1.
         25    2    1    2    0    0 -0.19703511104E+02 -0.28754173120E+02  0.62437054902E+03  0.63771349270E+03  0.12499954187E+03 0.  0.
          2    1    1    2  501    0 -0.45320576413E+02  0.32770358885E+02 -0.97986729589E+03  0.98146205664E+03  0.00000000000E+00 0. -1.
          1    1    1    2  502    0  0.65024087517E+02 -0.40161857642E+01  0.16983890013E+03  0.18190523276E+03  0.00000000000E+00 0. -1.
         22    1    3    3    0    0 -0.72155319431E+02 -0.20432719265E+02  0.41439102464E+03  0.42112208140E+03  0.00000000000E+00 0.  1.
         22    1    3    3    0    0  0.52451808328E+02 -0.83214538549E+01  0.20997952438E+03  0.21659141130E+03  0.00000000000E+00 0.  1.
</event>
<event>
 7    1  0.6443388E-006  0.3755438E+02  0.7818608E-02  0.1591897E+00
          2   -1    0    0  502    0  0.00000000000E+00  0.00000000000E+00  0.76439492150E+02  0.76439492150E+02  0.00000000000E+00 0. -1.
          1   -1    0    0  501    0 -0.00000000000E+00 -0.00000000000E+00 -0.49954872159E+03  0.49954872159E+03  0.00000000000E+00 0. -1.
         25    2    1    2    0    0 -0.38407203763E+02 -0.45609425076E+02 -0.67334550260E+02  0.15398837527E+03  0.12499258019E+03 0.  0.
          2    1    1    2  501    0  0.29676705282E+02  0.22310621405E+02 -0.38318596461E+03  0.38498045942E+03  0.00000000000E+00 0. -1.
          1    1    1    2  502    0  0.87304984807E+01  0.23298803671E+02  0.27411285429E+02  0.37019379048E+02  0.00000000000E+00 0. -1.
         22    1    3    3    0    0 -0.19383729637E+02 -0.88855975636E+02 -0.39502165434E+02  0.99154094493E+02  0.00000000000E+00 0.  1.
         22    1    3    3    0    0 -0.19023474125E+02  0.43246550560E+02 -0.27832384826E+02  0.54834280776E+02  0.00000000000E+00 0.  1.
</event>
<event>
 7    1  0.6443388E-006  0.1296112E+03  0.7818608E-02  0.1267459E+00
          2   -1    0    0  502    0  0.00000000000E+00  0.00000000000E+00  0.18725261777E+04  0.18725261777E+04  0.00000000000E+00 0. -1.
          1   -1    0    0  501    0 -0.00000000000E+00 -0.00000000000E+00 -0.26099981747E+03  0.26099981747E+03  0.00000000000E+00 0. -1.
         25    2    1    2    0    0  0.47890699720E+02 -0.62398884659E+02  0.98350350324E+02  0.17744144496E+03  0.12500214019E+03 0.  0.
          2    1    1    2  501    0 -0.49873881468E+02 -0.71630881418E+02 -0.21014893933E+03  0.22755430984E+03  0.00000000000E+00 0. -1.
          1    1    1    2  502    0  0.19831817479E+01  0.13402976608E+03  0.17233249492E+04  0.17285302403E+04  0.00000000000E+00 0. -1.
         22    1    3    3    0    0  0.18197348901E+02 -0.41098986321E+02 -0.23154144242E+02  0.50560701926E+02  0.00000000000E+00 0. -1.
         22    1    3    3    0    0  0.29693350819E+02 -0.21299898338E+02  0.12150449457E+03  0.12688074303E+03  0.00000000000E+00 0. -1.
</event>
<event>
 7    1  0.6443388E-006  0.1320256E+03  0.7818608E-02  0.1341852E+00
          2   -1    0    0  502    0  0.00000000000E+00  0.00000000000E+00  0.25613389267E+04  0.25613389267E+04  0.00000000000E+00 0. -1.
          1   -1    0    0  501    0 -0.00000000000E+00 -0.00000000000E+00 -0.15709291185E+02  0.15709291185E+02  0.00000000000E+00 0. -1.
         25    2    1    2    0    0 -0.12724509572E+03 -0.52681936574E+02  0.72162690808E+03  0.74520907759E+03  0.12499789614E+03 0.  0.
          2    1    1    2  501    0  0.95394158780E+02  0.82094063477E+02  0.13368879399E+04  0.13427988847E+04  0.00000000000E+00 0. -1.
          1    1    1    2  502    0  0.31850936940E+02 -0.29412126903E+02  0.48711478753E+03  0.48904025562E+03  0.00000000000E+00 0. -1.
         22    1    3    3    0    0 -0.14608003859E+03 -0.19812375447E+02  0.54668427490E+03  0.56621162503E+03  0.00000000000E+00 0.  1.
         22    1    3    3    0    0  0.18834942867E+02 -0.32869561127E+02  0.17494263318E+03  0.17899745257E+03  0.00000000000E+00 0.  1.
</event>
<event>
 7    1  0.6443388E-006  0.1212490E+03  0.7818608E-02  0.1262358E+00
          2   -1    0    0  502    0  0.00000000000E+00  0.00000000000E+00  0.37397941873E+03  0.37397941873E+03  0.00000000000E+00 0. -1.
          1   -1    0    0  501    0 -0.00000000000E+00 -0.00000000000E+00 -0.10608315440E+04  0.10608315440E+04  0.00000000000E+00 0. -1.
         25    2    1    2    0    0 -0.13932746537E+02  0.41548778408E+02 -0.37581003207E+02  0.13768708215E+03  0.12499991351E+03 0.  0.
          2    1    1    2  501    0  0.10761750416E+03 -0.70515988171E+02 -0.96139100644E+03  0.96996221527E+03  0.00000000000E+00 0. -1.
          1    1    1    2  502    0 -0.93684757627E+02  0.28967209762E+02  0.31211988435E+03  0.32716166533E+03  0.00000000000E+00 0. -1.
         22    1    3    3    0    0 -0.19664887157E+02  0.80634617989E+02 -0.49231830922E+02  0.96500894198E+02  0.00000000000E+00 0. -1.
         22    1    3    3    0    0  0.57321406209E+01 -0.39085839580E+02  0.11650827715E+02  0.41186187955E+02  0.00000000000E+00 0. -1.
</event>
<event>
 7    1  0.6443388E-006  0.2391902E+03  0.7818608E-02  0.1191789E+00
          2   -1    0    0  502    0  0.00000000000E+00  0.00000000000E+00  0.19809731573E+04  0.19809731573E+04  0.00000000000E+00 0. -1.
          1   -1    0    0  501    0 -0.00000000000E+00 -0.00000000000E+00 -0.10004614114E+03  0.10004614114E+03  0.00000000000E+00 0. -1.
         25    2    1    2    0    0 -0.17739427299E+03  0.20712816219E+03  0.68816934291E+03  0.75071340103E+03  0.12499104890E+03 0.  0.
          2    1    1    2  501    0  0.10264851747E+03  0.12733622598E+02 -0.11307753064E+02  0.10405156684E+03  0.00000000000E+00 0. -1.
          1    1    1    2  502    0  0.74745755519E+02 -0.21986178479E+03  0.12040654264E+04  0.12262543306E+04  0.00000000000E+00 0. -1.
         22    1    3    3    0    0 -0.19071039020E+03  0.17664369655E+03  0.65016947055E+03  0.70020981777E+03  0.00000000000E+00 0.  1.
         22    1    3    3    0    0  0.13316117209E+02  0.30484465646E+02  0.37999872355E+02  0.50503583262E+02  0.00000000000E+00 0.  1.
</event>
<event>
 7    1  0.6443388E-006  0.9215925E+02  0.7818608E-02  0.1345700E+00
          2   -1    0    0  502    0  0.00000000000E+00  0.00000000000E+00  0.42334336776E+03  0.42334336776E+03  0.00000000000E+00 0. -1.
          1   -1    0    0  501    0 -0.00000000000E+00 -0.00000000000E+00 -0.26224515124E+03  0.26224515124E+03  0.00000000000E+00 0. -1.
         25    2    1    2    0    0  0.58046118729E+00  0.62693432512E+02  0.11295925721E+02  0.14030028944E+03  0.12500307941E+03 0.  0.
          2    1    1    2  501    0 -0.58165218248E+02 -0.79838573861E+02 -0.18254296819E+03  0.20755559671E+03  0.00000000000E+00 0. -1.
          1    1    1    2  502    0  0.57584757060E+02  0.17145141349E+02  0.33234525899E+03  0.33773263285E+03  0.00000000000E+00 0. -1.
         22    1    3    3    0    0  0.50278379105E+02 -0.96976801113E+01  0.11548819732E+02  0.52491291108E+02  0.00000000000E+00 0. -1.
         22    1    3    3    0    0 -0.49697917918E+02  0.72391112624E+02 -0.25289401100E+00  0.87808998330E+02  0.00000000000E+00 0. -1.
</event>
<event>
 7    1  0.6443388E-006  0.5758903E+02  0.7818608E-02  0.1511510E+00
          2   -1    0    0  502    0  0.00000000000E+00  0.00000000000E+00  0.48097882578E+03  0.48097882578E+03  0.00000000000E+00 0. -1.
          1   -1    0    0  501    0 -0.00000000000E+00 -0.00000000000E+00 -0.94785949672E+03  0.94785949672E+03  0.00000000000E+00 0. -1.
         25    2    1    2    0    0 -0.24169782770E+02  0.66900012167E+02  0.23618966450E+03  0.27652588084E+03  0.12498485962E+03 0.  0.
          2    1    1    2  501    0  0.24838425755E+02 -0.11008650419E+02 -0.92401133643E+03  0.92441067045E+03  0.00000000000E+00 0. -1.
          1    1    1    2  502    0 -0.66864298455E+00 -0.55891361748E+02  0.22094100099E+03  0.22790177121E+03  0.00000000000E+00 0. -1.
         22    1    3    3    0    0  0.40394233060E+02 -0.11655761431E+02  0.73426034505E+02  0.84610480333E+02  0.00000000000E+00 0. -1.
         22    1    3    3    0    0 -0.64564015830E+02  0.78555773598E+02  0.16276362999E+03  0.19191540051E+03  0.00000000000E+00 0. -1.
</event>
<event>
 7    1  0.6443388E-006  0.3177546E+03  0.7818608E-02  0.1294328E+00
          2   -1    0    0  502    0  0.00000000000E+00  0.00000000000E+00  0.24664667978E+04  0.24664667978E+04  0.00000000000E+00 0. -1.
          1   -1    0    0  501    0 -0.00000000000E+00 -0.00000000000E+00 -0.22896925159E+03  0.22896925159E+03  0.00000000000E+00 0. -1.
         25    2    1    2    0    0 -0.70419678376E+02 -0.32724835323E+03  0.93758939143E+03  0.10033688866E+04  0.12499935981E+03 0.  0.
          2    1    1    2  501    0  0.85113512476E+02  0.30390874437E+03 -0.68855083271E+02  0.32302609400E+03  0.00000000000E+00 0. -1.
          1    1    1    2  502    0 -0.14693834100E+02  0.23339608857E+02  0.13687632381E+04  0.13690410688E+04  0.00000000000E+00 0. -1.
         22    1    3    3    0    0  0.19519868806E+02 -0.18861704930E+03  0.44214090237E+03  0.48108834336E+03  0.00000000000E+00 0. -1.
         22    1    3    3    0    0 -0.89939547182E+02 -0.13863130393E+03  0.49544848907E+03  0.52228054329E+03  0.00000000000E+00 0. -1.
</event>
<event>
 7    1  0.6443388E-006  0.1950979E+03  0.7818608E-02  0.1295453E+00
          2   -1    0    0  502    0  0.00000000000E+00  0.00000000000E+00  0.12278023849E+04  0.12278023849E+04  0.00000000000E+00 0. -1.
          1   -1    0    0  501    0 -0.00000000000E+00 -0.00000000000E+00 -0.13555193511E+04  0.13555193511E+04  0.00000000000E+00 0. -1.
         25    2    1    2    0    0 -0.18074337365E+03  0.15658370490E+03  0.75093822747E+03  0.79794809609E+03  0.12500527516E+03 0.  0.
          2    1    1    2  501    0  0.14666312816E+03 -0.12804405393E+03 -0.13237871923E+04  0.13380276094E+04  0.00000000000E+00 0. -1.
          1    1    1    2  502    0  0.34080245490E+02 -0.28539650974E+02  0.44513199870E+03  0.44734603058E+03  0.00000000000E+00 0. -1.
         22    1    3    3    0    0 -0.10374236688E+03  0.10784411539E+02  0.31842330369E+03  0.33507041432E+03  0.00000000000E+00 0.  1.
         22    1    3    3    0    0 -0.77001006761E+02  0.14579929336E+03  0.43251492378E+03  0.46287768177E+03  0.00000000000E+00 0.  1.
</event>
<event>
 7    1  0.6443388E-006  0.1003530E+03  0.7818608E-02  0.1343928E+00
          2   -1    0    0  502    0  0.00000000000E+00  0.00000000000E+00  0.66561514500E+03  0.66561514500E+03  0.00000000000E+00 0. -1.
          1   -1    0    0  501    0 -0.00000000000E+00 -0.00000000000E+00 -0.12413290351E+04  0.12413290351E+04  0.00000000000E+00 0. -1.
         25    2    1    2    0    0  0.10603017583E+03  0.43502563579E+02 -0.81494095746E+02  0.18815143981E+03  0.12499922174E+03 0.  0.
          2    1    1    2  501    0 -0.99602921005E+02  0.12151973120E+02 -0.11029424506E+04  0.11074973868E+04  0.00000000000E+00 0. -1.
          1    1    1    2  502    0 -0.64272548268E+01 -0.55654536700E+02  0.60872265624E+03  0.61129535355E+03  0.00000000000E+00 0. -1.
         22    1    3    3    0    0  0.66365765811E+02 -0.12577011309E+02 -0.96549233461E+02  0.11783187416E+03  0.00000000000E+00 0. -1.
         22    1    3    3    0    0  0.39664410020E+02  0.56079574888E+02  0.15055137715E+02  0.70319565652E+02  0.00000000000E+00 0. -1.
</event>
<event>
 7    1  0.6443388E-006  0.6448248E+02  0.7818608E-02  0.1429352E+00
          2   -1    0    0  502    0  0.00000000000E+00  0.00000000000E+00  0.15253544713E+04  0.15253544713E+04  0.00000000000E+00 0. -1.
          1   -1    0    0  501    0 -0.00000000000E+00 -0.00000000000E+00 -0.26769305695E+03  0.26769305695E+03  0.00000000000E+00 0. -1.
         25    2    1    2    0    0 -0.22247066527E+02 -0.98065516888E+01 -0.13152062452E+03  0.18306890562E+03  0.12500179641E+03 0.  0.
          2    1    1    2  501    0 -0.42419428751E+02  0.10546875981E+02 -0.10534472750E+03  0.11405330394E+03  0.00000000000E+00 0. -1.
          1    1    1    2  502    0  0.64666495278E+02 -0.74032429206E+00  0.14945267664E+04  0.14959253187E+04  0.00000000000E+00 0. -1.
         22    1    3    3    0    0 -0.41389342846E+01 -0.55304379257E+02 -0.16191660141E+02  0.57774345519E+02  0.00000000000E+00 0. -1.
         22    1    3    3    0    0 -0.18108132243E+02  0.45497827568E+02 -0.11532896438E+03  0.12529456010E+03  0.00000000000E+00 0. -1.
</event>
<event>
 7    1  0.6443388E-006  0.1879522E+03  0.7818608E-02  0.1332045E+00
          2   -1    0    0  502    0  0.00000000000E+00  0.00000000000E+00  0.58775597315E+03  0.58775597315E+03  0.00000000000E+00 0. -1.
          1   -1    0    0  501    0 -0.00000000000E+00 -0.00000000000E+00 -0.23880196001E+03  0.23880196001E+03  0.00000000000E+00 0. -1.
         25    2    1    2    0    0  0.80738286278E+01  0.20069320634E+03 -0.78176367199E+02  0.24915773373E+03  0.12500032845E+03 0.  0.
          2    1    1    2  501    0 -0.23937599044E+02 -0.17156601466E+03  0.26315427954E+02  0.17521531835E+03  0.00000000000E+00 0. -1.
          1    1    1    2  502    0  0.15863770416E+02 -0.29127191676E+02  0.40081495239E+03  0.40218488108E+03  0.00000000000E+00 0. -1.
         22    1    3    3    0    0  0.31744828955E+02  0.12073669334E+03 -0.10333392280E+03  0.16205857856E+03  0.00000000000E+00 0.  1.
         22    1    3    3    0    0 -0.23671000327E+02  0.79956512998E+02  0.25157555606E+02  0.87099155170E+02  0.00000000000E+00 0.  1.
</event>
<event>
 7    1  0.6443388E-006  0.1257259E+03  0.7818608E-02  0.1260700E+00
          2   -1    0    0  502    0  0.00000000000E+00  0.00000000000E+00  0.73004747465E+02  0.73004747465E+02  0.00000000000E+00 0. -1.
          1   -1    0    0  501    0 -0.00000000000E+00 -0.00000000000E+00 -0.88554288695E+03  0.88554288695E+03  0.00000000000E+00 0. -1.
         25    2    1    2    0    0 -0.92556396836E+02  0.13069672552E+02 -0.12313148695E+03  0.19880454047E+03  0.12499751716E+03 0.  0.
          2    1    1    2  501    0  0.10957015521E+03  0.81531039736E+02 -0.63453125618E+03  0.64906305119E+03  0.00000000000E+00 0. -1.
          1    1    1    2  502    0 -0.17013758378E+02 -0.94600712288E+02 -0.54875396362E+02  0.11068004276E+03  0.00000000000E+00 0. -1.
         22    1    3    3    0    0 -0.11778903203E+03 -0.40949035732E-01 -0.66078084293E+02  0.13505765794E+03  0.00000000000E+00 0.  1.
         22    1    3    3    0    0  0.25232635197E+02  0.13110621588E+02 -0.57053402655E+02  0.63746882527E+02  0.00000000000E+00 0.  1.
</event>
<event>
 7    1  0.7330471E-006  0.8601299E+02  0.7818608E-02  0.1358694E+00
          2   -1    0    0  502    0  0.00000000000E+00  0.00000000000E+00  0.24195735298E+04  0.24195735298E+04  0.00000000000E+00 0. -1.
          1   -1    0    0  501    0 -0.00000000000E+00 -0.00000000000E+00 -0.59910345786E+03  0.59910345786E+03  0.00000000000E+00 0. -1.
         25    2    1    2    0    0 -0.31669629252E+02  0.13812928607E+03 -0.57347574046E+02  0.19747837325E+03  0.12500519415E+03 0.  0.
          2    1    1    2  501    0  0.24427418499E+01 -0.57590697405E+02 -0.46914485193E+03  0.47267277001E+03  0.00000000000E+00 0. -1.
          1    1    1    2  502    0  0.29226887402E+02 -0.80538588668E+02  0.23469624979E+04  0.23485258444E+04  0.00000000000E+00 0. -1.
         22    1    3    3    0    0 -0.17117177045E+02  0.78504499835E+01 -0.63511417609E+02  0.66244452459E+02  0.00000000000E+00 0. -1.
         22    1    3    3    0    0 -0.14552452207E+02  0.13027883609E+03  0.61638435633E+01  0.13123392079E+03  0.00000000000E+00 0. -1.
</event>
<event>
 7    1  0.6443388E-006  0.9817203E+02  0.7818608E-02  0.1315864E+00
          2   -1    0    0  502    0  0.00000000000E+00  0.00000000000E+00  0.78585655197E+03  0.78585655197E+03  0.00000000000E+00 0. -1.
          1   -1    0    0  501    0 -0.00000000000E+00 -0.00000000000E+00 -0.63131143906E+03  0.63131143906E+03  0.00000000000E+00 0. -1.
         25    2    1    2    0    0  0.15420523502E+03 -0.56157837375E+02 -0.67747268158E+02  0.21713410931E+03  0.12499828750E+03 0.  0.
          2    1    1    2  501    0 -0.73239730916E+02  0.32134628662E+01 -0.48280097542E+03  0.48833509642E+03  0.00000000000E+00 0. -1.
          1    1    1    2  502    0 -0.80965504101E+02  0.52944374509E+02  0.70509335648E+03  0.71169878530E+03  0.00000000000E+00 0. -1.
         22    1    3    3    0    0  0.11657688593E+03 -0.41847065268E+02 -0.10493023140E+03  0.16233206913E+03  0.00000000000E+00 0. -1.
         22    1    3    3    0    0  0.37628349085E+02 -0.14310772107E+02  0.37182963241E+02  0.54802040186E+02  0.00000000000E+00 0. -1.
</event>
<event>
 7    1  0.6443388E-006  0.3051375E+02  0.7818608E-02  0.1641899E+00
          2   -1    0    0  502    0  0.00000000000E+00  0.00000000000E+00  0.15726829451E+04  0.15726829451E+04  0.00000000000E+00 0. -1.
          1   -1    0    0  501    0 -0.00000000000E+00 -0.00000000000E+00 -0.81969284545E+02  0.81969284545E+02  0.00000000000E+00 0. -1.
         25    2    1    2    0    0  0.52954523798E+01 -0.14241682305E+02  0.34117356039E+03  0.36366906748E+03  0.12499970000E+03 0.  0.
          2    1    1    2  501    0  0.22767379541E+02  0.14115621623E+01 -0.68681653776E+02  0.72370682215E+02  0.00000000000E+00 0. -1.
          1    1    1    2  502    0 -0.28062831920E+02  0.12830120142E+02  0.12182217540E+04  0.12186124800E+04  0.00000000000E+00 0. -1.
         22    1    3    3    0    0  0.56668705744E+02  0.66741139663E+01  0.25410915498E+03  0.26043684197E+03  0.00000000000E+00 0. -1.
         22    1    3    3    0    0 -0.51373253364E+02 -0.20915796271E+02  0.87064405409E+02  0.10323222551E+03  0.00000000000E+00 0. -1.
</event>
<event>
 7    1  0.6443388E-006  0.3093681E+02  0.7818608E-02  0.1614601E+00
          2   -1    0    0  502    0  0.00000000000E+00  0.00000000000E+00  0.18157907499E+04  0.18157907499E+04  0.00000000000E+00 0. -1.
          1   -1    0    0  501    0 -0.00000000000E+00 -0.00000000000E+00 -0.23850479116E+02  0.23850479116E+02  0.00000000000E+00 0. -1.
         25    2    1    2    0    0  0.35581923312E+02  0.35875032778E+02  0.43119786124E+03  0.45178497297E+03  0.12499990006E+03 0.  0.
          2    1    1    2  501    0 -0.67026317536E+01 -0.25495228294E+02 -0.40330225732E+00  0.26364646610E+02  0.00000000000E+00 0. -1.
          1    1    1    2  502    0 -0.28879291558E+02 -0.10379804484E+02  0.13611457118E+04  0.13614916094E+04  0.00000000000E+00 0. -1.
         22    1    3    3    0    0  0.30570825930E+02 -0.13694582559E+02  0.23179001880E+02  0.40735526481E+02  0.00000000000E+00 0.  1.
         22    1    3    3    0    0  0.50110973812E+01  0.49569615337E+02  0.40801885936E+03  0.41104944649E+03  0.00000000000E+00 0.  1.
</event>
<event>
 7    1  0.6443388E-006  0.9003747E+02  0.7818608E-02  0.1444868E+00
          2   -1    0    0  502    0  0.00000000000E+00  0.00000000000E+00  0.85055196629E+03  0.85055196629E+03  0.00000000000E+00 0. -1.
          1   -1    0    0  501    0 -0.00000000000E+00 -0.00000000000E+00 -0.66838581075E+03  0.66838581075E+03  0.00000000000E+00 0. -1.
         25    2    1    2    0    0 -0.77702149211E+02  0.45908997589E+02  0.13498527328E+03  0.20489681065E+03  0.12496567113E+03 0.  0.
          2    1    1    2  501    0  0.59887556409E+02 -0.67334066766E+02 -0.62993712922E+03  0.63634989017E+03  0.00000000000E+00 0. -1.
          1    1    1    2  502    0  0.17814592802E+02  0.21425069177E+02  0.67711801148E+03  0.67769107621E+03  0.00000000000E+00 0. -1.
         22    1    3    3    0    0 -0.63992101096E+02  0.35820694818E+01  0.14566433591E+03  0.15914119197E+03  0.00000000000E+00 0. -1.
         22    1    3    3    0    0 -0.13710048115E+02  0.42326928107E+02 -0.10679062631E+02  0.45755618682E+02  0.00000000000E+00 0. -1.
</event>
<event>
 7    1  0.6443388E-006  0.7572618E+02  0.7818608E-02  0.1463163E+00
          2   -1    0    0  502    0  0.00000000000E+00  0.00000000000E+00  0.38386638779E+03  0.38386638779E+03  0.00000000000E+00 0. -1.
          1   -1    0    0  501    0 -0.00000000000E+00 -0.00000000000E+00 -0.16061793687E+03  0.16061793687E+03  0.00000000000E+00 0. -1.
         25    2    1    2    0    0  0.50783695644E+02 -0.85197990070E+02  0.14536461856E+03  0.21585596898E+03  0.12500098304E+03 0.  0.
          2    1    1    2  501    0 -0.20735255728E+02  0.20237589429E+02 -0.11725280788E+03  0.12077968295E+03  0.00000000000E+00 0. -1.
          1    1    1    2  502    0 -0.30048439916E+02  0.64960400641E+02  0.19513664024E+03  0.20784867273E+03  0.00000000000E+00 0. -1.
         22    1    3    3    0    0 -0.36271347529E+02 -0.24473440791E+02  0.80050681811E+02  0.91228677585E+02  0.00000000000E+00 0. -1.
         22    1    3    3    0    0  0.87055043173E+02 -0.60724549279E+02  0.65313936751E+02  0.12462729140E+03  0.00000000000E+00 0. -1.
</event>
<event>
 7    1  0.6443388E-006  0.7321100E+02  0.7818608E-02  0.1419602E+00
          2   -1    0    0  502    0  0.00000000000E+00  0.00000000000E+00  0.22225355897E+02  0.22225355897E+02  0.00000000000E+00 0. -1.
          1   -1    0    0  501    0 -0.00000000000E+00 -0.00000000000E+00 -0.19165989805E+04  0.19165989805E+04  0.00000000000E+00 0. -1.
         25    2    1    2    0    0 -0.10420764988E+03 -0.28597349409E+02 -0.73700266483E+03  0.75529979904E+03  0.12501126265E+03 0.  0.
          2    1    1    2  501    0  0.41477212351E+02 -0.83056556986E-01 -0.10762256348E+04  0.10770245972E+04  0.00000000000E+00 0. -1.
          1    1    1    2  502    0  0.62730437526E+02  0.28680405966E+02 -0.81145324949E+02  0.10649994009E+03  0.00000000000E+00 0. -1.
         22    1    3    3    0    0  0.18560096403E+02 -0.26507182128E+02 -0.70367972319E+02  0.77451658543E+02  0.00000000000E+00 0.  1.
         22    1    3    3    0    0 -0.12276774628E+03 -0.20901672809E+01 -0.66663469251E+03  0.67784814050E+03  0.00000000000E+00 0.  1.
</event>
<event>
 7    1  0.6443388E-006  0.1110333E+03  0.7818608E-02  0.1271418E+00
          2   -1    0    0  502    0  0.00000000000E+00  0.00000000000E+00  0.99698892607E+03  0.99698892607E+03  0.00000000000E+00 0. -1.
          1   -1    0    0  501    0 -0.00000000000E+00 -0.00000000000E+00 -0.20496617797E+04  0.20496617797E+04  0.00000000000E+00 0. -1.
         25    2    1    2    0    0  0.10020961676E+03 -0.13152684065E+03  0.15832937037E+03  0.26082805063E+03  0.12498722084E+03 0.  0.
          2    1    1    2  501    0  0.35081451028E+01  0.97994499038E+02 -0.19934290925E+04  0.19958393662E+04  0.00000000000E+00 0. -1.
          1    1    1    2  502    0 -0.10371776186E+03  0.33532341615E+02  0.78242686854E+03  0.78998328886E+03  0.00000000000E+00 0. -1.
         22    1    3    3    0    0  0.90245905061E+02 -0.15023977814E+03  0.16274832500E+03  0.23917217983E+03  0.00000000000E+00 0.  1.
         22    1    3    3    0    0  0.99637116944E+01  0.18712937486E+02 -0.44189546336E+01  0.21655870800E+02  0.00000000000E+00 0.  1.
</event>
<event>
 7    1  0.6938351E-006  0.1528978E+03  0.7818608E-02  0.1335520E+00
          2   -1    0    0  502    0  0.00000000000E+00  0.00000000000E+00  0.66818205525E+03  0.66818205525E+03  0.00000000000E+00 0. -1.
          1   -1    0    0  501    0 -0.00000000000E+00 -0.00000000000E+00 -0.16080094063E+04  0.16080094063E+04  0.00000000000E+00 0. -1.
         25    2    1    2    0    0  0.10465769378E+03 -0.13884287993E+03 -0.33068706442E+03  0.39396638685E+03  0.12500000488E+03 0.  0.
          2    1    1    2  501    0  0.99335566168E+01  0.38282998576E+02 -0.12362330983E+04  0.12368656099E+04  0.00000000000E+00 0. -1.
          1    1    1    2  502    0 -0.11459125039E+03  0.10055988135E+03  0.62709281167E+03  0.64535946484E+03  0.00000000000E+00 0. -1.
         22    1    3    3    0    0  0.58309571623E+02 -0.25241500610E+02 -0.32168499650E+02  0.71217637322E+02  0.00000000000E+00 0. -1.
         22    1    3    3    0    0  0.46348122152E+02 -0.11360137932E+03 -0.29851856477E+03  0.32274874953E+03  0.00000000000E+00 0. -1.
</event>
<event>
 7    1  0.6443388E-006  0.4079795E+02  0.7818608E-02  0.1518297E+00
          2   -1    0    0  502    0  0.00000000000E+00  0.00000000000E+00  0.12329651167E+04  0.12329651167E+04  0.00000000000E+00 0. -1.
          1   -1    0    0  501    0 -0.00000000000E+00 -0.00000000000E+00 -0.30758189707E+03  0.30758189707E+03  0.00000000000E+00 0. -1.
         25    2    1    2    0    0 -0.97009349588E+01  0.64352112866E+01  0.12027877399E+03  0.17385871279E+03  0.12499739381E+03 0.  0.
          2    1    1    2  501    0 -0.21611852475E+01 -0.41099107625E+02 -0.27897274143E+03  0.28199219462E+03  0.00000000000E+00 0. -1.
          1    1    1    2  502    0  0.11862120206E+02  0.34663896338E+02  0.10840771871E+04  0.10846961063E+04  0.00000000000E+00 0. -1.
         22    1    3    3    0    0  0.30948557829E+02  0.15521451354E+02 -0.10842449931E+02  0.36280675357E+02  0.00000000000E+00 0.  1.
         22    1    3    3    0    0 -0.40649492788E+02 -0.90862400678E+01  0.13112122392E+03  0.13757803743E+03  0.00000000000E+00 0.  1.
</event>
<event>
 7    1  0.6443388E-006  0.3872345E+02  0.7818608E-02  0.1544310E+00
          2   -1    0    0  502    0  0.00000000000E+00  0.00000000000E+00  0.89058800795E+03  0.89058800795E+03  0.00000000000E+00 0. -1.
          1   -1    0    0  501    0 -0.00000000000E+00 -0.00000000000E+00 -0.12029208572E+04  0.12029208572E+04  0.00000000000E+00 0. -1.
         25    2    1    2    0    0 -0.44487516156E+02 -0.35784717998E+02  0.32857983921E+03  0.35615940835E+03  0.12500051312E+03 0.  0.
          2    1    1    2  501    0  0.64363900150E+01  0.31879428088E+02 -0.11882410786E+04  0.11886860754E+04  0.00000000000E+00 0. -1.
          1    1    1    2  502    0  0.38051126141E+02  0.39052899097E+01  0.54732839010E+03  0.54866338141E+03  0.00000000000E+00 0. -1.
         22    1    3    3    0    0 -0.88223969208E+02 -0.17822795618E+02  0.20782780107E+03  0.22648071813E+03  0.00000000000E+00 0. -1.
         22    1    3    3    0    0  0.43736453052E+02 -0.17961922379E+02  0.12075203814E+03  0.12967869022E+03  0.00000000000E+00 0. -1.
</event>
<event>
 7    1  0.6443388E-006  0.9430856E+02  0.7818608E-02  0.1379849E+00
          2   -1    0    0  502    0  0.00000000000E+00  0.00000000000E+00  0.13007700301E+04  0.13007700301E+04  0.00000000000E+00 0. -1.
          1   -1    0    0  501    0 -0.00000000000E+00 -0.00000000000E+00 -0.42088796787E+03  0.42088796787E+03  0.00000000000E+00 0. -1.
         25    2    1    2    0    0  0.36687119452E+01 -0.13541911683E+03  0.32447401690E+03  0.37317588377E+03  0.12500022373E+03 0.  0.
          2    1    1    2  501    0  0.91970192753E+01  0.93218901309E+02 -0.39048384120E+03  0.40156192419E+03  0.00000000000E+00 0. -1.
          1    1    1    2  502    0 -0.12865731220E+02  0.42200215524E+02  0.94589188650E+03  0.94692018997E+03  0.00000000000E+00 0. -1.
         22    1    3    3    0    0  0.52266293010E+02 -0.12140051213E+03  0.21161069490E+03  0.24949736658E+03  0.00000000000E+00 0. -1.
         22    1    3    3    0    0 -0.48597581065E+02 -0.14018604699E+02  0.11286332200E+03  0.12367851720E+03  0.00000000000E+00 0. -1.
</event>
<event>
 7    1  0.6443388E-006  0.5468570E+02  0.7818608E-02  0.1466365E+00
          2   -1    0    0  502    0  0.00000000000E+00  0.00000000000E+00  0.27522172176E+03  0.27522172176E+03  0.00000000000E+00 0. -1.
          1   -1    0    0  501    0 -0.00000000000E+00 -0.00000000000E+00 -0.15211415698E+04  0.15211415698E+04  0.00000000000E+00 0. -1.
         25    2    1    2    0    0 -0.54769393022E+02 -0.36308525623E+02 -0.51493189437E+03  0.53394574915E+03  0.12500084698E+03 0.  0.
          2    1    1    2  501    0  0.18622743308E+02  0.51491634153E+02 -0.99449931298E+03  0.99600556147E+03  0.00000000000E+00 0. -1.
          1    1    1    2  502    0  0.36146649714E+02 -0.15183108530E+02  0.26351135934E+03  0.26641198091E+03  0.00000000000E+00 0. -1.
         22    1    3    3    0    0 -0.61035161733E+02 -0.12623898026E+02 -0.97010975485E+02  0.11530734206E+03  0.00000000000E+00 0. -1.
         22    1    3    3    0    0  0.62657687116E+01 -0.23684627597E+02 -0.41792091889E+03  0.41863840708E+03  0.00000000000E+00 0. -1.
</event>
<event>
 7    1  0.6443388E-006  0.1052016E+03  0.7818608E-02  0.1354375E+00
          2   -1    0    0  502    0  0.00000000000E+00  0.00000000000E+00  0.12894660795E+04  0.12894660795E+04  0.00000000000E+00 0. -1.
          1   -1    0    0  501    0 -0.00000000000E+00 -0.00000000000E+00 -0.44518803818E+03  0.44518803818E+03  0.00000000000E+00 0. -1.
         25    2    1    2    0    0  0.47103522948E+02 -0.31813215302E+02  0.61899387897E+03  0.63404248436E+03  0.12500250888E+03 0.  0.
          2    1    1    2  501    0 -0.88759121890E+02  0.57387458544E+02 -0.43035935311E+03  0.44314859238E+03  0.00000000000E+00 0. -1.
          1    1    1    2  502    0  0.41655598942E+02 -0.25574243242E+02  0.65564351546E+03  0.65746304094E+03  0.00000000000E+00 0. -1.
         22    1    3    3    0    0  0.77381254191E+02 -0.54261762441E+02  0.51083516176E+03  0.51950434055E+03  0.00000000000E+00 0. -1.
         22    1    3    3    0    0 -0.30277731243E+02  0.22448547139E+02  0.10815871721E+03  0.11453814381E+03  0.00000000000E+00 0. -1.
</event>
<event>
 7    1  0.6443388E-006  0.5326093E+02  0.7818608E-02  0.1490915E+00
          2   -1    0    0  502    0  0.00000000000E+00  0.00000000000E+00  0.19238757839E+04  0.19238757839E+04  0.00000000000E+00 0. -1.
          1   -1    0    0  501    0 -0.00000000000E+00 -0.00000000000E+00 -0.25822738881E+03  0.25822738881E+03  0.00000000000E+00 0. -1.
         25    2    1    2    0    0  0.29649961384E+02  0.73515915575E+01 -0.78154977362E+02  0.15056773902E+03  0.12501710859E+03 0.  0.
          2    1    1    2  501    0 -0.42393592676E+02 -0.38694382102E+02 -0.13798300399E+03  0.14944491057E+03  0.00000000000E+00 0. -1.
          1    1    1    2  502    0  0.12743631291E+02  0.31342790544E+02  0.18817863764E+04  0.18820905231E+04  0.00000000000E+00 0. -1.
         22    1    3    3    0    0 -0.46572280526E+02  0.21209228466E+02 -0.29058728759E+02  0.58849115564E+02  0.00000000000E+00 0. -1.
         22    1    3    3    0    0  0.76222241910E+02 -0.13857636909E+02 -0.49096248602E+02  0.91718623460E+02  0.00000000000E+00 0. -1.
</event>
<event>
 7    1  0.6443388E-006  0.6331112E+02  0.7818608E-02  0.1391836E+00
          2   -1    0    0  502    0  0.00000000000E+00  0.00000000000E+00  0.21301332004E+04  0.21301332004E+04  0.00000000000E+00 0. -1.
          1   -1    0    0  501    0 -0.00000000000E+00 -0.00000000000E+00 -0.30774779452E+03  0.30774779452E+03  0.00000000000E+00 0. -1.
         25    2    1    2    0    0  0.12159723195E+02 -0.28560615790E+02 -0.74214039020E+01  0.12897516934E+03  0.12496379247E+03 0.  0.
          2    1    1    2  501    0  0.42858410149E+02  0.51601682939E+02 -0.23441436441E+03  0.24382303263E+03  0.00000000000E+00 0. -1.
          1    1    1    2  502    0 -0.55018133344E+02 -0.23041067149E+02  0.20642211741E+04  0.20650827929E+04  0.00000000000E+00 0. -1.
         22    1    3    3    0    0  0.10905967329E+02 -0.46185904664E+02  0.49976938921E+02  0.68918592098E+02  0.00000000000E+00 0.  1.
         22    1    3    3    0    0  0.12537558660E+01  0.17625288874E+02 -0.57398342823E+02  0.60056577245E+02  0.00000000000E+00 0.  1.
</event>
<event>
 7    1  0.6443388E-006  0.8320431E+02  0.7818608E-02  0.1321435E+00
          2   -1    0    0  502    0  0.00000000000E+00  0.00000000000E+00  0.21581766563E+03  0.21581766563E+03  0.00000000000E+00 0. -1.
          1   -1    0    0  501    0 -0.00000000000E+00 -0.00000000000E+00 -0.38872149834E+03  0.38872149834E+03  0.00000000000E+00 0. -1.
         25    2    1    2    0    0 -0.50927802641E+01  0.10190287927E+02 -0.26988561717E+03  0.29764686446E+03  0.12500252472E+03 0.  0.
          2    1    1    2  501    0 -0.77644247516E+02 -0.29905318918E+02 -0.76915651695E+02  0.11330919975E+03  0.00000000000E+00 0. -1.
          1    1    1    2  502    0  0.82737027780E+02  0.19715030991E+02  0.17389743616E+03  0.19358309977E+03  0.00000000000E+00 0. -1.
         22    1    3    3    0    0  0.39543654960E+02  0.28423903243E+02 -0.22991728390E+03  0.23501824687E+03  0.00000000000E+00 0. -1.
         22    1    3    3    0    0 -0.44636435225E+02 -0.18233615315E+02 -0.39968333266E+02  0.62628617589E+02  0.00000000000E+00 0. -1.
</event>
<event>
 7    1  0.6443388E-006  0.7601501E+02  0.7818608E-02  0.1479863E+00
          2   -1    0    0  502    0  0.00000000000E+00  0.00000000000E+00  0.33172471795E+03  0.33172471795E+03  0.00000000000E+00 0. -1.
          1   -1    0    0  501    0 -0.00000000000E+00 -0.00000000000E+00 -0.38346934728E+04  0.38346934728E+04  0.00000000000E+00 0. -1.
         25    2    1    2    0    0 -0.64474538277E+02 -0.58312225817E+02  0.21298904149E+03  0.26181333156E+03  0.12499842808E+03 0.  0.
          2    1    1    2  501    0  0.68461453756E+02  0.33007817922E+02 -0.38081558781E+04  0.38089142388E+04  0.00000000000E+00 0. -1.
          1    1    1    2  502    0 -0.39869154786E+01  0.25304407896E+02  0.92198081747E+02  0.95690620396E+02  0.00000000000E+00 0. -1.
         22    1    3    3    0    0 -0.22987300635E+01 -0.82663552481E+02  0.92635053338E+02  0.12417648801E+03  0.00000000000E+00 0.  1.
         22    1    3    3    0    0 -0.62175808214E+02  0.24351326664E+02  0.12035398815E+03  0.13763684355E+03  0.00000000000E+00 0.  1.
</event>
<event>
 7    1  0.6443388E-006  0.7200203E+02  0.7818608E-02  0.1455393E+00
          2   -1    0    0  502    0  0.00000000000E+00  0.00000000000E+00  0.16616850422E+04  0.16616850422E+04  0.00000000000E+00 0. -1.
          1   -1    0    0  501    0 -0.00000000000E+00 -0.00000000000E+00 -0.31187457236E+02  0.31187457236E+02  0.00000000000E+00 0. -1.
         25    2    1    2    0    0  0.77943361142E+02 -0.81043664659E+01  0.31074458767E+03  0.34398877506E+03  0.12500092118E+03 0.  0.
          2    1    1    2  501    0 -0.61978356817E+02  0.36118895086E+02  0.75252289994E+02  0.10396537138E+03  0.00000000000E+00 0. -1.
          1    1    1    2  502    0 -0.15965004325E+02 -0.28014528620E+02  0.12445007073E+04  0.12449183530E+04  0.00000000000E+00 0. -1.
         22    1    3    3    0    0  0.20272913164E+02 -0.64043792724E+02  0.14384921330E+03  0.15876143915E+03  0.00000000000E+00 0.  1.
         22    1    3    3    0    0  0.57670447978E+02  0.55939426258E+02  0.16689537437E+03  0.18522733591E+03  0.00000000000E+00 0.  1.
</event>
<event>
 7    1  0.6443388E-006  0.4233942E+02  0.7818608E-02  0.1533305E+00
          2   -1    0    0  502    0  0.00000000000E+00  0.00000000000E+00  0.89307701197E+03  0.89307701197E+03  0.00000000000E+00 0. -1.
          1   -1    0    0  501    0 -0.00000000000E+00 -0.00000000000E+00 -0.18401833524E+03  0.18401833524E+03  0.00000000000E+00 0. -1.
         25    2    1    2    0    0 -0.47565658449E+02  0.39778322883E+02  0.14005623504E+02  0.14025201232E+03  0.12501864915E+03 0.  0.
          2    1    1    2  501    0  0.40858340321E+02 -0.85325194344E+01 -0.11696871883E+03  0.12419295087E+03  0.00000000000E+00 0. -1.
          1    1    1    2  502    0  0.67073181279E+01 -0.31245803448E+02  0.81202177205E+03  0.81265038402E+03  0.00000000000E+00 0. -1.
         22    1    3    3    0    0 -0.49651587584E+01 -0.40136508133E+02 -0.17912054825E+02  0.44231592721E+02  0.00000000000E+00 0. -1.
         22    1    3    3    0    0 -0.42600499690E+02  0.79914831015E+02  0.31917678329E+02  0.96020419599E+02  0.00000000000E+00 0. -1.
</event>
<event>
 7    1  0.6443388E-006  0.8508276E+02  0.7818608E-02  0.1384002E+00
          2   -1    0    0  502    0  0.00000000000E+00  0.00000000000E+00  0.66480976083E+03  0.66480976083E+03  0.00000000000E+00 0. -1.
          1   -1    0    0  501    0 -0.00000000000E+00 -0.00000000000E+00 -0.13725145865E+03  0.13725145865E+03  0.00000000000E+00 0. -1.
         25    2    1    2    0    0 -0.36642678682E+01 -0.41316825041E+02  0.42300557861E+03  0.44303448504E+03  0.12500131402E+03 0.  0.
          2    1    1    2  501    0  0.27458318958E+02  0.82170866177E+02 -0.10960563375E+03  0.13971186592E+03  0.00000000000E+00 0. -1.
          1    1    1    2  502    0 -0.23794051090E+02 -0.40854041136E+02  0.21415835732E+03  0.21931486852E+03  0.00000000000E+00 0. -1.
         22    1    3    3    0    0 -0.47907320257E+02  0.23287281730E+02  0.16150904255E+03  0.17006639777E+03  0.00000000000E+00 0. -1.
         22    1    3    3    0    0  0.44243052389E+02 -0.64604106771E+02  0.26149653606E+03  0.27296808727E+03  0.00000000000E+00 0. -1.
</event>
<event>
 7    1  0.6443388E-006  0.1625489E+03  0.7818608E-02  0.1215681E+00
          2   -1    0    0  502    0  0.00000000000E+00  0.00000000000E+00  0.23768296746E+03  0.23768296746E+03  0.00000000000E+00 0. -1.
          1   -1    0    0  501    0 -0.00000000000E+00 -0.00000000000E+00 -0.23777697201E+04  0.23777697201E+04  0.00000000000E+00 0. -1.
         25    2    1    2    0    0 -0.17711907859E+03 -0.29755134385E+02 -0.70312689371E+03  0.73638984485E+03  0.12500415563E+03 0.  0.
          2    1    1    2  501    0  0.70449120580E+02 -0.94176525060E+02 -0.16253540238E+04  0.16296036326E+04  0.00000000000E+00 0. -1.
          1    1    1    2  502    0  0.10666995801E+03  0.12393165945E+03  0.18839416491E+03  0.24945921015E+03  0.00000000000E+00 0. -1.
         22    1    3    3    0    0 -0.87299226529E+02 -0.47039227440E+01 -0.55148534805E+03  0.55837207215E+03  0.00000000000E+00 0.  1.
         22    1    3    3    0    0 -0.89819852061E+02 -0.25051211641E+02 -0.15164154565E+03  0.17801777270E+03  0.00000000000E+00 0.  1.
</event>
<event>
 7    1  0.6443388E-006  0.3450782E+02  0.7818608E-02  0.1600666E+00
          2   -1    0    0  502    0  0.00000000000E+00  0.00000000000E+00  0.63832457968E+02  0.63832457968E+02  0.00000000000E+00 0. -1.
          1   -1    0    0  501    0 -0.00000000000E+00 -0.00000000000E+00 -0.63346527586E+03  0.63346527586E+03  0.00000000000E+00 0. -1.
         25    2    1    2    0    0 -0.12790497069E+02  0.13290746377E+02 -0.24525580373E+02  0.12871109787E+03  0.12499920746E+03 0.  0.
          2    1    1    2  501    0 -0.95218557513E+01  0.23848909267E+02 -0.51543301145E+03  0.51607230647E+03  0.00000000000E+00 0. -1.
          1    1    1    2  502    0  0.22312352820E+02 -0.37139655644E+02 -0.29674226072E+02  0.52514329498E+02  0.00000000000E+00 0. -1.
         22    1    3    3    0    0 -0.30024063037E+02  0.26587179186E+02 -0.68652441291E+02  0.79507736438E+02  0.00000000000E+00 0. -1.
         22    1    3    3    0    0  0.17233565968E+02 -0.13296432809E+02  0.44126860917E+02  0.49203361428E+02  0.00000000000E+00 0. -1.
</event>
<event>
 7    1  0.6443388E-006  0.1288033E+03  0.7818608E-02  0.1283184E+00
          2   -1    0    0  502    0  0.00000000000E+00  0.00000000000E+00  0.23248951016E+03  0.23248951016E+03  0.00000000000E+00 0. -1.
          1   -1    0    0  501    0 -0.00000000000E+00 -0.00000000000E+00 -0.34094921589E+03  0.34094921589E+03  0.00000000000E+00 0. -1.
         25    2    1    2    0    0 -0.11620941308E+03  0.93091916205E+02 -0.84089727865E+02  0.21181929706E+03  0.12500239887E+03 0.  0.
          2    1    1    2  501    0  0.12569951165E+03 -0.18151129562E+02 -0.16126185146E+03  0.20526864220E+03  0.00000000000E+00 0. -1.
          1    1    1    2  502    0 -0.94900985685E+01 -0.74940786643E+02  0.13689187360E+03  0.15635078679E+03  0.00000000000E+00 0. -1.
         22    1    3    3    0    0 -0.42102790037E+02  0.11049219655E+03 -0.53467545925E+02  0.12976882867E+03  0.00000000000E+00 0.  1.
         22    1    3    3    0    0 -0.74106623044E+02 -0.17400280349E+02 -0.30622181941E+02  0.82050468384E+02  0.00000000000E+00 0.  1.
</event>
<event>
 7    1  0.6443388E-006  0.8102310E+02  0.7818608E-02  0.1327498E+00
          2   -1    0    0  502    0  0.00000000000E+00  0.00000000000E+00  0.25860461512E+04  0.25860461512E+04  0.00000000000E+00 0. -1.
          1   -1    0    0  501    0 -0.00000000000E+00 -0.00000000000E+00 -0.20173435699E+03  0.20173435699E+03  0.00000000000E+00 0. -1.
         25    2    1    2    0    0  0.48357297668E+02 -0.64580992853E+02  0.52020748007E+03  0.54106477481E+03  0.12500454129E+03 0.  0.
          2    1    1    2  501    0 -0.78900781331E+02 -0.13688314637E+02 -0.18202547858E+03  0.19886170598E+03  0.00000000000E+00 0. -1.
          1    1    1    2  502    0  0.30543483663E+02  0.78269307490E+02  0.20461297928E+04  0.20478540274E+04  0.00000000000E+00 0. -1.
         22    1    3    3    0    0 -0.24403138834E+01 -0.19288108518E+02  0.33288330989E+01  0.19724791301E+02  0.00000000000E+00 0.  1.
         22    1    3    3    0    0  0.50797611551E+02 -0.45292884335E+02  0.51687864697E+03  0.52133998351E+03  0.00000000000E+00 0.  1.
</event>
<event>
 7    1  0.6443388E-006  0.1793744E+03  0.7818608E-02  0.1237949E+00
          2   -1    0    0  502    0  0.00000000000E+00  0.00000000000E+00  0.34698890089E+04  0.34698890089E+04  0.00000000000E+00 0. -1.
          1   -1    0    0  501    0 -0.00000000000E+00 -0.00000000000E+00 -0.16962063330E+03  0.16962063330E+03  0.00000000000E+00 0. -1.
         25    2    1    2    0    0 -0.18399731574E+03  0.31776107072E+02  0.53674797846E+03  0.58188337466E+03  0.12500054458E+03 0.  0.
          2    1    1    2  501    0  0.11022885318E+02 -0.83862118057E+02 -0.13183769285E+03  0.15663823321E+03  0.00000000000E+00 0. -1.
          1    1    1    2  502    0  0.17297443042E+03  0.52086010985E+02  0.28953580900E+04  0.29009880344E+04  0.00000000000E+00 0. -1.
         22    1    3    3    0    0 -0.58341951069E+02  0.11333836166E+02  0.46746241910E+02  0.75613823005E+02  0.00000000000E+00 0. -1.
         22    1    3    3    0    0 -0.12565536467E+03  0.20442270906E+02  0.49000173655E+03  0.50626955166E+03  0.00000000000E+00 0. -1.
</event>
<event>
 7    1  0.6443388E-006  0.3622651E+02  0.7818608E-02  0.1544263E+00
          2   -1    0    0  502    0  0.00000000000E+00  0.00000000000E+00  0.55309858731E+02  0.55309858731E+02  0.00000000000E+00 0. -1.
          1   -1    0    0  501    0 -0.00000000000E+00 -0.00000000000E+00 -0.17109425689E+04  0.17109425689E+04  0.00000000000E+00 0. -1.
         25    2    1    2    0    0  0.13453763840E+02 -0.94517726386E+01 -0.49585166640E+03  0.51162965876E+03  0.12500277152E+03 0.  0.
          2    1    1    2  501    0 -0.31246223981E+02 -0.20426797028E+02 -0.12004971589E+04  0.12010774367E+04  0.00000000000E+00 0. -1.
          1    1    1    2  502    0  0.17792460140E+02  0.29878569666E+02  0.40716115114E+02  0.53545332132E+02  0.00000000000E+00 0. -1.
         22    1    3    3    0    0  0.38847236882E+01 -0.31403937422E+02 -0.25420586071E+02  0.40589463657E+02  0.00000000000E+00 0. -1.
         22    1    3    3    0    0  0.95690401522E+01  0.21952164784E+02 -0.47043108032E+03  0.47104019510E+03  0.00000000000E+00 0. -1.
</event>
<event>
 7    1  0.6443388E-006  0.1622865E+03  0.7818608E-02  0.1252997E+00
          2   -1    0    0  502    0  0.00000000000E+00  0.00000000000E+00  0.52861215585E+03  0.52861215585E+03  0.00000000000E+00 0. -1.
          1   -1    0    0  501    0 -0.00000000000E+00 -0.00000000000E+00 -0.27549979421E+03  0.27549979421E+03  0.00000000000E+00 0. -1.
         25    2    1    2    0    0  0.80328491280E+02 -0.52225259472E+02  0.12208806200E+03  0.19928974799E+03  0.12502305600E+03 0.  0.
          2    1    1    2  501    0 -0.14975306696E+03  0.92680295291E+02 -0.19866234017E+03  0.26548510994E+03  0.00000000000E+00 0. -1.
          1    1    1    2  502    0  0.69424575681E+02 -0.40455035819E+02  0.32968663980E+03  0.33933709213E+03  0.00000000000E+00 0. -1.
         22    1    3    3    0    0  0.91711540176E+02 -0.23273819148E+02  0.25759286441E+02  0.98062317416E+02  0.00000000000E+00 0.  1.
         22    1    3    3    0    0 -0.11383048896E+02 -0.28951440324E+02  0.96328775561E+02  0.10122743057E+03  0.00000000000E+00 0.  1.
</event>
<event>
 7    1  0.6443388E-006  0.1606584E+03  0.7818608E-02  0.1245284E+00
          2   -1    0    0  502    0  0.00000000000E+00  0.00000000000E+00  0.16729900485E+04  0.16729900485E+04  0.00000000000E+00 0. -1.
          1   -1    0    0  501    0 -0.00000000000E+00 -0.00000000000E+00 -0.72952139026E+03  0.72952139026E+03  0.00000000000E+00 0. -1.
         25    2    1    2    0    0  0.35565392338E+02 -0.16674995255E+03 -0.34153671065E+03  0.40167490141E+03  0.12499983157E+03 0.  0.
          2    1    1    2  501    0  0.73177790194E+02  0.48292285429E+02 -0.34853862567E+03  0.35939714439E+03  0.00000000000E+00 0. -1.
          1    1    1    2  502    0 -0.10874318253E+03  0.11845766713E+03  0.16335439946E+04  0.16414393930E+04  0.00000000000E+00 0. -1.
         22    1    3    3    0    0  0.79155282785E+02 -0.13076755838E+03 -0.22311024687E+03  0.27045128097E+03  0.00000000000E+00 0. -1.
         22    1    3    3    0    0 -0.43589890447E+02 -0.35982394173E+02 -0.11842646377E+03  0.13122362044E+03  0.00000000000E+00 0. -1.
</event>
<event>
 7    1  0.6443388E-006  0.4822599E+02  0.7818608E-02  0.1471876E+00
          2   -1    0    0  502    0  0.00000000000E+00  0.00000000000E+00  0.30135448201E+03  0.30135448201E+03  0.00000000000E+00 0. -1.
          1   -1    0    0  501    0 -0.00000000000E+00 -0.00000000000E+00 -0.12636635804E+03  0.12636635804E+03  0.00000000000E+00 0. -1.
         25    2    1    2    0    0 -0.46989498970E+02 -0.63481041982E+02  0.11606317306E+03  0.18797037485E+03  0.12499738387E+03 0.  0.
          2    1    1    2  501    0  0.77133306637E+01  0.46639542388E+02 -0.80812903365E+02  0.93624076681E+02  0.00000000000E+00 0. -1.
          1    1    1    2  502    0  0.39276168306E+02  0.16841499595E+02  0.13973785428E+03  0.14612638853E+03  0.00000000000E+00 0. -1.
         22    1    3    3    0    0 -0.16531028454E+02 -0.69243785426E+02  0.13430247841E+03  0.15200372505E+03  0.00000000000E+00 0.  1.
         22    1    3    3    0    0 -0.30458470516E+02  0.57627434439E+01 -0.18239305344E+02  0.35966649797E+02  0.00000000000E+00 0.  1.
</event>
<event>
 7    1  0.6443388E-006  0.3868236E+02  0.7818608E-02  0.1623261E+00
          2   -1    0    0  502    0  0.00000000000E+00  0.00000000000E+00  0.65210480085E+03  0.65210480085E+03  0.00000000000E+00 0. -1.
          1   -1    0    0  501    0 -0.00000000000E+00 -0.00000000000E+00 -0.55334714822E+02  0.55334714822E+02  0.00000000000E+00 0. -1.
         25    2    1    2    0    0 -0.27363904293E+02  0.27849456878E+02  0.50290894136E+03  0.51968106522E+03  0.12500652279E+03 0.  0.
          2    1    1    2  501    0  0.16981037605E+02  0.10637442145E+02 -0.41803898053E+02  0.46358135273E+02  0.00000000000E+00 0. -1.
          1    1    1    2  502    0  0.10382866688E+02 -0.38486899024E+02  0.13566504272E+03  0.14140031518E+03  0.00000000000E+00 0. -1.
         22    1    3    3    0    0 -0.48701200053E+02  0.36757787266E+02  0.48880133189E+03  0.49259484759E+03  0.00000000000E+00 0.  1.
         22    1    3    3    0    0  0.21337295760E+02 -0.89083303878E+01  0.14107609473E+02  0.27086217634E+02  0.00000000000E+00 0.  1.
</event>
<event>
 7    1  0.9076675E-006  0.6628437E+02  0.7818608E-02  0.1534663E+00
          2   -1    0    0  502    0  0.00000000000E+00  0.00000000000E+00  0.11512913354E+04  0.11512913354E+04  0.00000000000E+00 0. -1.
          1   -1    0    0  501    0 -0.00000000000E+00 -0.00000000000E+00 -0.15830939808E+04  0.15830939808E+04  0.00000000000E+00 0. -1.
         25    2    1    2    0    0 -0.93622522739E+01  0.71908735728E+02 -0.10800739168E+04  0.10896987090E+04  0.12500037017E+03 0.  0.
          2    1    1    2  501    0  0.19205571812E+02 -0.63623798998E+01 -0.49704371684E+03  0.49745531489E+03  0.00000000000E+00 0. -1.
          1    1    1    2  502    0 -0.98433195381E+01 -0.65546355828E+02  0.11453149882E+04  0.11472312923E+04  0.00000000000E+00 0. -1.
         22    1    3    3    0    0 -0.12571053400E+02  0.59447240561E+02 -0.10735559674E+04  0.10752741143E+04  0.00000000000E+00 0.  1.
         22    1    3    3    0    0  0.32088011262E+01  0.12461495167E+02 -0.65179494045E+01  0.14424594653E+02  0.00000000000E+00 0.  1.
</event>
<event>
 7    1  0.6443388E-006  0.8040842E+02  0.7818608E-02  0.1410537E+00
          2   -1    0    0  502    0  0.00000000000E+00  0.00000000000E+00  0.19755974315E+04  0.19755974315E+04  0.00000000000E+00 0. -1.
          1   -1    0    0  501    0 -0.00000000000E+00 -0.00000000000E+00 -0.92213115450E+02  0.92213115450E+02  0.00000000000E+00 0. -1.
         25    2    1    2    0    0 -0.20516345502E+02  0.10716320340E+03  0.40794764269E+03  0.44040021861E+03  0.12500480305E+03 0.  0.
          2    1    1    2  501    0  0.36891390960E+02 -0.70108854404E+02 -0.54996629089E+02  0.96440942571E+02  0.00000000000E+00 0. -1.
          1    1    1    2  502    0 -0.16375045458E+02 -0.37054349001E+02  0.15304333024E+04  0.15309693857E+04  0.00000000000E+00 0. -1.
         22    1    3    3    0    0 -0.44355303023E+02  0.10859027705E+03  0.39729688999E+03  0.41425120395E+03  0.00000000000E+00 0.  1.
         22    1    3    3    0    0  0.23838957521E+02 -0.14270736494E+01  0.10650752695E+02  0.26149014663E+02  0.00000000000E+00 0.  1.
</event>
<event>
 7    1  0.6443388E-006  0.1293696E+03  0.7818608E-02  0.1338541E+00
          2   -1    0    0  502    0  0.00000000000E+00  0.00000000000E+00  0.12343801898E+04  0.12343801898E+04  0.00000000000E+00 0. -1.
          1   -1    0    0  501    0 -0.00000000000E+00 -0.00000000000E+00 -0.11395602262E+04  0.11395602262E+04  0.00000000000E+00 0. -1.
         25    2    1    2    0    0  0.70839813564E+02  0.70095523730E+02  0.72812414004E+02  0.17566387639E+03  0.12499795279E+03 0.  0.
          2    1    1    2  501    0 -0.64959416041E+01  0.45065185793E+02 -0.10837358995E+04  0.10846919231E+04  0.00000000000E+00 0. -1.
          1    1    1    2  502    0 -0.64343871960E+02 -0.11516070952E+03  0.11057434491E+04  0.11135846165E+04  0.00000000000E+00 0. -1.
         22    1    3    3    0    0  0.91694184083E+02  0.37856341221E+02  0.69727143038E+01  0.99446190023E+02  0.00000000000E+00 0.  1.
         22    1    3    3    0    0 -0.20854370519E+02  0.32239182509E+02  0.65839699700E+02  0.76217686367E+02  0.00000000000E+00 0.  1.
</event>
<event>
 7    1  0.6443388E-006  0.1036474E+03  0.7818608E-02  0.1283635E+00
          2   -1    0    0  502    0  0.00000000000E+00  0.00000000000E+00  0.15285802625E+04  0.15285802625E+04  0.00000000000E+00 0. -1.
          1   -1    0    0  501    0 -0.00000000000E+00 -0.00000000000E+00 -0.35488135260E+03  0.35488135260E+03  0.00000000000E+00 0. -1.
         25    2    1    2    0    0  0.86206660519E+02  0.12635628172E+03 -0.52039113997E+02  0.20428023642E+03  0.12499938943E+03 0.  0.
          2    1    1    2  501    0  0.34689674300E+01 -0.99982674829E+02 -0.21409575780E+03  0.23631665728E+03  0.00000000000E+00 0. -1.
          1    1    1    2  502    0 -0.89675627949E+02 -0.26373606889E+02  0.14398337817E+04  0.14428647214E+04  0.00000000000E+00 0. -1.
         22    1    3    3    0    0  0.36462950775E+02  0.99629250770E+02  0.24771682887E+02  0.10894572346E+03  0.00000000000E+00 0. -1.
         22    1    3    3    0    0  0.49743709745E+02  0.26727030948E+02 -0.76810796884E+02  0.95334512955E+02  0.00000000000E+00 0. -1.
</event>
<event>
 7    1  0.6443388E-006  0.1641059E+03  0.7818608E-02  0.1296615E+00
          2   -1    0    0  502    0  0.00000000000E+00  0.00000000000E+00  0.80713443439E+03  0.80713443439E+03  0.00000000000E+00 0. -1.
          1   -1    0    0  501    0 -0.00000000000E+00 -0.00000000000E+00 -0.28569402674E+03  0.28569402674E+03  0.00000000000E+00 0. -1.
         25    2    1    2    0    0 -0.19873522758E+03 -0.71147997615E+02  0.27455496941E+03  0.36819445742E+03  0.12501599498E+03 0.  0.
          2    1    1    2  501    0  0.14699296482E+03  0.63667677682E+02 -0.21036057203E+03  0.26440891655E+03  0.00000000000E+00 0. -1.
          1    1    1    2  502    0  0.51742262759E+02  0.74803199327E+01  0.45724601027E+03  0.46022508716E+03  0.00000000000E+00 0. -1.
         22    1    3    3    0    0 -0.17661572087E+03 -0.10141019258E+03  0.20376417326E+03  0.28809196157E+03  0.00000000000E+00 0. -1.
         22    1    3    3    0    0 -0.22119506714E+02  0.30262194969E+02  0.70790796154E+02  0.80102495853E+02  0.00000000000E+00 0. -1.
</event>
<event>
 7    1  0.6443388E-006  0.1254002E+03  0.7818608E-02  0.1298532E+00
          2   -1    0    0  502    0  0.00000000000E+00  0.00000000000E+00  0.15539885605E+04  0.15539885605E+04  0.00000000000E+00 0. -1.
          1   -1    0    0  501    0 -0.00000000000E+00 -0.00000000000E+00 -0.16676738205E+03  0.16676738205E+03  0.00000000000E+00 0. -1.
         25    2    1    2    0    0  0.42260763383E+02  0.15213314990E+03 -0.55569207569E+02  0.20890834684E+03  0.12499717249E+03 0.  0.
          2    1    1    2  501    0 -0.60865471141E+02 -0.28516085297E+02  0.36769573374E+01  0.67314877354E+02  0.00000000000E+00 0. -1.
          1    1    1    2  502    0  0.18604707758E+02 -0.12361706460E+03  0.14391134287E+04  0.14445327184E+04  0.00000000000E+00 0. -1.
         22    1    3    3    0    0  0.65636836636E+02  0.24396480802E+02 -0.74403500988E+01  0.70418331482E+02  0.00000000000E+00 0.  1.
         22    1    3    3    0    0 -0.23376073254E+02  0.12773666910E+03 -0.48128857471E+02  0.13849001536E+03  0.00000000000E+00 0.  1.
</event>
<event>
 7    1  0.6443388E-006  0.4999280E+02  0.7818608E-02  0.1503352E+00
          2   -1    0    0  502    0  0.00000000000E+00  0.00000000000E+00  0.30032940999E+04  0.30032940999E+04  0.00000000000E+00 0. -1.
          1   -1    0    0  501    0 -0.00000000000E+00 -0.00000000000E+00 -0.11229211085E+03  0.11229211085E+03  0.00000000000E+00 0. -1.
         25    2    1    2    0    0 -0.54417028865E+01 -0.26231670010E+02  0.15750794134E+03  0.20285823124E+03  0.12499999101E+03 0.  0.
          2    1    1    2  501    0  0.26924992621E+02 -0.19222294657E+02 -0.86332101362E+02  0.92453683350E+02  0.00000000000E+00 0. -1.
          1    1    1    2  502    0 -0.21483289734E+02  0.45453964667E+02  0.28198261491E+04  0.28202742962E+04  0.00000000000E+00 0. -1.
         22    1    3    3    0    0 -0.47351128556E+02  0.29509304018E+02  0.89384211136E+02  0.10536823810E+03  0.00000000000E+00 0. -1.
         22    1    3    3    0    0  0.41909425669E+02 -0.55740974027E+02  0.68123730204E+02  0.97489993139E+02  0.00000000000E+00 0. -1.
</event>
<event>
 7    1  0.8082379E-006  0.1047579E+03  0.7818608E-02  0.1311645E+00
          2   -1    0    0  502    0  0.00000000000E+00  0.00000000000E+00  0.27017128672E+04  0.27017128672E+04  0.00000000000E+00 0. -1.
          1   -1    0    0  501    0 -0.00000000000E+00 -0.00000000000E+00 -0.46396507738E+03  0.46396507738E+03  0.00000000000E+00 0. -1.
         25    2    1    2    0    0 -0.13632164274E+03  0.10431802429E+03 -0.13696296244E+03  0.25268311834E+03  0.12499625891E+03 0.  0.
          2    1    1    2  501    0  0.66013567491E+02 -0.27118165389E+02 -0.26336002991E+03  0.27285837231E+03  0.00000000000E+00 0. -1.
          1    1    1    2  502    0  0.70308075254E+02 -0.77199858899E+02  0.26380707821E+04  0.26401364539E+04  0.00000000000E+00 0. -1.
         22    1    3    3    0    0 -0.10638392791E+03  0.11770856965E+03 -0.14908991084E+03  0.21771690104E+03  0.00000000000E+00 0. -1.
         22    1    3    3    0    0 -0.29937714833E+02 -0.13390545361E+02  0.12126948398E+02  0.34966217295E+02  0.00000000000E+00 0. -1.
</event>
<event>
 7    1  0.6443388E-006  0.5246154E+02  0.7818608E-02  0.1520857E+00
          2   -1    0    0  502    0  0.00000000000E+00  0.00000000000E+00  0.87789068495E+03  0.87789068495E+03  0.00000000000E+00 0. -1.
          1   -1    0    0  501    0 -0.00000000000E+00 -0.00000000000E+00 -0.37612102630E+02  0.37612102630E+02  0.00000000000E+00 0. -1.
         25    2    1    2    0    0 -0.19915290052E+02  0.70434949700E+02  0.53363844671E+03  0.55294510079E+03  0.12498236581E+03 0.  0.
          2    1    1    2  501    0 -0.86270840142E+00 -0.51653775029E+02 -0.29101600277E+01  0.51742881365E+02  0.00000000000E+00 0. -1.
          1    1    1    2  502    0  0.20777998454E+02 -0.18781174671E+02  0.30955029564E+03  0.31081480543E+03  0.00000000000E+00 0. -1.
         22    1    3    3    0    0 -0.63792963548E+02  0.36365301787E+01  0.27009069445E+03  0.27754594174E+03  0.00000000000E+00 0. -1.
         22    1    3    3    0    0  0.43877673495E+02  0.66798419522E+02  0.26354775226E+03  0.27539915905E+03  0.00000000000E+00 0. -1.
</event>
<event>
 7    1  0.6443388E-006  0.6638388E+02  0.7818608E-02  0.1513506E+00
          2   -1    0    0  502    0  0.00000000000E+00  0.00000000000E+00  0.22512894037E+03  0.22512894037E+03  0.00000000000E+00 0. -1.
          1   -1    0    0  501    0 -0.00000000000E+00 -0.00000000000E+00 -0.18838992611E+04  0.18838992611E+04  0.00000000000E+00 0. -1.
         25    2    1    2    0    0  0.48407258930E+02 -0.45158673671E+02 -0.12086844231E+03  0.18606751712E+03  0.12501748701E+03 0.  0.
          2    1    1    2  501    0 -0.18394602737E+02 -0.14225673298E+02 -0.17246017481E+04  0.17247585109E+04  0.00000000000E+00 0. -1.
          1    1    1    2  502    0 -0.30012656193E+02  0.59384346969E+02  0.18669986974E+03  0.19820217344E+03  0.00000000000E+00 0. -1.
         22    1    3    3    0    0  0.89845524499E+02 -0.34615940834E+02 -0.98775792541E+02  0.13793889526E+03  0.00000000000E+00 0.  1.
         22    1    3    3    0    0 -0.41438265569E+02 -0.10542732836E+02 -0.22092649766E+02  0.48128621866E+02  0.00000000000E+00 0.  1.
</event>
<event>
 7    1  0.6443388E-006  0.1210771E+03  0.7818608E-02  0.1322369E+00
          2   -1    0    0  502    0  0.00000000000E+00  0.00000000000E+00  0.10753052159E+04  0.10753052159E+04  0.00000000000E+00 0. -1.
          1   -1    0    0  501    0 -0.00000000000E+00 -0.00000000000E+00 -0.14036995597E+03  0.14036995597E+03  0.00000000000E+00 0. -1.
         25    2    1    2    0    0 -0.48997619534E+02  0.14582687797E+03  0.30231046773E+03  0.36150089904E+03  0.12500014419E+03 0.  0.
          2    1    1    2  501    0 -0.20860155301E+02 -0.52057157010E+02 -0.98721804142E+02  0.11353892851E+03  0.00000000000E+00 0. -1.
          1    1    1    2  502    0  0.69857774835E+02 -0.93769720958E+02  0.73134659639E+03  0.74063534437E+03  0.00000000000E+00 0. -1.
         22    1    3    3    0    0 -0.81661862472E+02  0.96965020515E+02  0.13995313039E+03  0.18883260760E+03  0.00000000000E+00 0. -1.
         22    1    3    3    0    0  0.32664242938E+02  0.48861857453E+02  0.16235733734E+03  0.17266829144E+03  0.00000000000E+00 0. -1.
</event>
<event>
 7    1  0.6443388E-006  0.1202491E+03  0.7818608E-02  0.1359560E+00
          2   -1    0    0  502    0  0.00000000000E+00  0.00000000000E+00  0.11262414400E+03  0.11262414400E+03  0.00000000000E+00 0. -1.
          1   -1    0    0  501    0 -0.00000000000E+00 -0.00000000000E+00 -0.80507487974E+03  0.80507487974E+03  0.00000000000E+00 0. -1.
         25    2    1    2    0    0  0.75519669788E+02  0.99525722555E+02 -0.43439944227E+03  0.46897508084E+03  0.12500464402E+03 0.  0.
          2    1    1    2  501    0  0.24619597626E+02 -0.32699957109E+02 -0.31351302237E+03  0.31617372910E+03  0.00000000000E+00 0. -1.
          1    1    1    2  502    0 -0.10013926741E+03 -0.66825765446E+02  0.55461728896E+02  0.13255021380E+03  0.00000000000E+00 0. -1.
         22    1    3    3    0    0  0.79523863947E+02  0.74968472205E+02 -0.43004543228E+03  0.44371543875E+03  0.00000000000E+00 0. -1.
         22    1    3    3    0    0 -0.40041941592E+01  0.24557250350E+02 -0.43540099974E+01  0.25259642093E+02  0.00000000000E+00 0. -1.
</event>
<event>
 7    1  0.6443388E-006  0.5685857E+02  0.7818608E-02  0.1414286E+00
          2   -1    0    0  502    0  0.00000000000E+00  0.00000000000E+00  0.39508676044E+03  0.39508676044E+03  0.00000000000E+00 0. -1.
          1   -1    0    0  501    0 -0.00000000000E+00 -0.00000000000E+00 -0.18251400442E+03  0.18251400442E+03  0.00000000000E+00 0. -1.
         25    2    1    2    0    0  0.13688872305E+01 -0.44185052138E+02  0.13406981199E+03  0.18856103474E+03  0.12500542649E+03 0.  0.
          2    1    1    2  501    0 -0.54750757728E+02  0.15337911987E+02 -0.14589488034E+03  0.15658292731E+03  0.00000000000E+00 0. -1.
          1    1    1    2  502    0  0.53381870498E+02  0.28847140151E+02  0.22439782437E+03  0.23245680281E+03  0.00000000000E+00 0. -1.
         22    1    3    3    0    0 -0.70485311305E+01  0.42878340004E+02  0.59126111492E+02  0.73376637241E+02  0.00000000000E+00 0. -1.
         22    1    3    3    0    0  0.84174183609E+01 -0.87063392142E+02  0.74943700494E+02  0.11518439750E+03  0.00000000000E+00 0. -1.
</event>
<event>
 7    1  0.6443388E-006  0.1413206E+03  0.7818608E-02  0.1323421E+00
          2   -1    0    0  502    0  0.00000000000E+00  0.00000000000E+00  0.81480371639E+03  0.81480371639E+03  0.00000000000E+00 0. -1.
          1   -1    0    0  501    0 -0.00000000000E+00 -0.00000000000E+00 -0.36666202461E+03  0.36666202461E+03  0.00000000000E+00 0. -1.
         25    2    1    2    0    0  0.21505072213E+02  0.10905620852E+03  0.15276734533E+02  0.16796708876E+03  0.12499535808E+03 0.  0.
          2    1    1    2  501    0  0.58882187839E+01 -0.14798432246E+03 -0.27057202392E+03  0.30845299632E+03  0.00000000000E+00 0. -1.
          1    1    1    2  502    0 -0.27393290997E+02  0.38928113938E+02  0.70343698117E+03  0.70504565591E+03  0.00000000000E+00 0. -1.
         22    1    3    3    0    0  0.62490911712E+02  0.18615716839E+02  0.21014222678E+02  0.68507346429E+02  0.00000000000E+00 0. -1.
         22    1    3    3    0    0 -0.40985839498E+02  0.90440491683E+02 -0.57374881451E+01  0.99459742336E+02  0.00000000000E+00 0. -1.
</event>
<event>
 7    1  0.6443388E-006  0.7439227E+02  0.7818608E-02  0.1382098E+00
          2   -1    0    0  502    0  0.00000000000E+00  0.00000000000E+00  0.74378829909E+03  0.74378829909E+03  0.00000000000E+00 0. -1.
          1   -1    0    0  501    0 -0.00000000000E+00 -0.00000000000E+00 -0.29037121215E+03  0.29037121215E+03  0.00000000000E+00 0. -1.
         25    2    1    2    0    0  0.22774890979E+02  0.20807456923E+02  0.14593351156E+03  0.19460992490E+03  0.12499914860E+03 0.  0.
          2    1    1    2  501    0 -0.75731151732E+02 -0.62746094684E+01 -0.25925210878E+03  0.27015964535E+03  0.00000000000E+00 0. -1.
          1    1    1    2  502    0  0.52956260753E+02 -0.14532847454E+02  0.56673568415E+03  0.56938994099E+03  0.00000000000E+00 0. -1.
         22    1    3    3    0    0  0.28933042717E+02  0.42928169651E+01 -0.14891248280E+02  0.32822225911E+02  0.00000000000E+00 0.  1.
         22    1    3    3    0    0 -0.61581517383E+01  0.16514639958E+02  0.16082475984E+03  0.16178769899E+03  0.00000000000E+00 0.  1.
</event>
<event>
 7    1  0.6443388E-006  0.7395049E+02  0.7818608E-02  0.1445566E+00
          2   -1    0    0  502    0  0.00000000000E+00  0.00000000000E+00  0.16627201176E+04  0.16627201176E+04  0.00000000000E+00 0. -1.
          1   -1    0    0  501    0 -0.00000000000E+00 -0.00000000000E+00 -0.37560545289E+03  0.37560545289E+03  0.00000000000E+00 0. -1.
         25    2    1    2    0    0 -0.95182473961E+02 -0.17201223862E+01  0.31772282451E+03  0.35445523373E+03  0.12501222872E+03 0.  0.
          2    1    1    2  501    0  0.25179746320E+02  0.22473260452E+02 -0.35543463496E+03  0.35703339731E+03  0.00000000000E+00 0. -1.
          1    1    1    2  502    0  0.70002727642E+02 -0.20753138066E+02  0.13248264752E+04  0.13268369395E+04  0.00000000000E+00 0. -1.
         22    1    3    3    0    0 -0.68161001440E+02 -0.37164509831E+02  0.75945068202E+02  0.10860375819E+03  0.00000000000E+00 0.  1.
         22    1    3    3    0    0 -0.27021472521E+02  0.35444387445E+02  0.24177775631E+03  0.24585147554E+03  0.00000000000E+00 0.  1.
</event>
<event>
 7    1  0.6443388E-006  0.3283718E+02  0.7818608E-02  0.1582466E+00
          2   -1    0    0  502    0  0.00000000000E+00  0.00000000000E+00  0.15022508498E+04  0.15022508498E+04  0.00000000000E+00 0. -1.
          1   -1    0    0  501    0 -0.00000000000E+00 -0.00000000000E+00 -0.54585621671E+03  0.54585621671E+03  0.00000000000E+00 0. -1.
         25    2    1    2    0    0  0.22800438246E+02 -0.47618861102E+02  0.73246914468E+03  0.74493207069E+03  0.12500130442E+03 0.  0.
          2    1    1    2  501    0  0.33685581244E+01  0.32655650162E+02 -0.53882745401E+03  0.53982660537E+03  0.00000000000E+00 0. -1.
          1    1    1    2  502    0 -0.26168996370E+02  0.14963210940E+02  0.76275294238E+03  0.76334839042E+03  0.00000000000E+00 0. -1.
         22    1    3    3    0    0  0.52999630240E+02  0.23213916718E+02  0.35564089382E+03  0.36031693284E+03  0.00000000000E+00 0. -1.
         22    1    3    3    0    0 -0.30199191994E+02 -0.70832777820E+02  0.37682825086E+03  0.38461513784E+03  0.00000000000E+00 0. -1.
</event>
<event>
 7    1  0.6578474E-006  0.5000712E+02  0.7818608E-02  0.1449901E+00
          2   -1    0    0  502    0  0.00000000000E+00  0.00000000000E+00  0.23156262149E+04  0.23156262149E+04  0.00000000000E+00 0. -1.
          1   -1    0    0  501    0 -0.00000000000E+00 -0.00000000000E+00 -0.15717304071E+04  0.15717304071E+04  0.00000000000E+00 0. -1.
         25    2    1    2    0    0  0.37924916056E+02 -0.85715643421E+02 -0.45973721023E+02  0.16286051477E+03  0.12499797383E+03 0.  0.
          2    1    1    2  501    0 -0.32423814253E+02  0.37693858970E+02 -0.14666331976E+04  0.14674757467E+04  0.00000000000E+00 0. -1.
          1    1    1    2  502    0 -0.55011018032E+01  0.48021784451E+02  0.22565027264E+04  0.22570203606E+04  0.00000000000E+00 0. -1.
         22    1    3    3    0    0  0.75614542018E+02 -0.47852029653E+02 -0.59861661118E+02  0.10766055071E+03  0.00000000000E+00 0. -1.
         22    1    3    3    0    0 -0.37689625962E+02 -0.37863613769E+02  0.13887940095E+02  0.55199964066E+02  0.00000000000E+00 0. -1.
</event>
<event>
 7    1  0.6443388E-006  0.6072593E+02  0.7818608E-02  0.1489690E+00
          2   -1    0    0  502    0  0.00000000000E+00  0.00000000000E+00  0.59345685603E+03  0.59345685603E+03  0.00000000000E+00 0. -1.
          1   -1    0    0  501    0 -0.00000000000E+00 -0.00000000000E+00 -0.10053778301E+03  0.10053778301E+03  0.00000000000E+00 0. -1.
         25    2    1    2    0    0  0.43051790652E+02  0.43801641504E+02  0.43576240034E+03  0.45747879746E+03  0.12500376032E+03 0.  0.
          2    1    1    2  501    0 -0.24883170325E+02  0.16631194017E+02 -0.80066745997E+02  0.85477790065E+02  0.00000000000E+00 0. -1.
          1    1    1    2  502    0 -0.18168620327E+02 -0.60432835521E+02  0.13722341868E+03  0.15103805152E+03  0.00000000000E+00 0. -1.
         22    1    3    3    0    0  0.43494035550E+02  0.24831464182E+02  0.48388279171E+02  0.69640206080E+02  0.00000000000E+00 0.  1.
         22    1    3    3    0    0 -0.44224489749E+00  0.18970177322E+02  0.38737412117E+03  0.38783859138E+03  0.00000000000E+00 0.  1.
</event>
<event>
 7    1  0.6443388E-006  0.1076061E+03  0.7818608E-02  0.1308566E+00
          2   -1    0    0  502    0  0.00000000000E+00  0.00000000000E+00  0.61560292607E+03  0.61560292607E+03  0.00000000000E+00 0. -1.
          1   -1    0    0  501    0 -0.00000000000E+00 -0.00000000000E+00 -0.78226381787E+03  0.78226381787E+03  0.00000000000E+00 0. -1.
         25    2    1    2    0    0 -0.51091472078E+02 -0.10795095427E+02 -0.89242474088E+02  0.16222489418E+03  0.12500329798E+03 0.  0.
          2    1    1    2  501    0  0.11349432774E+03 -0.23995200390E+02 -0.64916521330E+03  0.65944841059E+03  0.00000000000E+00 0. -1.
          1    1    1    2  502    0 -0.62402855666E+02  0.34790295817E+02  0.57174679559E+03  0.57619343917E+03  0.00000000000E+00 0. -1.
         22    1    3    3    0    0 -0.39190551748E+01  0.38378927141E+02  0.11808570531E+02  0.40345301833E+02  0.00000000000E+00 0.  1.
         22    1    3    3    0    0 -0.47172416903E+02 -0.49174022569E+02 -0.10105104462E+03  0.12187959235E+03  0.00000000000E+00 0.  1.
</event>
<event>
 7    1  0.6443388E-006  0.9936286E+02  0.7818608E-02  0.1370679E+00
          2   -1    0    0  502    0  0.00000000000E+00  0.00000000000E+00  0.11273174928E+04  0.11273174928E+04  0.00000000000E+00 0. -1.
          1   -1    0    0  501    0 -0.00000000000E+00 -0.00000000000E+00 -0.17103144250E+04  0.17103144250E+04  0.00000000000E+00 0. -1.
         25    2    1    2    0    0 -0.19957582980E+02  0.11922505305E+03  0.43606068157E+03  0.46945378810E+03  0.12500009104E+03 0.  0.
          2    1    1    2  501    0  0.50197999445E+02 -0.85699619372E+02 -0.16914040230E+04  0.16943175124E+04  0.00000000000E+00 0. -1.
          1    1    1    2  502    0 -0.30240416465E+02 -0.33525433680E+02  0.67234640926E+03  0.67386061729E+03  0.00000000000E+00 0. -1.
         22    1    3    3    0    0  0.98158827790E+01  0.50342840525E+02  0.35617927145E+03  0.35985334035E+03  0.00000000000E+00 0. -1.
         22    1    3    3    0    0 -0.29773465759E+02  0.68882212528E+02  0.79881410116E+02  0.10960044776E+03  0.00000000000E+00 0. -1.
</event>
<event>
 7    1  0.6443388E-006  0.6253925E+02  0.7818608E-02  0.1531946E+00
          2   -1    0    0  502    0  0.00000000000E+00  0.00000000000E+00  0.78582327452E+03  0.78582327452E+03  0.00000000000E+00 0. -1.
          1   -1    0    0  501    0 -0.00000000000E+00 -0.00000000000E+00 -0.25691189274E+02  0.25691189274E+02  0.00000000000E+00 0. -1.
         25    2    1    2    0    0  0.68011367055E+02  0.32324429817E+02  0.47684107266E+03  0.49867090669E+03  0.12499939918E+03 0.  0.
          2    1    1    2  501    0 -0.47169238316E+02 -0.38815855697E+02  0.51137226048E+02  0.79665698922E+02  0.00000000000E+00 0. -1.
          1    1    1    2  502    0 -0.20842128740E+02  0.64914258797E+01  0.23215378654E+03  0.23317785818E+03  0.00000000000E+00 0. -1.
         22    1    3    3    0    0 -0.36129496499E+02  0.17446701258E+02  0.15291412571E+03  0.15809003050E+03  0.00000000000E+00 0.  1.
         22    1    3    3    0    0  0.10414086355E+03  0.14877728559E+02  0.32392694694E+03  0.34058087619E+03  0.00000000000E+00 0.  1.
</event>
<event>
 7    1  0.6443388E-006  0.4602709E+02  0.7818608E-02  0.1517693E+00
          2   -1    0    0  502    0  0.00000000000E+00  0.00000000000E+00  0.33718344474E+03  0.33718344474E+03  0.00000000000E+00 0. -1.
          1   -1    0    0  501    0 -0.00000000000E+00 -0.00000000000E+00 -0.58145745184E+03  0.58145745184E+03  0.00000000000E+00 0. -1.
         25    2    1    2    0    0 -0.37583690888E+02 -0.25479530866E+02 -0.44912337299E+01  0.13306557384E+03  0.12499814177E+03 0.  0.
          2    1    1    2  501    0  0.11326055871E+02  0.44812066567E+02 -0.51065752906E+03  0.51274507588E+03  0.00000000000E+00 0. -1.
          1    1    1    2  502    0  0.26257635017E+02 -0.19332535700E+02  0.27087475569E+03  0.27283024686E+03  0.00000000000E+00 0. -1.
         22    1    3    3    0    0 -0.22021581262E+02  0.21855560758E+02 -0.54346453305E+02  0.62579170369E+02  0.00000000000E+00 0. -1.
         22    1    3    3    0    0 -0.15562109626E+02 -0.47335091624E+02  0.49855219575E+02  0.70486403468E+02  0.00000000000E+00 0. -1.
</event>
<event>
 7    1  0.6443388E-006  0.4291024E+02  0.7818608E-02  0.1592405E+00
          2   -1    0    0  502    0  0.00000000000E+00  0.00000000000E+00  0.21568678396E+04  0.21568678396E+04  0.00000000000E+00 0. -1.
          1   -1    0    0  501    0 -0.00000000000E+00 -0.00000000000E+00 -0.13222206755E+03  0.13222206755E+03  0.00000000000E+00 0. -1.
         25    2    1    2    0    0 -0.58117534011E+02  0.14021411195E+02  0.27451208423E+03  0.30749994819E+03  0.12500034408E+03 0.  0.
          2    1    1    2  501    0  0.15444633428E+02 -0.15254715602E+02 -0.11446366264E+03  0.11650396180E+03  0.00000000000E+00 0. -1.
          1    1    1    2  502    0  0.42672900583E+02  0.12333044068E+01  0.18645973504E+04  0.18650859972E+04  0.00000000000E+00 0. -1.
         22    1    3    3    0    0  0.12929476559E+02  0.52318260930E+02  0.75652471379E+02  0.92885242190E+02  0.00000000000E+00 0.  1.
         22    1    3    3    0    0 -0.71047010570E+02 -0.38296849735E+02  0.19885961285E+03  0.21461470600E+03  0.00000000000E+00 0.  1.
</event>
<event>
 7    1  0.6443388E-006  0.4697383E+02  0.7818608E-02  0.1494438E+00
          2   -1    0    0  502    0  0.00000000000E+00  0.00000000000E+00  0.16670525020E+04  0.16670525020E+04  0.00000000000E+00 0. -1.
          1   -1    0    0  501    0 -0.00000000000E+00 -0.00000000000E+00 -0.43123518817E+03  0.43123518817E+03  0.00000000000E+00 0. -1.
         25    2    1    2    0    0 -0.15648315716E+02 -0.49158586731E+02  0.52798404715E+03  0.54502443164E+03  0.12499216217E+03 0.  0.
          2    1    1    2  501    0 -0.26228296222E+02  0.26712207531E+02 -0.42138559814E+03  0.42304525511E+03  0.00000000000E+00 0. -1.
          1    1    1    2  502    0  0.41876611937E+02  0.22446379200E+02  0.11292188648E+04  0.11302180034E+04  0.00000000000E+00 0. -1.
         22    1    3    3    0    0 -0.64021394854E+02 -0.66912346647E+01  0.34734556077E+03  0.35325974892E+03  0.00000000000E+00 0. -1.
         22    1    3    3    0    0  0.48373079138E+02 -0.42467352066E+02  0.18063848638E+03  0.19176468272E+03  0.00000000000E+00 0. -1.
</event>
<event>
 7    1  0.6443388E-006  0.1112921E+03  0.7818608E-02  0.1390089E+00
          2   -1    0    0  502    0  0.00000000000E+00  0.00000000000E+00  0.15998541733E+04  0.15998541733E+04  0.00000000000E+00 0. -1.
          1   -1    0    0  501    0 -0.00000000000E+00 -0.00000000000E+00 -0.28101391135E+03  0.28101391135E+03  0.00000000000E+00 0. -1.
         25    2    1    2    0    0  0.74180294357E+02  0.56338441075E+02  0.66881139416E+02  0.16962746083E+03  0.12499461046E+03 0.  0.
          2    1    1    2  501    0 -0.10563463441E+03 -0.42382589830E+02 -0.21532311337E+03  0.24355492822E+03  0.00000000000E+00 0. -1.
          1    1    1    2  502    0  0.31454340052E+02 -0.13955851245E+02  0.14672822359E+04  0.14676856956E+04  0.00000000000E+00 0. -1.
         22    1    3    3    0    0  0.59225814700E+02 -0.12615068797E+02 -0.14147470320E+02  0.62185110791E+02  0.00000000000E+00 0.  1.
         22    1    3    3    0    0  0.14954479657E+02  0.68953509872E+02  0.81028609736E+02  0.10744235004E+03  0.00000000000E+00 0.  1.
</event>
<event>
 7    1  0.6443388E-006  0.5880116E+02  0.7818608E-02  0.1433220E+00
          2   -1    0    0  502    0  0.00000000000E+00  0.00000000000E+00  0.53247073910E+03  0.53247073910E+03  0.00000000000E+00 0. -1.
          1   -1    0    0  501    0 -0.00000000000E+00 -0.00000000000E+00 -0.24501108107E+03  0.24501108107E+03  0.00000000000E+00 0. -1.
         25    2    1    2    0    0 -0.92210890639E+02 -0.23317623834E+02  0.63962119976E+02  0.16959594388E+03  0.12500028582E+03 0.  0.
          2    1    1    2  501    0  0.46826917533E+02  0.33678202256E+02 -0.18651959324E+03  0.19523457730E+03  0.00000000000E+00 0. -1.
          1    1    1    2  502    0  0.45383973106E+02 -0.10360578422E+02  0.41001713130E+03  0.41265129899E+03  0.00000000000E+00 0. -1.
         22    1    3    3    0    0 -0.11623996348E+03 -0.39033969635E+02  0.68611632098E+02  0.14050955823E+03  0.00000000000E+00 0. -1.
         22    1    3    3    0    0  0.24029072841E+02  0.15716345801E+02 -0.46495121224E+01  0.29086385645E+02  0.00000000000E+00 0. -1.
</event>
<event>
 7    1  0.6443388E-006  0.5332636E+02  0.7818608E-02  0.1541584E+00
          2   -1    0    0  502    0  0.00000000000E+00  0.00000000000E+00  0.38050435075E+03  0.38050435075E+03  0.00000000000E+00 0. -1.
          1   -1    0    0  501    0 -0.00000000000E+00 -0.00000000000E+00 -0.87284512639E+03  0.87284512639E+03  0.00000000000E+00 0. -1.
         25    2    1    2    0    0 -0.31782102141E+02 -0.55084168043E+02  0.69863784610E+02  0.15668423181E+03  0.12499853005E+03 0.  0.
          2    1    1    2  501    0  0.41688011927E+02  0.33182367648E+02 -0.82803635458E+03  0.82974885620E+03  0.00000000000E+00 0. -1.
          1    1    1    2  502    0 -0.99059097853E+01  0.21901800395E+02  0.26583179433E+03  0.26691638913E+03  0.00000000000E+00 0. -1.
         22    1    3    3    0    0 -0.26724727306E+02 -0.82361117245E+02  0.56951631143E+01  0.86775570101E+02  0.00000000000E+00 0.  1.
         22    1    3    3    0    0 -0.50573748355E+01  0.27276949202E+02  0.64168621495E+02  0.69908661714E+02  0.00000000000E+00 0.  1.
</event>
<event>
 7    1  0.6443388E-006  0.8947390E+02  0.7818608E-02  0.1489834E+00
          2   -1    0    0  502    0  0.00000000000E+00  0.00000000000E+00  0.11940003044E+04  0.11940003044E+04  0.00000000000E+00 0. -1.
          1   -1    0    0  501    0 -0.00000000000E+00 -0.00000000000E+00 -0.20403291936E+03  0.20403291936E+03  0.00000000000E+00 0. -1.
         25    2    1    2    0    0 -0.92681718465E+02  0.94529598489E+01  0.14941143038E+03  0.21593570370E+03  0.12500077287E+03 0.  0.
          2    1    1    2  501    0  0.84818698551E+02 -0.28160363832E+02 -0.15896784720E+03  0.18236774430E+03  0.00000000000E+00 0. -1.
          1    1    1    2  502    0  0.78630199139E+01  0.18707403983E+02  0.99952380190E+03  0.99972977580E+03  0.00000000000E+00 0. -1.
         22    1    3    3    0    0 -0.80689641599E+02 -0.43864486519E+02  0.55580902712E+02  0.10735058540E+03  0.00000000000E+00 0. -1.
         22    1    3    3    0    0 -0.11992076867E+02  0.53317446368E+02  0.93830527667E+02  0.10858511830E+03  0.00000000000E+00 0. -1.
</event>
<event>
 7    1  0.6443388E-006  0.4196450E+02  0.7818608E-02  0.1548458E+00
          2   -1    0    0  502    0  0.00000000000E+00  0.00000000000E+00  0.14046038860E+04  0.14046038860E+04  0.00000000000E+00 0. -1.
          1   -1    0    0  501    0 -0.00000000000E+00 -0.00000000000E+00 -0.28940623974E+03  0.28940623974E+03  0.00000000000E+00 0. -1.
         25    2    1    2    0    0 -0.48333106795E+01  0.46839424051E+02  0.65091428736E+02  0.14858670321E+03  0.12499528686E+03 0.  0.
          2    1    1    2  501    0 -0.22182976950E+02 -0.35711923176E+02 -0.24570859734E+03  0.24927924248E+03  0.00000000000E+00 0. -1.
          1    1    1    2  502    0  0.27016287630E+02 -0.11127500875E+02  0.12958148148E+04  0.12961441800E+04  0.00000000000E+00 0. -1.
         22    1    3    3    0    0  0.33506113181E+02 -0.16147871978E+02 -0.14651672639E+02  0.39976054096E+02  0.00000000000E+00 0. -1.
         22    1    3    3    0    0 -0.38339423861E+02  0.62987296029E+02  0.79743101375E+02  0.10861064911E+03  0.00000000000E+00 0. -1.
</event>
<event>
 7    1  0.6443388E-006  0.1381916E+03  0.7818608E-02  0.1304188E+00
          2   -1    0    0  502    0  0.00000000000E+00  0.00000000000E+00  0.18987597562E+04  0.18987597562E+04  0.00000000000E+00 0. -1.
          1   -1    0    0  501    0 -0.00000000000E+00 -0.00000000000E+00 -0.23989104020E+03  0.23989104020E+03  0.00000000000E+00 0. -1.
         25    2    1    2    0    0 -0.89399956975E+02 -0.10536656561E+02  0.94918268234E+02  0.18093604846E+03  0.12500001020E+03 0.  0.
          2    1    1    2  501    0  0.14688855661E+03  0.17431126067E+02 -0.16854687123E+03  0.22425017284E+03  0.00000000000E+00 0. -1.
          1    1    1    2  502    0 -0.57488599634E+02 -0.68944695065E+01  0.17324973190E+04  0.17334645751E+04  0.00000000000E+00 0. -1.
         22    1    3    3    0    0  0.27196157116E+02 -0.22903817017E+02  0.12801666009E+02  0.37790189843E+02  0.00000000000E+00 0.  1.
         22    1    3    3    0    0 -0.11659611409E+03  0.12367160456E+02  0.82116602225E+02  0.14314585862E+03  0.00000000000E+00 0.  1.
</event>
<event>
 7    1  0.6443388E-006  0.5310588E+02  0.7818608E-02  0.1562147E+00
          2   -1    0    0  502    0  0.00000000000E+00  0.00000000000E+00  0.13990609428E+04  0.13990609428E+04  0.00000000000E+00 0. -1.
          1   -1    0    0  501    0 -0.00000000000E+00 -0.00000000000E+00 -0.16199404034E+02  0.16199404034E+02  0.00000000000E+00 0. -1.
         25    2    1    2    0    0 -0.51648448411E+02  0.12158811704E+02  0.65600872455E+03  0.66991674189E+03  0.12500238179E+03 0.  0.
          2    1    1    2  501    0 -0.12348860174E+01 -0.21121853309E+02  0.53155293498E+01  0.21815418468E+02  0.00000000000E+00 0. -1.
          1    1    1    2  502    0  0.52883334428E+02  0.89630416047E+01  0.72153728491E+03  0.72352818652E+03  0.00000000000E+00 0. -1.
         22    1    3    3    0    0 -0.53485989559E+02 -0.28905010116E+02  0.58276005357E+03  0.58592280270E+03  0.00000000000E+00 0.  1.
         22    1    3    3    0    0  0.18375411485E+01  0.41063821820E+02  0.73248670978E+02  0.83993939186E+02  0.00000000000E+00 0.  1.
</event>
<event>
 7    1  0.6443388E-006  0.1418053E+03  0.7818608E-02  0.1229464E+00
          2   -1    0    0  502    0  0.00000000000E+00  0.00000000000E+00  0.24290743571E+03  0.24290743571E+03  0.00000000000E+00 0. -1.
          1   -1    0    0  501    0 -0.00000000000E+00 -0.00000000000E+00 -0.12804642091E+04  0.12804642091E+04  0.00000000000E+00 0. -1.
         25    2    1    2    0    0  0.14137947940E+03 -0.18869585769E+03  0.56126169428E+02  0.27270584998E+03  0.12499619919E+03 0.  0.
          2    1    1    2  501    0 -0.11835654760E+03  0.74263270945E+02 -0.11219085524E+04  0.11305760062E+04  0.00000000000E+00 0. -1.
          1    1    1    2  502    0 -0.23022931802E+02  0.11443258675E+03  0.28225609603E+02  0.12008978864E+03  0.00000000000E+00 0. -1.
         22    1    3    3    0    0  0.38459689038E+02 -0.40847046189E+01 -0.25284543834E+02  0.46207582166E+02  0.00000000000E+00 0. -1.
         22    1    3    3    0    0  0.10291979036E+03 -0.18461115307E+03  0.81410713262E+02  0.22649826781E+03  0.00000000000E+00 0. -1.
</event>
<event>
 7    1  0.6443388E-006  0.5645591E+02  0.7818608E-02  0.1415194E+00
          2   -1    0    0  502    0  0.00000000000E+00  0.00000000000E+00  0.39968668254E+03  0.39968668254E+03  0.00000000000E+00 0. -1.
          1   -1    0    0  501    0 -0.00000000000E+00 -0.00000000000E+00 -0.12395221132E+04  0.12395221132E+04  0.00000000000E+00 0. -1.
         25    2    1    2    0    0 -0.95889901252E+02 -0.12942888615E+02 -0.18390959483E+03  0.24250769872E+03  0.12499941335E+03 0.  0.
          2    1    1    2  501    0  0.51390511133E+02 -0.21349179961E+02 -0.10234228977E+04  0.10249347294E+04  0.00000000000E+00 0. -1.
          1    1    1    2  502    0  0.44499390119E+02  0.34292068575E+02  0.36749706178E+03  0.37176636764E+03  0.00000000000E+00 0. -1.
         22    1    3    3    0    0 -0.10947107632E+03  0.28669674645E+02 -0.11898202414E+03  0.16420288933E+03  0.00000000000E+00 0. -1.
         22    1    3    3    0    0  0.13581175073E+02 -0.41612563259E+02 -0.64927570690E+02  0.78304809386E+02  0.00000000000E+00 0. -1.
</event>
<event>
 7    1  0.6443388E-006  0.5493508E+02  0.7818608E-02  0.1495833E+00
          2   -1    0    0  502    0  0.00000000000E+00  0.00000000000E+00  0.13927306892E+04  0.13927306892E+04  0.00000000000E+00 0. -1.
          1   -1    0    0  501    0 -0.00000000000E+00 -0.00000000000E+00 -0.43703260215E+02  0.43703260215E+02  0.00000000000E+00 0. -1.
         25    2    1    2    0    0  0.21055792270E+01  0.52935221518E+02  0.11911814235E+03  0.18061620940E+03  0.12500604833E+03 0.  0.
          2    1    1    2  501    0  0.30547137025E+02 -0.84844645433E+01  0.80438106615E+01  0.32708051133E+02  0.00000000000E+00 0. -1.
          1    1    1    2  502    0 -0.32652716251E+02 -0.44450756975E+02  0.12218654760E+04  0.12231096889E+04  0.00000000000E+00 0. -1.
         22    1    3    3    0    0 -0.85130894553E+01  0.80657947341E+02  0.12627539754E+03  0.15007882324E+03  0.00000000000E+00 0.  1.
         22    1    3    3    0    0  0.10618668682E+02 -0.27722725823E+02 -0.71572551839E+01  0.30537386159E+02  0.00000000000E+00 0.  1.
</event>
<event>
 7    1  0.1012607E-005  0.5564914E+02  0.7818608E-02  0.1474504E+00
          2   -1    0    0  502    0  0.00000000000E+00  0.00000000000E+00  0.13880537502E+04  0.13880537502E+04  0.00000000000E+00 0. -1.
          1   -1    0    0  501    0 -0.00000000000E+00 -0.00000000000E+00 -0.12046929457E+04  0.12046929457E+04  0.00000000000E+00 0. -1.
         25    2    1    2    0    0  0.22450022593E+02  0.48890526894E+01 -0.11113838946E+03  0.16883296289E+03  0.12499968559E+03 0.  0.
          2    1    1    2  501    0 -0.46552673845E+02 -0.32094548404E+02 -0.10637132515E+04  0.10652150454E+04  0.00000000000E+00 0. -1.
          1    1    1    2  502    0  0.24102651252E+02  0.27205495715E+02  0.13582124455E+04  0.13586986876E+04  0.00000000000E+00 0. -1.
         22    1    3    3    0    0 -0.51584632294E+02 -0.67770583463E+01 -0.41984409266E+02  0.66855017988E+02  0.00000000000E+00 0. -1.
         22    1    3    3    0    0  0.74034654888E+02  0.11666111036E+02 -0.69153980190E+02  0.10197794491E+03  0.00000000000E+00 0. -1.
</event>
<event>
 7    1  0.6443388E-006  0.1480977E+03  0.7818608E-02  0.1338977E+00
          2   -1    0    0  502    0  0.00000000000E+00  0.00000000000E+00  0.92527786617E+02  0.92527786617E+02  0.00000000000E+00 0. -1.
          1   -1    0    0  501    0 -0.00000000000E+00 -0.00000000000E+00 -0.11938287300E+04  0.11938287300E+04  0.00000000000E+00 0. -1.
         25    2    1    2    0    0 -0.17513397949E+03  0.33477247976E+02 -0.40910889022E+03  0.46345228736E+03  0.12500120677E+03 0.  0.
          2    1    1    2  501    0  0.32765682083E+02 -0.22279630010E+02 -0.67826211045E+03  0.67941847362E+03  0.00000000000E+00 0. -1.
          1    1    1    2  502    0  0.14236829741E+03 -0.11197617966E+02 -0.13929942676E+02  0.14348575560E+03  0.00000000000E+00 0. -1.
         22    1    3    3    0    0 -0.65263285337E+02 -0.26312857976E+02 -0.25729833910E+03  0.26674725530E+03  0.00000000000E+00 0. -1.
         22    1    3    3    0    0 -0.10987069416E+03  0.59790105952E+02 -0.15181055112E+03  0.19670503205E+03  0.00000000000E+00 0. -1.
</event>
<event>
 7    1  0.6443388E-006  0.3372515E+02  0.7818608E-02  0.1626412E+00
          2   -1    0    0  502    0  0.00000000000E+00  0.00000000000E+00  0.16364291995E+03  0.16364291995E+03  0.00000000000E+00 0. -1.
          1   -1    0    0  501    0 -0.00000000000E+00 -0.00000000000E+00 -0.18968709180E+03  0.18968709180E+03  0.00000000000E+00 0. -1.
         25    2    1    2    0    0  0.91958799509E+01 -0.39739205299E+02  0.12492101273E+03  0.18136667732E+03  0.12499937430E+03 0.  0.
          2    1    1    2  501    0 -0.19589160914E+02  0.11199821643E+02 -0.13644458909E+03  0.13829785654E+03  0.00000000000E+00 0. -1.
          1    1    1    2  502    0  0.10393280963E+02  0.28539383656E+02 -0.14520595488E+02  0.33665477896E+02  0.00000000000E+00 0. -1.
         22    1    3    3    0    0  0.39296226023E+02  0.27506801592E+02  0.17399526699E+02  0.51025102085E+02  0.00000000000E+00 0. -1.
         22    1    3    3    0    0 -0.30100346072E+02 -0.67246006891E+02  0.10752148603E+03  0.13034157524E+03  0.00000000000E+00 0. -1.
</event>
<event>
 7    1  0.6443388E-006  0.7747872E+02  0.7818608E-02  0.1374571E+00
          2   -1    0    0  502    0  0.00000000000E+00  0.00000000000E+00  0.30192173328E+03  0.30192173328E+03  0.00000000000E+00 0. -1.
          1   -1    0    0  501    0 -0.00000000000E+00 -0.00000000000E+00 -0.11472238635E+03  0.11472238635E+03  0.00000000000E+00 0. -1.
         25    2    1    2    0    0  0.11806509098E+02 -0.29583241660E+02  0.14294140983E+03  0.19253928338E+03  0.12499826861E+03 0.  0.
          2    1    1    2  501    0 -0.60186250580E+02  0.57931359637E+02 -0.61951590299E+02  0.10400205156E+03  0.00000000000E+00 0. -1.
          1    1    1    2  502    0  0.48379741482E+02 -0.28348117977E+02  0.10620952740E+03  0.12010278468E+03  0.00000000000E+00 0. -1.
         22    1    3    3    0    0 -0.36661732943E+02 -0.53350847429E+02  0.11447800702E+03  0.13151277381E+03  0.00000000000E+00 0.  1.
         22    1    3    3    0    0  0.48468242041E+02  0.23767605769E+02  0.28463402815E+02  0.61026509570E+02  0.00000000000E+00 0.  1.
</event>
<event>
 7    1  0.6443388E-006  0.1323505E+03  0.7818608E-02  0.1258128E+00
          2   -1    0    0  502    0  0.00000000000E+00  0.00000000000E+00  0.26859959736E+03  0.26859959736E+03  0.00000000000E+00 0. -1.
          1   -1    0    0  501    0 -0.00000000000E+00 -0.00000000000E+00 -0.50897258807E+03  0.50897258807E+03  0.00000000000E+00 0. -1.
         25    2    1    2    0    0  0.14976906430E+03 -0.11888409266E+03 -0.24733480441E+03  0.33669425494E+03  0.12499726288E+03 0.  0.
          2    1    1    2  501    0 -0.10893528250E+03  0.34609127424E+02 -0.19059976170E+03  0.22224526235E+03  0.00000000000E+00 0. -1.
          1    1    1    2  502    0 -0.40833781794E+02  0.84274965237E+02  0.19756157541E+03  0.21863266814E+03  0.00000000000E+00 0. -1.
         22    1    3    3    0    0  0.98487700178E+02 -0.13426070030E+03 -0.22188949392E+03  0.27741793425E+03  0.00000000000E+00 0. -1.
         22    1    3    3    0    0  0.51281364121E+02  0.15376607641E+02 -0.25445310491E+02  0.59276320691E+02  0.00000000000E+00 0. -1.
</event>
<event>
 7    1  0.6443388E-006  0.6708093E+02  0.7818608E-02  0.1419714E+00
          2   -1    0    0  502    0  0.00000000000E+00  0.00000000000E+00  0.86616726243E+03  0.86616726243E+03  0.00000000000E+00 0. -1.
          1   -1    0    0  501    0 -0.00000000000E+00 -0.00000000000E+00 -0.40361647746E+03  0.40361647746E+03  0.00000000000E+00 0. -1.
         25    2    1    2    0    0 -0.15309597958E+02  0.45386391501E+02  0.91512899727E+02  0.16215383912E+03  0.12499979360E+03 0.  0.
          2    1    1    2  501    0  0.58965948486E+02 -0.33564702602E+02 -0.36447053411E+03  0.37073217095E+03  0.00000000000E+00 0. -1.
          1    1    1    2  502    0 -0.43656350529E+02 -0.11821688899E+02  0.73550841935E+03  0.73689772982E+03  0.00000000000E+00 0. -1.
         22    1    3    3    0    0 -0.30967445943E+02  0.81891539966E+02  0.84767715870E+02  0.12186374637E+03  0.00000000000E+00 0.  1.
         22    1    3    3    0    0  0.15657847985E+02 -0.36505148465E+02  0.67451838565E+01  0.40290092743E+02  0.00000000000E+00 0.  1.
</event>
<event>
 7    1  0.6443388E-006  0.9053411E+02  0.7818608E-02  0.1431537E+00
          2   -1    0    0  502    0  0.00000000000E+00  0.00000000000E+00  0.16207246342E+03  0.16207246342E+03  0.00000000000E+00 0. -1.
          1   -1    0    0  501    0 -0.00000000000E+00 -0.00000000000E+00 -0.20970129516E+04  0.20970129516E+04  0.00000000000E+00 0. -1.
         25    2    1    2    0    0  0.85390745399E+01  0.62694981384E+02 -0.28105471122E+03  0.31403820637E+03  0.12499867150E+03 0.  0.
          2    1    1    2  501    0 -0.92325536902E+01  0.29196747279E+02 -0.17848205390E+04  0.17850832044E+04  0.00000000000E+00 0. -1.
          1    1    1    2  502    0  0.69347915024E+00 -0.91891728664E+02  0.13093476212E+03  0.15996400420E+03  0.00000000000E+00 0. -1.
         22    1    3    3    0    0  0.16061430354E+01 -0.32508515491E+02 -0.13990761660E+03  0.14364374145E+03  0.00000000000E+00 0.  1.
         22    1    3    3    0    0  0.69329315045E+01  0.95203496875E+02 -0.14114709462E+03  0.17039446492E+03  0.00000000000E+00 0.  1.
</event>
<event>
 7    1  0.6443388E-006  0.1966916E+03  0.7818608E-02  0.1175959E+00
          2   -1    0    0  502    0  0.00000000000E+00  0.00000000000E+00  0.36449274638E+03  0.36449274638E+03  0.00000000000E+00 0. -1.
          1   -1    0    0  501    0 -0.00000000000E+00 -0.00000000000E+00 -0.15413642842E+04  0.15413642842E+04  0.00000000000E+00 0. -1.
         25    2    1    2    0    0 -0.21531310096E+02  0.22575236874E+03 -0.10213601612E+04  0.10536741794E+04  0.12499987217E+03 0.  0.
          2    1    1    2  501    0 -0.11058820404E+03 -0.15451754731E+03 -0.46822477119E+03  0.50531164608E+03  0.00000000000E+00 0. -1.
          1    1    1    2  502    0  0.13211951413E+03 -0.71234821427E+02  0.31271339459E+03  0.34687120514E+03  0.00000000000E+00 0. -1.
         22    1    3    3    0    0 -0.17895032417E+02  0.24050519791E+03 -0.91566601427E+03  0.94689346396E+03  0.00000000000E+00 0.  1.
         22    1    3    3    0    0 -0.36362776790E+01 -0.14752829169E+02 -0.10569414698E+03  0.10678071544E+03  0.00000000000E+00 0.  1.
</event>
<event>
 7    1  0.6443388E-006  0.1591050E+03  0.7818608E-02  0.1260929E+00
          2   -1    0    0  502    0  0.00000000000E+00  0.00000000000E+00  0.87651398047E+03  0.87651398047E+03  0.00000000000E+00 0. -1.
          1   -1    0    0  501    0 -0.00000000000E+00 -0.00000000000E+00 -0.12737610329E+04  0.12737610329E+04  0.00000000000E+00 0. -1.
         25    2    1    2    0    0 -0.38994746429E+02 -0.14410701714E+03 -0.13606139891E+03  0.23753933689E+03  0.12499923863E+03 0.  0.
          2    1    1    2  501    0  0.74817447648E+02 -0.12056384830E+02 -0.10778461396E+04  0.10805069678E+04  0.00000000000E+00 0. -1.
          1    1    1    2  502    0 -0.35822701219E+02  0.15616340197E+03  0.81666048605E+03  0.83222870866E+03  0.00000000000E+00 0. -1.
         22    1    3    3    0    0 -0.39213028811E+02 -0.13006110085E+03 -0.41645502680E+02  0.14208412817E+03  0.00000000000E+00 0.  1.
         22    1    3    3    0    0  0.21828238210E+00 -0.14045916286E+02 -0.94415896227E+02  0.95455208721E+02  0.00000000000E+00 0.  1.
</event>
<event>
 7    1  0.6443388E-006  0.4452953E+02  0.7818608E-02  0.1529633E+00
          2   -1    0    0  502    0  0.00000000000E+00  0.00000000000E+00  0.57435032562E+03  0.57435032562E+03  0.00000000000E+00 0. -1.
          1   -1    0    0  501    0 -0.00000000000E+00 -0.00000000000E+00 -0.50900448480E+02  0.50900448480E+02  0.00000000000E+00 0. -1.
         25    2    1    2    0    0  0.31272201222E+02  0.67319462869E+02  0.14373521033E+03  0.20443810879E+03  0.12500107595E+03 0.  0.
          2    1    1    2  501    0 -0.10316410027E+02 -0.29370410619E+02 -0.68090591626E+01  0.31865539733E+02  0.00000000000E+00 0. -1.
          1    1    1    2  502    0 -0.20955791194E+02 -0.37949052250E+02  0.38652372598E+03  0.38894712558E+03  0.00000000000E+00 0. -1.
         22    1    3    3    0    0  0.15654909575E+02  0.85059194792E+02  0.35228684520E+02  0.93387381511E+02  0.00000000000E+00 0.  1.
         22    1    3    3    0    0  0.15617291647E+02 -0.17739731923E+02  0.10850652581E+03  0.11105072728E+03  0.00000000000E+00 0.  1.
</event>
<event>
 7    1  0.1385907E-005  0.8299691E+02  0.7818608E-02  0.1437683E+00
          2   -1    0    0  502    0  0.00000000000E+00  0.00000000000E+00  0.24873527906E+04  0.24873527906E+04  0.00000000000E+00 0. -1.
          1   -1    0    0  501    0 -0.00000000000E+00 -0.00000000000E+00 -0.19601215777E+04  0.19601215777E+04  0.00000000000E+00 0. -1.
         25    2    1    2    0    0  0.43151692448E+02 -0.56042951194E+02 -0.23051985147E+03  0.27160400854E+03  0.12500581824E+03 0.  0.
          2    1    1    2  501    0  0.28567945106E+02  0.14175857460E+02 -0.17082118317E+04  0.17085095096E+04  0.00000000000E+00 0. -1.
          1    1    1    2  502    0 -0.71719637554E+02  0.41867093735E+02  0.24659628961E+04  0.24673608501E+04  0.00000000000E+00 0. -1.
         22    1    3    3    0    0 -0.24646387840E+02  0.25278540447E+02 -0.81337042771E+02  0.88668842145E+02  0.00000000000E+00 0. -1.
         22    1    3    3    0    0  0.67798080288E+02 -0.81321491641E+02 -0.14918280870E+03  0.18293516640E+03  0.00000000000E+00 0. -1.
</event>
<event>
 7    1  0.6443388E-006  0.3516826E+02  0.7818608E-02  0.1559863E+00
          2   -1    0    0  502    0  0.00000000000E+00  0.00000000000E+00  0.26470993144E+03  0.26470993144E+03  0.00000000000E+00 0. -1.
          1   -1    0    0  501    0 -0.00000000000E+00 -0.00000000000E+00 -0.10067182744E+04  0.10067182744E+04  0.00000000000E+00 0. -1.
         25    2    1    2    0    0  0.40438230884E+02 -0.42815442701E+02  0.12325805838E+03  0.18516538818E+03  0.12500103748E+03 0.  0.
          2    1    1    2  501    0 -0.30621835975E+02  0.10631486146E+02 -0.97292691207E+03  0.97346674394E+03  0.00000000000E+00 0. -1.
          1    1    1    2  502    0 -0.98163949092E+01  0.32183956555E+02  0.10766051075E+03  0.11279607370E+03  0.00000000000E+00 0. -1.
         22    1    3    3    0    0  0.99813781820E+01  0.13970749314E+02 -0.21025930435E+02  0.27145892828E+02  0.00000000000E+00 0.  1.
         22    1    3    3    0    0  0.30456852702E+02 -0.56786192015E+02  0.14428398882E+03  0.15801949535E+03  0.00000000000E+00 0.  1.
</event>
<event>
 7    1  0.6443388E-006  0.1966698E+03  0.7818608E-02  0.1262655E+00
          2   -1    0    0  502    0  0.00000000000E+00  0.00000000000E+00  0.26032488903E+04  0.26032488903E+04  0.00000000000E+00 0. -1.
          1   -1    0    0  501    0 -0.00000000000E+00 -0.00000000000E+00 -0.14505289901E+03  0.14505289901E+03  0.00000000000E+00 0. -1.
         25    2    1    2    0    0 -0.13297850023E+03 -0.10120890137E+03  0.26883846557E+03  0.34033051654E+03  0.12499686666E+03 0.  0.
          2    1    1    2  501    0  0.19033310461E+03  0.82658873111E+02 -0.10038129752E+02  0.20774971496E+03  0.00000000000E+00 0. -1.
          1    1    1    2  502    0 -0.57354604380E+02  0.18550028257E+02  0.21993956555E+04  0.22002215578E+04  0.00000000000E+00 0. -1.
         22    1    3    3    0    0 -0.10384662176E+03 -0.11521677020E+03  0.14495497062E+03  0.21229924280E+03  0.00000000000E+00 0.  1.
         22    1    3    3    0    0 -0.29131878469E+02  0.14007868835E+02  0.12388349495E+03  0.12803127374E+03  0.00000000000E+00 0.  1.
</event>
<event>
 7    1  0.6443388E-006  0.5616578E+02  0.7818608E-02  0.1459167E+00
          2   -1    0    0  502    0  0.00000000000E+00  0.00000000000E+00  0.94393943101E+03  0.94393943101E+03  0.00000000000E+00 0. -1.
          1   -1    0    0  501    0 -0.00000000000E+00 -0.00000000000E+00 -0.41495832647E+03  0.41495832647E+03  0.00000000000E+00 0. -1.
         25    2    1    2    0    0  0.37774364719E+02  0.11152326486E+02  0.97440120131E+02  0.16331193483E+03  0.12499973612E+03 0.  0.
          2    1    1    2  501    0 -0.26846952236E+02 -0.49852947207E+02 -0.37942336603E+03  0.38362503292E+03  0.00000000000E+00 0. -1.
          1    1    1    2  502    0 -0.10927412483E+02  0.38700620721E+02  0.81096435044E+03  0.81196078974E+03  0.00000000000E+00 0. -1.
         22    1    3    3    0    0  0.47393969615E+02  0.20416555790E+01  0.12447335527E+03  0.13320650467E+03  0.00000000000E+00 0. -1.
         22    1    3    3    0    0 -0.96196048959E+01  0.91106709074E+01 -0.27033235141E+02  0.30105430157E+02  0.00000000000E+00 0. -1.
</event>
<event>
 7    1  0.6443388E-006  0.9123422E+02  0.7818608E-02  0.1453578E+00
          2   -1    0    0  502    0  0.00000000000E+00  0.00000000000E+00  0.10975017202E+04  0.10975017202E+04  0.00000000000E+00 0. -1.
          1   -1    0    0  501    0 -0.00000000000E+00 -0.00000000000E+00 -0.36154786177E+03  0.36154786177E+03  0.00000000000E+00 0. -1.
         25    2    1    2    0    0 -0.71836788110E+02  0.24764072659E+02 -0.84657148518E+02  0.16901147974E+03  0.12499705623E+03 0.  0.
          2    1    1    2  501    0 -0.19346211760E+02 -0.17050508338E+02 -0.23201414514E+03  0.23344283944E+03  0.00000000000E+00 0. -1.
          1    1    1    2  502    0  0.91182999870E+02 -0.77135643209E+01  0.10526251521E+04  0.10565952628E+04  0.00000000000E+00 0. -1.
         22    1    3    3    0    0 -0.76472835781E+02  0.43790356310E+02 -0.10744784354E+03  0.13896304904E+03  0.00000000000E+00 0. -1.
         22    1    3    3    0    0  0.46360476706E+01 -0.19026283651E+02  0.22790695022E+02  0.30048430694E+02  0.00000000000E+00 0. -1.
</event>
<event>
 7    1  0.6443388E-006  0.4385968E+02  0.7818608E-02  0.1556455E+00
          2   -1    0    0  502    0  0.00000000000E+00  0.00000000000E+00  0.15793924731E+04  0.15793924731E+04  0.00000000000E+00 0. -1.
          1   -1    0    0  501    0 -0.00000000000E+00 -0.00000000000E+00 -0.33401176229E+03  0.33401176229E+03  0.00000000000E+00 0. -1.
         25    2    1    2    0    0  0.84814046685E+01  0.18056342741E+02  0.18488496570E+03  0.22406414654E+03  0.12499730191E+03 0.  0.
          2    1    1    2  501    0 -0.48523551794E+01  0.26113375774E+02 -0.31350333840E+03  0.31462644029E+03  0.00000000000E+00 0. -1.
          1    1    1    2  502    0 -0.36290494891E+01 -0.44169718515E+02  0.13739990835E+04  0.13747136486E+04  0.00000000000E+00 0. -1.
         22    1    3    3    0    0  0.35491837394E+02  0.37091923866E+02  0.18717137137E+02  0.54642589253E+02  0.00000000000E+00 0. -1.
         22    1    3    3    0    0 -0.27010432726E+02 -0.19035581125E+02  0.16616782856E+03  0.16942155729E+03  0.00000000000E+00 0. -1.
</event>
<event>
 7    1  0.6443388E-006  0.1436451E+03  0.7818608E-02  0.1264135E+00
          2   -1    0    0  502    0  0.00000000000E+00  0.00000000000E+00  0.16127951222E+04  0.16127951222E+04  0.00000000000E+00 0. -1.
          1   -1    0    0  501    0 -0.00000000000E+00 -0.00000000000E+00 -0.85816282057E+03  0.85816282057E+03  0.00000000000E+00 0. -1.
         25    2    1    2    0    0  0.60129785144E+02  0.64219176247E+02 -0.72570396389E+02  0.16919477945E+03  0.12498286803E+03 0.  0.
          2    1    1    2  501    0  0.78696216197E+02 -0.20593978059E+02 -0.73163736373E+03  0.73614566383E+03  0.00000000000E+00 0. -1.
          1    1    1    2  502    0 -0.13882600134E+03 -0.43625198188E+02  0.15588400618E+04  0.15656174995E+04  0.00000000000E+00 0. -1.
         22    1    3    3    0    0  0.52429486253E+02 -0.15308033049E+02  0.86073738595E+01  0.55292619664E+02  0.00000000000E+00 0. -1.
         22    1    3    3    0    0  0.77002988914E+01  0.79527209296E+02 -0.81177770248E+02  0.11390215979E+03  0.00000000000E+00 0. -1.
</event>
<event>
 7    1  0.6443388E-006  0.5878279E+02  0.7818608E-02  0.1512553E+00
          2   -1    0    0  502    0  0.00000000000E+00  0.00000000000E+00  0.14943932523E+04  0.14943932523E+04  0.00000000000E+00 0. -1.
          1   -1    0    0  501    0 -0.00000000000E+00 -0.00000000000E+00 -0.19686693894E+03  0.19686693894E+03  0.00000000000E+00 0. -1.
         25    2    1    2    0    0 -0.54740080849E+02 -0.30888586904E+02  0.59103358883E+02  0.15188554630E+03  0.12500172355E+03 0.  0.
          2    1    1    2  501    0 -0.38732128228E+01  0.26144672504E+02 -0.14868749705E+03  0.15101826862E+03  0.00000000000E+00 0. -1.
          1    1    1    2  502    0  0.58613293672E+02  0.47439144001E+01  0.13871104515E+04  0.13883563763E+04  0.00000000000E+00 0. -1.
         22    1    3    3    0    0  0.30099966595E+02 -0.41476707302E+02  0.38062529976E+02  0.63836364447E+02  0.00000000000E+00 0.  1.
         22    1    3    3    0    0 -0.84840047443E+02  0.10588120397E+02  0.21040828907E+02  0.88049181852E+02  0.00000000000E+00 0.  1.
</event>
<event>
 7    1  0.6443388E-006  0.5473905E+02  0.7818608E-02  0.1503807E+00
          2   -1    0    0  502    0  0.00000000000E+00  0.00000000000E+00  0.81979692738E+01  0.81979692738E+01  0.00000000000E+00 0. -1.
          1   -1    0    0  501    0 -0.00000000000E+00 -0.00000000000E+00 -0.48612845040E+04  0.48612845040E+04  0.00000000000E+00 0. -1.
         25    2    1    2    0    0 -0.33272773471E+02 -0.52191364705E+01 -0.38620110430E+04  0.38641801494E+04  0.12499845419E+03 0.  0.
          2    1    1    2  501    0 -0.19187145116E+02  0.23218226435E+02 -0.88579155985E+03  0.88630351465E+03  0.00000000000E+00 0. -1.
          1    1    1    2  502    0  0.52459918586E+02 -0.17999089964E+02 -0.10528393189E+03  0.11899880929E+03  0.00000000000E+00 0. -1.
         22    1    3    3    0    0  0.31498979428E+02 -0.42995677758E+02 -0.13545502746E+04  0.13555984879E+04  0.00000000000E+00 0.  1.
         22    1    3    3    0    0 -0.64771752899E+02  0.37776541287E+02 -0.25074607684E+04  0.25085816615E+04  0.00000000000E+00 0.  1.
</event>
<event>
 7    1  0.6443388E-006  0.1396250E+03  0.7818608E-02  0.1334769E+00
          2   -1    0    0  502    0  0.00000000000E+00  0.00000000000E+00  0.16938894942E+04  0.16938894942E+04  0.00000000000E+00 0. -1.
          1   -1    0    0  501    0 -0.00000000000E+00 -0.00000000000E+00 -0.84711404604E+03  0.84711404604E+03  0.00000000000E+00 0. -1.
         25    2    1    2    0    0  0.17125144953E+02 -0.11273024916E+03 -0.18229371624E+03  0.24871211674E+03  0.12500135345E+03 0.  0.
          2    1    1    2  501    0 -0.53541498244E+02  0.13669633633E+03 -0.62278886426E+03  0.63985822637E+03  0.00000000000E+00 0. -1.
          1    1    1    2  502    0  0.36416353291E+02 -0.23966087169E+02  0.16518580286E+04  0.16524331971E+04  0.00000000000E+00 0. -1.
         22    1    3    3    0    0  0.15085595813E+01  0.12921637503E+02 -0.92683215351E+02  0.93591788505E+02  0.00000000000E+00 0. -1.
         22    1    3    3    0    0  0.15616585372E+02 -0.12565188666E+03 -0.89610500888E+02  0.15512032823E+03  0.00000000000E+00 0. -1.
</event>
<event>
 7    1  0.6443388E-006  0.6643802E+02  0.7818608E-02  0.1427121E+00
          2   -1    0    0  502    0  0.00000000000E+00  0.00000000000E+00  0.63179560499E+03  0.63179560499E+03  0.00000000000E+00 0. -1.
          1   -1    0    0  501    0 -0.00000000000E+00 -0.00000000000E+00 -0.98940471178E+03  0.98940471178E+03  0.00000000000E+00 0. -1.
         25    2    1    2    0    0  0.16480382217E+02  0.31090673218E+02 -0.88941303937E+02  0.15739702405E+03  0.12500013869E+03 0.  0.
          2    1    1    2  501    0  0.43146713873E+02 -0.51127864895E+00 -0.86381667723E+03  0.86489372306E+03  0.00000000000E+00 0. -1.
          1    1    1    2  502    0 -0.59627096090E+02 -0.30579394569E+02  0.59514887438E+03  0.59890956966E+03  0.00000000000E+00 0. -1.
         22    1    3    3    0    0 -0.54207478487E+02  0.22162095876E+02 -0.38037075163E+02  0.69831427770E+02  0.00000000000E+00 0.  1.
         22    1    3    3    0    0  0.70687860703E+02  0.89285773418E+01 -0.50904228774E+02  0.87565596276E+02  0.00000000000E+00 0.  1.
</event>
<event>
 7    1  0.6443388E-006  0.4816851E+02  0.7818608E-02  0.1512435E+00
          2   -1    0    0  502    0  0.00000000000E+00  0.00000000000E+00  0.19491678433E+04  0.19491678433E+04  0.00000000000E+00 0. -1.
          1   -1    0    0  501    0 -0.00000000000E+00 -0.00000000000E+00 -0.50757807253E+02  0.50757807253E+02  0.00000000000E+00 0. -1.
         25    2    1    2    0    0  0.52437136747E+02 -0.59560358304E+02  0.64762289636E+03  0.66433254343E+03  0.12500089114E+03 0.  0.
          2    1    1    2  501    0 -0.34453072409E+02  0.32754634736E+02 -0.28811348280E+02  0.55587535336E+02  0.00000000000E+00 0. -1.
          1    1    1    2  502    0 -0.17984064339E+02  0.26805723568E+02  0.12795984880E+04  0.12800055718E+04  0.00000000000E+00 0. -1.
         22    1    3    3    0    0  0.22712532436E+02  0.37652940521E+02  0.25496081625E+03  0.25872499083E+03  0.00000000000E+00 0. -1.
         22    1    3    3    0    0  0.29724604311E+02 -0.97213298825E+02  0.39266208011E+03  0.40560755260E+03  0.00000000000E+00 0. -1.
</event>
<event>
 7    1  0.6443388E-006  0.2443593E+03  0.7818608E-02  0.1311207E+00
          2   -1    0    0  502    0  0.00000000000E+00  0.00000000000E+00  0.14822820750E+04  0.14822820750E+04  0.00000000000E+00 0. -1.
          1   -1    0    0  501    0 -0.00000000000E+00 -0.00000000000E+00 -0.71551403379E+03  0.71551403379E+03  0.00000000000E+00 0. -1.
         25    2    1    2    0    0  0.17422594696E+03 -0.15087563727E+03  0.19156645133E+03  0.32471807142E+03  0.12500392838E+03 0.  0.
          2    1    1    2  501    0 -0.20258644381E+03  0.13907758661E+03 -0.62547220377E+03  0.67201139871E+03  0.00000000000E+00 0. -1.
          1    1    1    2  502    0  0.28360496850E+02  0.11798050659E+02  0.12006737937E+04  0.12010666387E+04  0.00000000000E+00 0. -1.
         22    1    3    3    0    0  0.11604879980E+03 -0.68593501721E+02  0.36283434621E+02  0.13960257892E+03  0.00000000000E+00 0. -1.
         22    1    3    3    0    0  0.58177147165E+02 -0.82282135551E+02  0.15528301671E+03  0.18511549250E+03  0.00000000000E+00 0. -1.
</event>
<event>
 7    1  0.6443388E-006  0.1834943E+03  0.7818608E-02  0.1247232E+00
          2   -1    0    0  502    0  0.00000000000E+00  0.00000000000E+00  0.71334935123E+03  0.71334935123E+03  0.00000000000E+00 0. -1.
          1   -1    0    0  501    0 -0.00000000000E+00 -0.00000000000E+00 -0.14152093873E+03  0.14152093873E+03  0.00000000000E+00 0. -1.
         25    2    1    2    0    0 -0.16803829505E+03 -0.14699857919E+03  0.43245350670E+03  0.50248000792E+03  0.12499868804E+03 0.  0.
          2    1    1    2  501    0  0.70290948706E+02  0.26938131544E+02 -0.62600312208E+02  0.97904440602E+02  0.00000000000E+00 0. -1.
          1    1    1    2  502    0  0.97747346348E+02  0.12006044764E+03  0.20197521800E+03  0.25448584144E+03  0.00000000000E+00 0. -1.
         22    1    3    3    0    0 -0.56611212292E+02 -0.66963102483E+02  0.29704946991E+03  0.30972128443E+03  0.00000000000E+00 0. -1.
         22    1    3    3    0    0 -0.11142708276E+03 -0.80035476703E+02  0.13540403679E+03  0.19275872349E+03  0.00000000000E+00 0. -1.
</event>
<event>
 7    1  0.6443388E-006  0.6903053E+02  0.7818608E-02  0.1416778E+00
          2   -1    0    0  502    0  0.00000000000E+00  0.00000000000E+00  0.14915703655E+04  0.14915703655E+04  0.00000000000E+00 0. -1.
          1   -1    0    0  501    0 -0.00000000000E+00 -0.00000000000E+00 -0.85124422446E+02  0.85124422446E+02  0.00000000000E+00 0. -1.
         25    2    1    2    0    0  0.26306927816E+02  0.36381884203E+02  0.10218049621E+04  0.10304000627E+04  0.12499285044E+03 0.  0.
          2    1    1    2  501    0  0.41945166774E+01 -0.69409640435E+02 -0.64538490865E+02  0.94871012214E+02  0.00000000000E+00 0. -1.
          1    1    1    2  502    0 -0.30501444493E+02  0.33027756232E+02  0.44917947178E+03  0.45142371301E+03  0.00000000000E+00 0. -1.
         22    1    3    3    0    0 -0.32393940772E+02 -0.25078828663E+02  0.50443927498E+03  0.50610008614E+03  0.00000000000E+00 0.  1.
         22    1    3    3    0    0  0.58700868588E+02  0.61460712866E+02  0.51736568714E+03  0.52429997657E+03  0.00000000000E+00 0.  1.
</event>
<event>
 7    1  0.6443388E-006  0.1041935E+03  0.7818608E-02  0.1314684E+00
          2   -1    0    0  502    0  0.00000000000E+00  0.00000000000E+00  0.40433238556E+03  0.40433238556E+03  0.00000000000E+00 0. -1.
          1   -1    0    0  501    0 -0.00000000000E+00 -0.00000000000E+00 -0.53687229695E+03  0.53687229695E+03  0.00000000000E+00 0. -1.
         25    2    1    2    0    0 -0.51166017280E+02  0.16217136663E+03 -0.13300454857E+03  0.24947929844E+03  0.12502878441E+03 0.  0.
          2    1    1    2  501    0  0.30966965040E+02 -0.62566772072E+02 -0.33448697672E+03  0.34169444169E+03  0.00000000000E+00 0. -1.
          1    1    1    2  502    0  0.20199052240E+02 -0.99604594555E+02  0.33495161390E+03  0.35003094238E+03  0.00000000000E+00 0. -1.
         22    1    3    3    0    0  0.26728629878E+01 -0.20370644700E+02 -0.97848808247E+01  0.22756345374E+02  0.00000000000E+00 0. -1.
         22    1    3    3    0    0 -0.53838880268E+02  0.18254201133E+03 -0.12321966774E+03  0.22672295307E+03  0.00000000000E+00 0. -1.
</event>
<event>
 7    1  0.6443388E-006  0.1593402E+03  0.7818608E-02  0.1218226E+00
          2   -1    0    0  502    0  0.00000000000E+00  0.00000000000E+00  0.90636410544E+03  0.90636410544E+03  0.00000000000E+00 0. -1.
          1   -1    0    0  501    0 -0.00000000000E+00 -0.00000000000E+00 -0.35289923167E+03  0.35289923167E+03  0.00000000000E+00 0. -1.
         25    2    1    2    0    0  0.19882236470E+02 -0.26682260153E+03  0.21629622376E+03  0.36605805330E+03  0.12499935185E+03 0.  0.
          2    1    1    2  501    0 -0.11294515909E+01  0.15153743811E+03 -0.25119166948E+03  0.29336347016E+03  0.00000000000E+00 0. -1.
          1    1    1    2  502    0 -0.18752784879E+02  0.11528516342E+03  0.58836031949E+03  0.59984181364E+03  0.00000000000E+00 0. -1.
         22    1    3    3    0    0  0.18083028290E+02 -0.28040228642E+03  0.21093111257E+03  0.35134651328E+03  0.00000000000E+00 0. -1.
         22    1    3    3    0    0  0.17992081794E+01  0.13579684892E+02  0.53651111897E+01  0.14711540026E+02  0.00000000000E+00 0. -1.
</event>
<event>
 7    1  0.6443388E-006  0.5977922E+02  0.7818608E-02  0.1529880E+00
          2   -1    0    0  502    0  0.00000000000E+00  0.00000000000E+00  0.48544039589E+03  0.48544039589E+03  0.00000000000E+00 0. -1.
          1   -1    0    0  501    0 -0.00000000000E+00 -0.00000000000E+00 -0.14706161418E+04  0.14706161418E+04  0.00000000000E+00 0. -1.
         25    2    1    2    0    0  0.37402255294E+02 -0.33969990067E+02 -0.93591380671E+03  0.94557524395E+03  0.12499999778E+03 0.  0.
          2    1    1    2  501    0 -0.59011402389E+02  0.25663771529E+02 -0.52763689624E+03  0.53154648814E+03  0.00000000000E+00 0. -1.
          1    1    1    2  502    0  0.21609147095E+02  0.83062185388E+01  0.47837495703E+03  0.47893480561E+03  0.00000000000E+00 0. -1.
         22    1    3    3    0    0 -0.46234354212E+02 -0.16636626930E+02 -0.37137271178E+03  0.37460924164E+03  0.00000000000E+00 0. -1.
         22    1    3    3    0    0  0.83636609505E+02 -0.17333363138E+02 -0.56454109493E+03  0.57096600231E+03  0.00000000000E+00 0. -1.
</event>
<event>
 7    1  0.6443388E-006  0.6484908E+02  0.7818608E-02  0.1454786E+00
          2   -1    0    0  502    0  0.00000000000E+00  0.00000000000E+00  0.10039525394E+04  0.10039525394E+04  0.00000000000E+00 0. -1.
          1   -1    0    0  501    0 -0.00000000000E+00 -0.00000000000E+00 -0.67934734395E+03  0.67934734395E+03  0.00000000000E+00 0. -1.
         25    2    1    2    0    0 -0.78330559014E+02  0.59300973150E+02 -0.11099954830E+03  0.19389989453E+03  0.12499594987E+03 0.  0.
          2    1    1    2  501    0  0.46015011449E+02 -0.43526233412E+02 -0.52465630604E+03  0.52846584917E+03  0.00000000000E+00 0. -1.
          1    1    1    2  502    0  0.32315547565E+02 -0.15774739738E+02  0.96026104976E+03  0.96093413963E+03  0.00000000000E+00 0. -1.
         22    1    3    3    0    0 -0.75911452166E+02  0.35848777227E+02 -0.13581740764E+03  0.15966856803E+03  0.00000000000E+00 0. -1.
         22    1    3    3    0    0 -0.24191068476E+01  0.23452195923E+02  0.24817859342E+02  0.34231326499E+02  0.00000000000E+00 0. -1.
</event>
<event>
 7    1  0.6443388E-006  0.6121716E+02  0.7818608E-02  0.1501157E+00
          2   -1    0    0  502    0  0.00000000000E+00  0.00000000000E+00  0.97226819125E+03  0.97226819125E+03  0.00000000000E+00 0. -1.
          1   -1    0    0  501    0 -0.00000000000E+00 -0.00000000000E+00 -0.71058250000E+02  0.71058250000E+02  0.00000000000E+00 0. -1.
         25    2    1    2    0    0 -0.29944279566E+02  0.23528671939E+02  0.39120671644E+03  0.41245265005E+03  0.12499694101E+03 0.  0.
          2    1    1    2  501    0 -0.18761710253E+02  0.20004672044E+02 -0.55342963276E+02  0.61765947410E+02  0.00000000000E+00 0. -1.
          1    1    1    2  502    0  0.48705989819E+02 -0.43533343983E+02  0.56534618808E+03  0.56910784378E+03  0.00000000000E+00 0. -1.
         22    1    3    3    0    0  0.43445848082E+02  0.68062269348E+01  0.23472050354E+03  0.23880448325E+03  0.00000000000E+00 0.  1.
         22    1    3    3    0    0 -0.73390127648E+02  0.16722445004E+02  0.15648621291E+03  0.17364816680E+03  0.00000000000E+00 0.  1.
</event>
<event>
 7    1  0.9891455E-006  0.6091510E+02  0.7818608E-02  0.1448001E+00
          2   -1    0    0  502    0  0.00000000000E+00  0.00000000000E+00  0.68142899511E+03  0.68142899511E+03  0.00000000000E+00 0. -1.
          1   -1    0    0  501    0 -0.00000000000E+00 -0.00000000000E+00 -0.22945031076E+04  0.22945031076E+04  0.00000000000E+00 0. -1.
         25    2    1    2    0    0  0.44213783734E+02 -0.31501395545E+02 -0.62169985068E+03  0.63646042688E+03  0.12499589614E+03 0.  0.
          2    1    1    2  501    0  0.16522693687E+02  0.36692211370E+02 -0.16638010025E+04  0.16642875634E+04  0.00000000000E+00 0. -1.
          1    1    1    2  502    0 -0.60736477421E+02 -0.51908158246E+01  0.67242674063E+03  0.67518411250E+03  0.00000000000E+00 0. -1.
         22    1    3    3    0    0  0.85261909686E+02 -0.31604820954E+02 -0.49482489800E+03  0.50311046265E+03  0.00000000000E+00 0. -1.
         22    1    3    3    0    0 -0.41048125952E+02  0.10342540862E+00 -0.12687495268E+03  0.13334996423E+03  0.00000000000E+00 0. -1.
</event>
<event>
 7    1  0.6443388E-006  0.8538945E+02  0.7818608E-02  0.1334528E+00
          2   -1    0    0  502    0  0.00000000000E+00  0.00000000000E+00  0.22734089105E+02  0.22734089105E+02  0.00000000000E+00 0. -1.
          1   -1    0    0  501    0 -0.00000000000E+00 -0.00000000000E+00 -0.22103110712E+04  0.22103110712E+04  0.00000000000E+00 0. -1.
         25    2    1    2    0    0  0.10987806140E+03  0.38563685182E+02 -0.66940218592E+03  0.69085768310E+03  0.12499882237E+03 0.  0.
          2    1    1    2  501    0 -0.64610302630E+02  0.30471090209E+02 -0.13754795965E+04  0.13773333289E+04  0.00000000000E+00 0. -1.
          1    1    1    2  502    0 -0.45267758771E+02 -0.69034775390E+02 -0.14269519964E+03  0.16485414825E+03  0.00000000000E+00 0. -1.
         22    1    3    3    0    0  0.55346273793E+02  0.42388093874E+02 -0.59204087693E+03  0.59613116047E+03  0.00000000000E+00 0. -1.
         22    1    3    3    0    0  0.54531787608E+02 -0.38244086923E+01 -0.77361308993E+02  0.94726522636E+02  0.00000000000E+00 0. -1.
</event>
<event>
 7    1  0.6443388E-006  0.1116777E+03  0.7818608E-02  0.1342413E+00
          2   -1    0    0  502    0  0.00000000000E+00  0.00000000000E+00  0.13679491341E+04  0.13679491341E+04  0.00000000000E+00 0. -1.
          1   -1    0    0  501    0 -0.00000000000E+00 -0.00000000000E+00 -0.29996225352E+03  0.29996225352E+03  0.00000000000E+00 0. -1.
         25    2    1    2    0    0 -0.14240699840E+03  0.97277063246E+01  0.33557255236E+03  0.38549814215E+03  0.12500199295E+03 0.  0.
          2    1    1    2  501    0  0.10274837252E+03 -0.41801641239E+02 -0.26313394615E+03  0.28555923884E+03  0.00000000000E+00 0. -1.
          1    1    1    2  502    0  0.39658625879E+02  0.32073934915E+02  0.99554827439E+03  0.99685400663E+03  0.00000000000E+00 0. -1.
         22    1    3    3    0    0 -0.20519322167E+02  0.38822566089E+02  0.18232682358E+03  0.18754014188E+03  0.00000000000E+00 0. -1.
         22    1    3    3    0    0 -0.12188767624E+03 -0.29094859764E+02  0.15324572878E+03  0.19795800028E+03  0.00000000000E+00 0. -1.
</event>
<event>
 7    1  0.6443388E-006  0.7394357E+02  0.7818608E-02  0.1352968E+00
          2   -1    0    0  502    0  0.00000000000E+00  0.00000000000E+00  0.25957608541E+02  0.25957608541E+02  0.00000000000E+00 0. -1.
          1   -1    0    0  501    0 -0.00000000000E+00 -0.00000000000E+00 -0.12419714099E+04  0.12419714099E+04  0.00000000000E+00 0. -1.
         25    2    1    2    0    0 -0.10831041314E+03 -0.85380301427E+01 -0.79816275682E+03  0.81517067544E+03  0.12504159376E+03 0.  0.
          2    1    1    2  501    0  0.49181778803E+02  0.50340268230E+02 -0.33678605414E+03  0.34406080311E+03  0.00000000000E+00 0. -1.
          1    1    1    2  502    0  0.59128634338E+02 -0.41802238087E+02 -0.81064990355E+02  0.10869753985E+03  0.00000000000E+00 0. -1.
         22    1    3    3    0    0  0.55165063424E+01  0.92913151203E+01 -0.23463666146E+01  0.11057387358E+02  0.00000000000E+00 0.  1.
         22    1    3    3    0    0 -0.11382691948E+03 -0.17829345263E+02 -0.79581639020E+03  0.80411328808E+03  0.00000000000E+00 0.  1.
</event>
<event>
 7    1  0.6443388E-006  0.2084808E+03  0.7818608E-02  0.1288003E+00
          2   -1    0    0  502    0  0.00000000000E+00  0.00000000000E+00  0.72767615922E+03  0.72767615922E+03  0.00000000000E+00 0. -1.
          1   -1    0    0  501    0 -0.00000000000E+00 -0.00000000000E+00 -0.22040700220E+04  0.22040700220E+04  0.00000000000E+00 0. -1.
         25    2    1    2    0    0 -0.21596191931E+03 -0.10025586363E+03 -0.28932444961E+02  0.27046780336E+03  0.12499982999E+03 0.  0.
          2    1    1    2  501    0  0.19868583656E+03  0.59142163605E+02 -0.20483118697E+04  0.20587752118E+04  0.00000000000E+00 0. -1.
          1    1    1    2  502    0  0.17276082757E+02  0.41113700026E+02  0.60085045197E+03  0.60250316597E+03  0.00000000000E+00 0. -1.
         22    1    3    3    0    0 -0.79151401770E+02 -0.71771069794E+02  0.40700936804E+02  0.11433545871E+03  0.00000000000E+00 0. -1.
         22    1    3    3    0    0 -0.13681051755E+03 -0.28484793836E+02 -0.69633381765E+02  0.15613234465E+03  0.00000000000E+00 0. -1.
</event>
<event>
 7    1  0.6443388E-006  0.1100470E+03  0.7818608E-02  0.1360272E+00
          2   -1    0    0  502    0  0.00000000000E+00  0.00000000000E+00  0.58268770942E+03  0.58268770942E+03  0.00000000000E+00 0. -1.
          1   -1    0    0  501    0 -0.00000000000E+00 -0.00000000000E+00 -0.22232610396E+03  0.22232610396E+03  0.00000000000E+00 0. -1.
         25    2    1    2    0    0  0.23473597694E+02 -0.15078137068E+03  0.31957344792E+03  0.37555108703E+03  0.12500159528E+03 0.  0.
          2    1    1    2  501    0 -0.18300491219E+02  0.10662385626E+03 -0.17685814443E+03  0.20732187042E+03  0.00000000000E+00 0. -1.
          1    1    1    2  502    0 -0.51731064748E+01  0.44157514421E+02  0.21764630197E+03  0.22214085592E+03  0.00000000000E+00 0. -1.
         22    1    3    3    0    0  0.36719800079E+02  0.54066382842E+01  0.92130267011E+02  0.99325533248E+02  0.00000000000E+00 0. -1.
         22    1    3    3    0    0 -0.13246202385E+02 -0.15618800896E+03  0.22744318091E+03  0.27622555379E+03  0.00000000000E+00 0. -1.
</event>
<event>
 7    1  0.6443388E-006  0.1289833E+03  0.7818608E-02  0.1261091E+00
          2   -1    0    0  502    0  0.00000000000E+00  0.00000000000E+00  0.15138029055E+04  0.15138029055E+04  0.00000000000E+00 0. -1.
          1   -1    0    0  501    0 -0.00000000000E+00 -0.00000000000E+00 -0.76600658036E+03  0.76600658036E+03  0.00000000000E+00 0. -1.
         25    2    1    2    0    0 -0.15759807657E+03  0.12499773734E+03  0.40902237068E+03  0.47263863219E+03  0.12500555523E+03 0.  0.
          2    1    1    2  501    0  0.90420462069E+02 -0.23130795360E+02 -0.72773927561E+03  0.73369976619E+03  0.00000000000E+00 0. -1.
          1    1    1    2  502    0  0.67177614500E+02 -0.10186694198E+03  0.10665132301E+04  0.10734710875E+04  0.00000000000E+00 0. -1.
         22    1    3    3    0    0 -0.10403335301E+03  0.13471678429E+03  0.36460399883E+03  0.40237746765E+03  0.00000000000E+00 0.  1.
         22    1    3    3    0    0 -0.53564723563E+02 -0.97190469561E+01  0.44418371848E+02  0.70261164534E+02  0.00000000000E+00 0.  1.
</event>
<event>
 7    1  0.6443388E-006  0.5245735E+02  0.7818608E-02  0.1436082E+00
          2   -1    0    0  502    0  0.00000000000E+00  0.00000000000E+00  0.11998224947E+04  0.11998224947E+04  0.00000000000E+00 0. -1.
          1   -1    0    0  501    0 -0.00000000000E+00 -0.00000000000E+00 -0.19269956886E+04  0.19269956886E+04  0.00000000000E+00 0. -1.
         25    2    1    2    0    0 -0.22359375168E+02 -0.56466953133E+00 -0.13456921156E+04  0.13516722121E+04  0.12502095270E+03 0.  0.
          2    1    1    2  501    0  0.72439929429E+02  0.16175920385E+02 -0.57535361825E+03  0.58012153021E+03  0.00000000000E+00 0. -1.
          1    1    1    2  502    0 -0.50080554260E+02 -0.15611250854E+02  0.11938725399E+04  0.11950244410E+04  0.00000000000E+00 0. -1.
         22    1    3    3    0    0  0.17944778935E+02 -0.55363500252E+02 -0.54644194321E+03  0.54953246451E+03  0.00000000000E+00 0.  1.
         22    1    3    3    0    0 -0.40304154103E+02  0.54798830721E+02 -0.79925017238E+03  0.80213974764E+03  0.00000000000E+00 0.  1.
</event>
<event>
 7    1  0.6443388E-006  0.5123863E+02  0.7818608E-02  0.1466677E+00
          2   -1    0    0  502    0  0.00000000000E+00  0.00000000000E+00  0.25894867114E+03  0.25894867114E+03  0.00000000000E+00 0. -1.
          1   -1    0    0  501    0 -0.00000000000E+00 -0.00000000000E+00 -0.21468827765E+04  0.21468827765E+04  0.00000000000E+00 0. -1.
         25    2    1    2    0    0 -0.84023820499E+01  0.79630144490E+01 -0.11918906964E+04  0.11984827150E+04  0.12499350441E+03 0.  0.
          2    1    1    2  501    0 -0.41586858346E+02  0.36821096636E+01 -0.94865603575E+03  0.94957427244E+03  0.00000000000E+00 0. -1.
          1    1    1    2  502    0  0.49989240396E+02 -0.11645124113E+02  0.25261262689E+03  0.25777446020E+03  0.00000000000E+00 0. -1.
         22    1    3    3    0    0 -0.64361550858E+02 -0.25702797373E+01 -0.47726849779E+03  0.48159550927E+03  0.00000000000E+00 0. -1.
         22    1    3    3    0    0  0.55959168809E+02  0.10533294186E+02 -0.71462219866E+03  0.71688720569E+03  0.00000000000E+00 0. -1.
</event>
<event>
 7    1  0.6443388E-006  0.1197263E+03  0.7818608E-02  0.1328157E+00
          2   -1    0    0  502    0  0.00000000000E+00  0.00000000000E+00  0.64549311114E+03  0.64549311114E+03  0.00000000000E+00 0. -1.
          1   -1    0    0  501    0 -0.00000000000E+00 -0.00000000000E+00 -0.34540685480E+03  0.34540685480E+03  0.00000000000E+00 0. -1.
         25    2    1    2    0    0  0.65821484154E+02  0.71718257569E+02 -0.96065039804E+01  0.15872192917E+03  0.12499755852E+03 0.  0.
          2    1    1    2  501    0 -0.40263462740E+02 -0.11914910145E+03 -0.24472374092E+03  0.27514971230E+03  0.00000000000E+00 0. -1.
          1    1    1    2  502    0 -0.25558021415E+02  0.47430843885E+02  0.55441650124E+03  0.55702832447E+03  0.00000000000E+00 0. -1.
         22    1    3    3    0    0  0.22929405282E+02  0.77070240679E+02  0.42557428645E+02  0.90976449468E+02  0.00000000000E+00 0. -1.
         22    1    3    3    0    0  0.42892078873E+02 -0.53519831099E+01 -0.52163932625E+02  0.67745479703E+02  0.00000000000E+00 0. -1.
</event>
<event>
 7    1  0.6443388E-006  0.1392555E+03  0.7818608E-02  0.1252575E+00
          2   -1    0    0  502    0  0.00000000000E+00  0.00000000000E+00  0.14845387880E+04  0.14845387880E+04  0.00000000000E+00 0. -1.
          1   -1    0    0  501    0 -0.00000000000E+00 -0.00000000000E+00 -0.14734944838E+04  0.14734944838E+04  0.00000000000E+00 0. -1.
         25    2    1    2    0    0  0.35411688098E+02  0.12039450000E+03 -0.44756328881E+02  0.18269195223E+03  0.12499758858E+03 0.  0.
          2    1    1    2  501    0  0.58226874945E+02 -0.12901697279E+03 -0.13545166997E+04  0.13618925208E+04  0.00000000000E+00 0. -1.
          1    1    1    2  502    0 -0.93638563042E+02  0.86224727824E+01  0.14103173328E+04  0.14134487988E+04  0.00000000000E+00 0. -1.
         22    1    3    3    0    0  0.27924517801E+02 -0.13561372816E+02 -0.37007144670E+02  0.48303398263E+02  0.00000000000E+00 0.  1.
         22    1    3    3    0    0  0.74871702967E+01  0.13395587282E+03 -0.77491842108E+01  0.13438855397E+03  0.00000000000E+00 0.  1.
</event>
<event>
 7    1  0.6443388E-006  0.9797923E+02  0.7818608E-02  0.1470772E+00
          2   -1    0    0  502    0  0.00000000000E+00  0.00000000000E+00  0.40784045439E+03  0.40784045439E+03  0.00000000000E+00 0. -1.
          1   -1    0    0  501    0 -0.00000000000E+00 -0.00000000000E+00 -0.11313091201E+03  0.11313091201E+03  0.00000000000E+00 0. -1.
         25    2    1    2    0    0  0.19993930082E+01  0.10894501961E+03  0.69797874672E+02  0.17991586017E+03  0.12499983425E+03 0.  0.
          2    1    1    2  501    0  0.15843456438E+02 -0.14087750447E+02 -0.47517792367E+02  0.52032878221E+02  0.00000000000E+00 0. -1.
          1    1    1    2  502    0 -0.17842849446E+02 -0.94857269159E+02  0.27242946007E+03  0.28902262801E+03  0.00000000000E+00 0. -1.
         22    1    3    3    0    0  0.24724206475E+02  0.11536331551E+03  0.13359899666E+02  0.11873696927E+03  0.00000000000E+00 0. -1.
         22    1    3    3    0    0 -0.22724813467E+02 -0.64182959034E+01  0.56437975006E+02  0.61178890903E+02  0.00000000000E+00 0. -1.
</event>
<event>
 7    1  0.6443388E-006  0.1947907E+03  0.7818608E-02  0.1236207E+00
          2   -1    0    0  502    0  0.00000000000E+00  0.00000000000E+00  0.28283185798E+04  0.28283185798E+04  0.00000000000E+00 0. -1.
          1   -1    0    0  501    0 -0.00000000000E+00 -0.00000000000E+00 -0.18817270046E+03  0.18817270046E+03  0.00000000000E+00 0. -1.
         25    2    1    2    0    0 -0.23972861076E+03 -0.37676505513E+02  0.77963275072E+02  0.28388961466E+03  0.12500286064E+03 0.  0.
          2    1    1    2  501    0  0.17258200357E+03 -0.44858714201E+01  0.34845234610E+01  0.17267545542E+03  0.00000000000E+00 0. -1.
          1    1    1    2  502    0  0.67146607190E+02  0.42162376933E+02  0.25586980808E+04  0.25599262102E+04  0.00000000000E+00 0. -1.
         22    1    3    3    0    0 -0.20470955158E+03  0.12903549939E+02  0.84875522375E+02  0.22198278404E+03  0.00000000000E+00 0. -1.
         22    1    3    3    0    0 -0.35019059181E+02 -0.50580055452E+02 -0.69122473026E+01  0.61906830627E+02  0.00000000000E+00 0. -1.
</event>
<event>
 7    1  0.6443388E-006  0.9840596E+02  0.7818608E-02  0.1288103E+00
          2   -1    0    0  502    0  0.00000000000E+00  0.00000000000E+00  0.10657714356E+04  0.10657714356E+04  0.00000000000E+00 0. -1.
          1   -1    0    0  501    0 -0.00000000000E+00 -0.00000000000E+00 -0.26646788591E+03  0.26646788591E+03  0.00000000000E+00 0. -1.
         25    2    1    2    0    0  0.23523597558E+02 -0.16245330681E+02  0.19166635670E+03  0.23060423039E+03  0.12500019349E+03 0.  0.
          2    1    1    2  501    0  0.17288690915E+02  0.10135698263E+03 -0.23354309460E+03  0.25517545688E+03  0.00000000000E+00 0. -1.
          1    1    1    2  502    0 -0.40812288473E+02 -0.85111651946E+02  0.84118028759E+03  0.84645963425E+03  0.00000000000E+00 0. -1.
         22    1    3    3    0    0 -0.13086976483E+02  0.11987939892E+02  0.18263810110E+03  0.18349838046E+03  0.00000000000E+00 0. -1.
         22    1    3    3    0    0  0.36610574041E+02 -0.28233270573E+02  0.90282556008E+01  0.47105849935E+02  0.00000000000E+00 0. -1.
</event>
<event>
 7    1  0.6443388E-006  0.1695415E+03  0.7818608E-02  0.1357768E+00
          2   -1    0    0  502    0  0.00000000000E+00  0.00000000000E+00  0.10543955313E+04  0.10543955313E+04  0.00000000000E+00 0. -1.
          1   -1    0    0  501    0 -0.00000000000E+00 -0.00000000000E+00 -0.20723685857E+03  0.20723685857E+03  0.00000000000E+00 0. -1.
         25    2    1    2    0    0 -0.11822333805E+03 -0.10651805855E+03  0.53855335611E+03  0.57531561618E+03  0.12500194552E+03 0.  0.
          2    1    1    2  501    0  0.10606797413E+03  0.13336736324E+03 -0.14984755873E+03  0.22691751711E+03  0.00000000000E+00 0. -1.
          1    1    1    2  502    0  0.12155363919E+02 -0.26849304684E+02  0.45845287538E+03  0.45939925661E+03  0.00000000000E+00 0. -1.
         22    1    3    3    0    0 -0.79583895807E+02  0.93773904345E+01  0.21995276614E+03  0.23409560281E+03  0.00000000000E+00 0. -1.
         22    1    3    3    0    0 -0.38639442245E+02 -0.11589544899E+03  0.31860058997E+03  0.34122001337E+03  0.00000000000E+00 0. -1.
</event>
<event>
 7    1  0.6443388E-006  0.6449651E+02  0.7818608E-02  0.1474140E+00
          2   -1    0    0  502    0  0.00000000000E+00  0.00000000000E+00  0.21077248360E+04  0.21077248360E+04  0.00000000000E+00 0. -1.
          1   -1    0    0  501    0 -0.00000000000E+00 -0.00000000000E+00 -0.18070133763E+03  0.18070133763E+03  0.00000000000E+00 0. -1.
         25    2    1    2    0    0  0.67910896387E+01  0.32600161844E+02  0.91731656320E+03  0.92639379708E+03  0.12500760257E+03 0.  0.
          2    1    1    2  501    0 -0.10908850662E+02 -0.63771602953E+02 -0.17000590746E+03  0.18190060180E+03  0.00000000000E+00 0. -1.
          1    1    1    2  502    0  0.41177610230E+01  0.31171441108E+02  0.11797128426E+04  0.11801317747E+04  0.00000000000E+00 0. -1.
         22    1    3    3    0    0  0.54715976824E+02  0.53601839154E+02  0.50666982999E+03  0.51242688445E+03  0.00000000000E+00 0. -1.
         22    1    3    3    0    0 -0.47924887185E+02 -0.21001677310E+02  0.41064673321E+03  0.41396691264E+03  0.00000000000E+00 0. -1.
</event>
<event>
 7    1  0.6443388E-006  0.5986245E+02  0.7818608E-02  0.1484488E+00
          2   -1    0    0  502    0  0.00000000000E+00  0.00000000000E+00  0.44463246428E+03  0.44463246428E+03  0.00000000000E+00 0. -1.
          1   -1    0    0  501    0 -0.00000000000E+00 -0.00000000000E+00 -0.39218867330E+03  0.39218867330E+03  0.00000000000E+00 0. -1.
         25    2    1    2    0    0 -0.48025841181E+02  0.89236698514E+01 -0.19591683351E+03  0.23746956720E+03  0.12498910508E+03 0.  0.
          2    1    1    2  501    0  0.61319257636E+02  0.19618612652E+02 -0.16897779956E+03  0.18082709439E+03  0.00000000000E+00 0. -1.
          1    1    1    2  502    0 -0.13293416454E+02 -0.28542282503E+02  0.41733842406E+03  0.41852447600E+03  0.00000000000E+00 0. -1.
         22    1    3    3    0    0 -0.75091568410E+02 -0.34711933667E+02 -0.12574209029E+03  0.15051490044E+03  0.00000000000E+00 0. -1.
         22    1    3    3    0    0  0.27065727229E+02  0.43635603519E+02 -0.70174743225E+02  0.86954666761E+02  0.00000000000E+00 0. -1.
</event>
<event>
 7    1  0.6443388E-006  0.1148487E+03  0.7818608E-02  0.1265662E+00
          2   -1    0    0  502    0  0.00000000000E+00  0.00000000000E+00  0.10824630329E+04  0.10824630329E+04  0.00000000000E+00 0. -1.
          1   -1    0    0  501    0 -0.00000000000E+00 -0.00000000000E+00 -0.26217824142E+03  0.26217824142E+03  0.00000000000E+00 0. -1.
         25    2    1    2    0    0  0.17963949805E+03  0.73813380095E+02  0.79562976559E+02  0.24428206808E+03  0.12499878883E+03 0.  0.
          2    1    1    2  501    0 -0.10776082567E+03 -0.39474767533E+01 -0.16062041030E+03  0.19346031719E+03  0.00000000000E+00 0. -1.
          1    1    1    2  502    0 -0.71878672373E+02 -0.69865903342E+02  0.90134222522E+03  0.90689888905E+03  0.00000000000E+00 0. -1.
         22    1    3    3    0    0  0.19065089117E+03  0.41386728090E+02  0.77671858117E+02  0.20998462112E+03  0.00000000000E+00 0. -1.
         22    1    3    3    0    0 -0.11011393123E+02  0.32426652006E+02  0.18911184425E+01  0.34297446957E+02  0.00000000000E+00 0. -1.
</event>
<event>
 7    1  0.6443388E-006  0.3096487E+03  0.7818608E-02  0.1172558E+00
          2   -1    0    0  502    0  0.00000000000E+00  0.00000000000E+00  0.10167134870E+04  0.10167134870E+04  0.00000000000E+00 0. -1.
          1   -1    0    0  501    0 -0.00000000000E+00 -0.00000000000E+00 -0.43087526420E+03  0.43087526420E+03  0.00000000000E+00 0. -1.
         25    2    1    2    0    0 -0.25357210914E+03 -0.88701723784E+01  0.91562715647E+02  0.29729745423E+03  0.12499820361E+03 0.  0.
          2    1    1    2  501    0 -0.65002438599E+02 -0.74801283840E+02 -0.28635432978E+03  0.30301708082E+03  0.00000000000E+00 0. -1.
          1    1    1    2  502    0  0.31857454774E+03  0.83671456219E+02  0.78062983696E+03  0.84727421618E+03  0.00000000000E+00 0. -1.
         22    1    3    3    0    0 -0.10434603481E+03  0.56882734951E+02  0.50560923451E+02  0.12915164535E+03  0.00000000000E+00 0.  1.
         22    1    3    3    0    0 -0.14922607433E+03 -0.65752907329E+02  0.41001792197E+02  0.16814580888E+03  0.00000000000E+00 0.  1.
</event>
<event>
 7    1  0.6443388E-006  0.4198594E+02  0.7818608E-02  0.1500007E+00
          2   -1    0    0  502    0  0.00000000000E+00  0.00000000000E+00  0.55176126700E+03  0.55176126700E+03  0.00000000000E+00 0. -1.
          1   -1    0    0  501    0 -0.00000000000E+00 -0.00000000000E+00 -0.11610725432E+03  0.11610725432E+03  0.00000000000E+00 0. -1.
         25    2    1    2    0    0 -0.20713931857E+02  0.24980479564E+02  0.16138161496E+03  0.20669387734E+03  0.12500096779E+03 0.  0.
          2    1    1    2  501    0  0.41651469848E+02  0.94597211827E+01 -0.87392034434E+02  0.97271264759E+02  0.00000000000E+00 0. -1.
          1    1    1    2  502    0 -0.20937537991E+02 -0.34440200747E+02  0.36166443215E+03  0.36390337922E+03  0.00000000000E+00 0. -1.
         22    1    3    3    0    0 -0.27003309072E+02  0.63770758192E+02  0.15088610052E+03  0.16601958810E+03  0.00000000000E+00 0. -1.
         22    1    3    3    0    0  0.62893772159E+01 -0.38790278628E+02  0.10495514438E+02  0.40674289239E+02  0.00000000000E+00 0. -1.
</event>
<event>
 7    1  0.6443388E-006  0.7141523E+02  0.7818608E-02  0.1467256E+00
          2   -1    0    0  502    0  0.00000000000E+00  0.00000000000E+00  0.65304856040E+02  0.65304856040E+02  0.00000000000E+00 0. -1.
          1   -1    0    0  501    0 -0.00000000000E+00 -0.00000000000E+00 -0.23224494656E+04  0.23224494656E+04  0.00000000000E+00 0. -1.
         25    2    1    2    0    0 -0.25753171148E+02  0.34359752397E+02 -0.49280589840E+03  0.51023269799E+03  0.12504372913E+03 0.  0.
          2    1    1    2  501    0 -0.16632128593E+02  0.24762657824E+02 -0.17973772055E+04  0.17976247205E+04  0.00000000000E+00 0. -1.
          1    1    1    2  502    0  0.42385299740E+02 -0.59122410221E+02  0.33038494334E+02  0.79896903146E+02  0.00000000000E+00 0. -1.
         22    1    3    3    0    0 -0.52993760331E+02 -0.28564084844E+02 -0.17349937749E+03  0.18364716052E+03  0.00000000000E+00 0. -1.
         22    1    3    3    0    0  0.27240589183E+02  0.62923837241E+02 -0.31930652090E+03  0.32658553747E+03  0.00000000000E+00 0. -1.
</event>
<event>
 7    1  0.6443388E-006  0.1737143E+03  0.7818608E-02  0.1276316E+00
          2   -1    0    0  502    0  0.00000000000E+00  0.00000000000E+00  0.16987258587E+04  0.16987258587E+04  0.00000000000E+00 0. -1.
          1   -1    0    0  501    0 -0.00000000000E+00 -0.00000000000E+00 -0.13744235590E+03  0.13744235590E+03  0.00000000000E+00 0. -1.
         25    2    1    2    0    0 -0.13064988829E+03 -0.17266520379E+02  0.36391380826E+03  0.40672545993E+03  0.12499925549E+03 0.  0.
          2    1    1    2  501    0 -0.56546182381E+02  0.19437071496E+02 -0.10114783446E+03  0.11749959535E+03  0.00000000000E+00 0. -1.
          1    1    1    2  502    0  0.18719607068E+03 -0.21705511173E+01  0.12985175290E+04  0.13119431593E+04  0.00000000000E+00 0. -1.
         22    1    3    3    0    0 -0.12233007326E+02  0.45518296243E+02  0.82255955937E+02  0.94802974891E+02  0.00000000000E+00 0. -1.
         22    1    3    3    0    0 -0.11841688097E+03 -0.62784816621E+02  0.28165785232E+03  0.31192248504E+03  0.00000000000E+00 0. -1.
</event>
<event>
 7    1  0.6443388E-006  0.4855874E+02  0.7818608E-02  0.1469677E+00
          2   -1    0    0  502    0  0.00000000000E+00  0.00000000000E+00  0.73190034185E+03  0.73190034185E+03  0.00000000000E+00 0. -1.
          1   -1    0    0  501    0 -0.00000000000E+00 -0.00000000000E+00 -0.30574219520E+02  0.30574219520E+02  0.00000000000E+00 0. -1.
         25    2    1    2    0    0 -0.37400886571E+02 -0.66391200838E+02  0.26145522855E+03  0.29965272023E+03  0.12500519325E+03 0.  0.
          2    1    1    2  501    0  0.38575216248E+02  0.23292427054E+02  0.38871101581E+02  0.59510898202E+02  0.00000000000E+00 0. -1.
          1    1    1    2  502    0 -0.11743296775E+01  0.43098773785E+02  0.40099979220E+03  0.40331094294E+03  0.00000000000E+00 0. -1.
         22    1    3    3    0    0 -0.18735129726E+02  0.36737296727E+02  0.83525388977E+02  0.93151085128E+02  0.00000000000E+00 0. -1.
         22    1    3    3    0    0 -0.18665756845E+02 -0.10312849757E+03  0.17792983957E+03  0.20650163510E+03  0.00000000000E+00 0. -1.
</event>
<event>
 7    1  0.6443388E-006  0.1058166E+03  0.7818608E-02  0.1453535E+00
          2   -1    0    0  502    0  0.00000000000E+00  0.00000000000E+00  0.19903377615E+04  0.19903377615E+04  0.00000000000E+00 0. -1.
          1   -1    0    0  501    0 -0.00000000000E+00 -0.00000000000E+00 -0.10328531452E+04  0.10328531452E+04  0.00000000000E+00 0. -1.
         25    2    1    2    0    0  0.68251132065E+02  0.77233409639E+02 -0.90131495575E+01  0.16226410023E+03  0.12500073906E+03 0.  0.
          2    1    1    2  501    0 -0.16349106947E+02  0.15078440800E+02 -0.94561854008E+03  0.94588005371E+03  0.00000000000E+00 0. -1.
          1    1    1    2  502    0 -0.51902025118E+02 -0.92311850439E+02  0.19121163060E+04  0.19150467528E+04  0.00000000000E+00 0. -1.
         22    1    3    3    0    0  0.45833101693E+00  0.58403705093E+02  0.44862610986E+02  0.73646837681E+02  0.00000000000E+00 0.  1.
         22    1    3    3    0    0  0.67792801048E+02  0.18829704546E+02 -0.53875760544E+02  0.88617262547E+02  0.00000000000E+00 0.  1.
</event>
<event>
 7    1  0.6443388E-006  0.9150017E+02  0.7818608E-02  0.1303795E+00
          2   -1    0    0  502    0  0.00000000000E+00  0.00000000000E+00  0.15221260529E+03  0.15221260529E+03  0.00000000000E+00 0. -1.
          1   -1    0    0  501    0 -0.00000000000E+00 -0.00000000000E+00 -0.16769549879E+04  0.16769549879E+04  0.00000000000E+00 0. -1.
         25    2    1    2    0    0  0.37853773381E+02 -0.10580765610E+02 -0.68998864776E+03  0.70231833201E+03  0.12498737808E+03 0.  0.
          2    1    1    2  501    0 -0.30454058995E+02 -0.82309022575E+02 -0.96373813508E+03  0.96772590020E+03  0.00000000000E+00 0. -1.
          1    1    1    2  502    0 -0.73997143866E+01  0.92889788186E+02  0.12898440020E+03  0.15912336100E+03  0.00000000000E+00 0. -1.
         22    1    3    3    0    0 -0.25650950966E+02 -0.49346950171E+02 -0.25296307632E+03  0.25900465393E+03  0.00000000000E+00 0.  1.
         22    1    3    3    0    0  0.63504724347E+02  0.38766184561E+02 -0.43702557144E+03  0.44331367808E+03  0.00000000000E+00 0.  1.
</event>
<event>
 7    1  0.6443388E-006  0.1262199E+03  0.7818608E-02  0.1319464E+00
          2   -1    0    0  502    0  0.00000000000E+00  0.00000000000E+00  0.10101931277E+04  0.10101931277E+04  0.00000000000E+00 0. -1.
          1   -1    0    0  501    0 -0.00000000000E+00 -0.00000000000E+00 -0.46673004589E+03  0.46673004589E+03  0.00000000000E+00 0. -1.
         25    2    1    2    0    0  0.28260934117E+02  0.17020813337E+03  0.43037099035E+02  0.21736222387E+03  0.12499862163E+03 0.  0.
          2    1    1    2  501    0  0.13673178758E+02 -0.53488584579E+02 -0.37315650347E+03  0.37721845207E+03  0.00000000000E+00 0. -1.
          1    1    1    2  502    0 -0.41934112875E+02 -0.11671954879E+03  0.87358248628E+03  0.88234249769E+03  0.00000000000E+00 0. -1.
         22    1    3    3    0    0 -0.14861416567E+01  0.17254347011E+03  0.99919624567E+01  0.17283893371E+03  0.00000000000E+00 0. -1.
         22    1    3    3    0    0  0.29747075774E+02 -0.23353367365E+01  0.33045136578E+02  0.44523290155E+02  0.00000000000E+00 0. -1.
</event>
<event>
 7    1  0.6443388E-006  0.6015993E+02  0.7818608E-02  0.1416396E+00
          2   -1    0    0  502    0  0.00000000000E+00  0.00000000000E+00  0.16653533907E+03  0.16653533907E+03  0.00000000000E+00 0. -1.
          1   -1    0    0  501    0 -0.00000000000E+00 -0.00000000000E+00 -0.18973825308E+04  0.18973825308E+04  0.00000000000E+00 0. -1.
         25    2    1    2    0    0 -0.89703619107E+02 -0.65580574755E+02 -0.11025265435E+03  0.20033747393E+03  0.12502761535E+03 0.  0.
          2    1    1    2  501    0  0.50001436842E+02  0.32404736113E+02 -0.17360447524E+04  0.17370669512E+04  0.00000000000E+00 0. -1.
          1    1    1    2  502    0  0.39702182265E+02  0.33175838642E+02  0.11545021503E+03  0.12651344473E+03  0.00000000000E+00 0. -1.
         22    1    3    3    0    0 -0.11383078638E+03 -0.21639325048E+02 -0.87964147758E+02  0.14547645723E+03  0.00000000000E+00 0.  1.
         22    1    3    3    0    0  0.24127167278E+02 -0.43941249707E+02 -0.22288506597E+02  0.54861016697E+02  0.00000000000E+00 0.  1.
</event>
<event>
 7    1  0.6443388E-006  0.1053005E+03  0.7818608E-02  0.1392607E+00
          2   -1    0    0  502    0  0.00000000000E+00  0.00000000000E+00  0.16830248669E+04  0.16830248669E+04  0.00000000000E+00 0. -1.
          1   -1    0    0  501    0 -0.00000000000E+00 -0.00000000000E+00 -0.27888295685E+03  0.27888295685E+03  0.00000000000E+00 0. -1.
         25    2    1    2    0    0 -0.25940287667E+02  0.69880800703E+02 -0.20404152236E+03  0.25062620688E+03  0.12499731156E+03 0.  0.
          2    1    1    2  501    0  0.94604210730E+01  0.34363766848E+02 -0.43495818540E+02  0.56233924541E+02  0.00000000000E+00 0. -1.
          1    1    1    2  502    0  0.16479866594E+02 -0.10424456755E+03  0.16516792509E+04  0.16550476923E+04  0.00000000000E+00 0. -1.
         22    1    3    3    0    0 -0.52029797767E+02  0.93514060869E+02 -0.12806711253E+03  0.16689267434E+03  0.00000000000E+00 0. -1.
         22    1    3    3    0    0  0.26089510100E+02 -0.23633260166E+02 -0.75974409827E+02  0.83733532542E+02  0.00000000000E+00 0. -1.
</event>
<event>
 7    1  0.6443388E-006  0.2238931E+03  0.7818608E-02  0.1270760E+00
          2   -1    0    0  502    0  0.00000000000E+00  0.00000000000E+00  0.54539997790E+03  0.54539997790E+03  0.00000000000E+00 0. -1.
          1   -1    0    0  501    0 -0.00000000000E+00 -0.00000000000E+00 -0.21223441756E+03  0.21223441756E+03  0.00000000000E+00 0. -1.
         25    2    1    2    0    0  0.17939243683E+03  0.14158241993E+03  0.18462059295E+03  0.31928039205E+03  0.12501190896E+03 0.  0.
          2    1    1    2  501    0 -0.38005283705E+02  0.30831666316E+02 -0.95793101877E+02  0.10757003116E+03  0.00000000000E+00 0. -1.
          1    1    1    2  502    0 -0.14138715313E+03 -0.17241408625E+03  0.24433806927E+03  0.33078397225E+03  0.00000000000E+00 0. -1.
         22    1    3    3    0    0  0.36416935453E+02  0.28780246422E+02  0.11551806349E+03  0.12449465356E+03  0.00000000000E+00 0.  1.
         22    1    3    3    0    0  0.14297550138E+03  0.11280217351E+03  0.69102529457E+02  0.19478573849E+03  0.00000000000E+00 0.  1.
</event>
<event>
 7    1  0.6443388E-006  0.5008335E+02  0.7818608E-02  0.1498693E+00
          2   -1    0    0  502    0  0.00000000000E+00  0.00000000000E+00  0.13572138054E+04  0.13572138054E+04  0.00000000000E+00 0. -1.
          1   -1    0    0  501    0 -0.00000000000E+00 -0.00000000000E+00 -0.31736068458E+02  0.31736068458E+02  0.00000000000E+00 0. -1.
         25    2    1    2    0    0  0.44662639410E+02  0.12311110918E+02  0.66821488872E+03  0.68138242616E+03  0.12499823343E+03 0.  0.
          2    1    1    2  501    0 -0.45732860346E+02  0.21767626798E+02  0.12451672693E+01  0.50664331965E+02  0.00000000000E+00 0. -1.
          1    1    1    2  502    0  0.10702209363E+01 -0.34078737716E+02  0.65601768096E+03  0.65690311574E+03  0.00000000000E+00 0. -1.
         22    1    3    3    0    0 -0.77177550953E+00  0.61262291923E+02  0.41543544509E+03  0.41992889051E+03  0.00000000000E+00 0. -1.
         22    1    3    3    0    0  0.45434414920E+02 -0.48951181005E+02  0.25277944362E+03  0.26145353564E+03  0.00000000000E+00 0. -1.
</event>
<event>
 7    1  0.6443388E-006  0.5171110E+02  0.7818608E-02  0.1440833E+00
          2   -1    0    0  502    0  0.00000000000E+00  0.00000000000E+00  0.98646582810E+03  0.98646582810E+03  0.00000000000E+00 0. -1.
          1   -1    0    0  501    0 -0.00000000000E+00 -0.00000000000E+00 -0.73119235320E+02  0.73119235320E+02  0.00000000000E+00 0. -1.
         25    2    1    2    0    0  0.12962552978E+01 -0.40141152070E+02  0.40287087254E+03  0.42372268742E+03  0.12499193386E+03 0.  0.
          2    1    1    2  501    0  0.46333389078E+02  0.24945946939E+02 -0.50339745402E+02  0.72822889116E+02  0.00000000000E+00 0. -1.
          1    1    1    2  502    0 -0.47629644376E+02  0.15195205131E+02  0.56081546564E+03  0.56303948688E+03  0.00000000000E+00 0. -1.
         22    1    3    3    0    0 -0.15060538391E+01 -0.75687631875E+02  0.14668974833E+03  0.16507200878E+03  0.00000000000E+00 0.  1.
         22    1    3    3    0    0  0.28023091369E+01  0.35546479804E+02  0.25618112421E+03  0.25865067864E+03  0.00000000000E+00 0.  1.
</event>
<event>
 7    1  0.6443388E-006  0.3890479E+03  0.7818608E-02  0.1107783E+00
          2   -1    0    0  502    0  0.00000000000E+00  0.00000000000E+00  0.69400814287E+03  0.69400814287E+03  0.00000000000E+00 0. -1.
          1   -1    0    0  501    0 -0.00000000000E+00 -0.00000000000E+00 -0.13757235919E+04  0.13757235919E+04  0.00000000000E+00 0. -1.
         25    2    1    2    0    0 -0.33260842055E+03 -0.12248459490E+03 -0.14208281797E+03  0.40180530747E+03  0.12501656107E+03 0.  0.
          2    1    1    2  501    0  0.40555648832E+03 -0.33655760542E+02 -0.10516717722E+04  0.11276623129E+04  0.00000000000E+00 0. -1.
          1    1    1    2  502    0 -0.72948067774E+02  0.15614035545E+03  0.51203914118E+03  0.54026411438E+03  0.00000000000E+00 0. -1.
         22    1    3    3    0    0 -0.23704820391E+03 -0.13196794072E+03 -0.65819413670E+02  0.27917661716E+03  0.00000000000E+00 0. -1.
         22    1    3    3    0    0 -0.95560216637E+02  0.94833458114E+01 -0.76263404303E+02  0.12262869031E+03  0.00000000000E+00 0. -1.
</event>
<event>
 7    1  0.6443388E-006  0.8008588E+02  0.7818608E-02  0.1455754E+00
          2   -1    0    0  502    0  0.00000000000E+00  0.00000000000E+00  0.12112438221E+04  0.12112438221E+04  0.00000000000E+00 0. -1.
          1   -1    0    0  501    0 -0.00000000000E+00 -0.00000000000E+00 -0.33846169184E+02  0.33846169184E+02  0.00000000000E+00 0. -1.
         25    2    1    2    0    0 -0.53944830815E+02  0.22747842386E+02  0.65820854653E+03  0.67252594073E+03  0.12500056447E+03 0.  0.
          2    1    1    2  501    0  0.66202687703E+02 -0.48933829197E+02  0.38284494346E+02  0.90791067877E+02  0.00000000000E+00 0. -1.
          1    1    1    2  502    0 -0.12257856888E+02  0.26185986811E+02  0.48090461207E+03  0.48177298271E+03  0.00000000000E+00 0. -1.
         22    1    3    3    0    0  0.34136780711E+02 -0.20406829556E+01  0.78293758298E+02  0.85436507260E+02  0.00000000000E+00 0. -1.
         22    1    3    3    0    0 -0.88081611526E+02  0.24788525342E+02  0.57991478823E+03  0.58708943347E+03  0.00000000000E+00 0. -1.
</event>
<event>
 7    1  0.6443388E-006  0.1446522E+03  0.7818608E-02  0.1284240E+00
          2   -1    0    0  502    0  0.00000000000E+00  0.00000000000E+00  0.10649060402E+04  0.10649060402E+04  0.00000000000E+00 0. -1.
          1   -1    0    0  501    0 -0.00000000000E+00 -0.00000000000E+00 -0.84101329138E+03  0.84101329138E+03  0.00000000000E+00 0. -1.
         25    2    1    2    0    0  0.19071698524E+03 -0.80742966039E+02  0.22944685373E+03  0.33340959385E+03  0.12499481415E+03 0.  0.
          2    1    1    2  501    0 -0.13721378221E+03  0.41092394030E+02 -0.78109275902E+03  0.79411718598E+03  0.00000000000E+00 0. -1.
          1    1    1    2  502    0 -0.53503203027E+02  0.39650572010E+02  0.77553865411E+03  0.77839255174E+03  0.00000000000E+00 0. -1.
         22    1    3    3    0    0 -0.10086056623E+00  0.22105527592E+02  0.39159084558E+02  0.44967748736E+02  0.00000000000E+00 0.  1.
         22    1    3    3    0    0  0.19081784580E+03 -0.10284849363E+03  0.19028776917E+03  0.28844184512E+03  0.00000000000E+00 0.  1.
</event>
<event>
 7    1  0.6443388E-006  0.1183021E+03  0.7818608E-02  0.1309113E+00
          2   -1    0    0  502    0  0.00000000000E+00  0.00000000000E+00  0.38511390210E+03  0.38511390210E+03  0.00000000000E+00 0. -1.
          1   -1    0    0  501    0 -0.00000000000E+00 -0.00000000000E+00 -0.95350892046E+03  0.95350892046E+03  0.00000000000E+00 0. -1.
         25    2    1    2    0    0  0.29723438326E+02  0.47877901479E+02 -0.43961104056E+03  0.46049724461E+03  0.12499627623E+03 0.  0.
          2    1    1    2  501    0  0.16171268137E+02  0.62608942072E+02 -0.49173295244E+03  0.49596641626E+03  0.00000000000E+00 0. -1.
          1    1    1    2  502    0 -0.45894706463E+02 -0.11048684355E+03  0.36294897464E+03  0.38215916170E+03  0.00000000000E+00 0. -1.
         22    1    3    3    0    0  0.97861386868E+01  0.68053589225E+01  0.54457028545E+01  0.13104850249E+02  0.00000000000E+00 0. -1.
         22    1    3    3    0    0  0.19937299640E+02  0.41072542557E+02 -0.44505674342E+03  0.44739239436E+03  0.00000000000E+00 0. -1.
</event>
<event>
 7    1  0.6443388E-006  0.1262192E+03  0.7818608E-02  0.1241695E+00
          2   -1    0    0  502    0  0.00000000000E+00  0.00000000000E+00  0.11555687864E+04  0.11555687864E+04  0.00000000000E+00 0. -1.
          1   -1    0    0  501    0 -0.00000000000E+00 -0.00000000000E+00 -0.18843422480E+03  0.18843422480E+03  0.00000000000E+00 0. -1.
         25    2    1    2    0    0 -0.26729735327E+02 -0.15977792459E+03  0.55888021697E+03  0.59516124440E+03  0.12500538381E+03 0.  0.
          2    1    1    2  501    0  0.10340755110E+03  0.73112309006E+02 -0.13984121277E+03  0.18866397680E+03  0.00000000000E+00 0. -1.
          1    1    1    2  502    0 -0.76677815777E+02  0.86665615586E+02  0.54809555743E+03  0.56017779002E+03  0.00000000000E+00 0. -1.
         22    1    3    3    0    0  0.19294767562E+02 -0.38482005947E+02  0.35073098870E+02  0.55527246477E+02  0.00000000000E+00 0.  1.
         22    1    3    3    0    0 -0.46024502889E+02 -0.12129591865E+03  0.52380711810E+03  0.53963399792E+03  0.00000000000E+00 0.  1.
</event>
<event>
 7    1  0.6443388E-006  0.5328567E+02  0.7818608E-02  0.1430605E+00
          2   -1    0    0  502    0  0.00000000000E+00  0.00000000000E+00  0.20779148176E+03  0.20779148176E+03  0.00000000000E+00 0. -1.
          1   -1    0    0  501    0 -0.00000000000E+00 -0.00000000000E+00 -0.13061426028E+04  0.13061426028E+04  0.00000000000E+00 0. -1.
         25    2    1    2    0    0  0.11808262368E+02 -0.42779201023E+02 -0.58922703337E+03  0.60397447837E+03  0.12500871398E+03 0.  0.
          2    1    1    2  501    0  0.40763286215E+02  0.32918841652E+02 -0.70498347120E+03  0.70692785367E+03  0.00000000000E+00 0. -1.
          1    1    1    2  502    0 -0.52571548582E+02  0.98603593715E+01  0.19585938354E+03  0.20303175251E+03  0.00000000000E+00 0. -1.
         22    1    3    3    0    0 -0.49116914887E+02 -0.49696805374E+02 -0.26877732616E+03  0.27771117164E+03  0.00000000000E+00 0. -1.
         22    1    3    3    0    0  0.60925177255E+02  0.69176043506E+01 -0.32044970720E+03  0.32626330673E+03  0.00000000000E+00 0. -1.
</event>
<event>
 7    1  0.6443388E-006  0.5211808E+02  0.7818608E-02  0.1439591E+00
          2   -1    0    0  502    0  0.00000000000E+00  0.00000000000E+00  0.72968429903E+03  0.72968429903E+03  0.00000000000E+00 0. -1.
          1   -1    0    0  501    0 -0.00000000000E+00 -0.00000000000E+00 -0.21469423031E+02  0.21469423031E+02  0.00000000000E+00 0. -1.
         25    2    1    2    0    0 -0.11161830706E+02  0.88397503837E+01  0.28660868277E+03  0.31300346458E+03  0.12499561651E+03 0.  0.
          2    1    1    2  501    0 -0.49940914891E+02 -0.35479691449E+01  0.11431359382E+03  0.12479695829E+03  0.00000000000E+00 0. -1.
          1    1    1    2  502    0  0.61102745596E+02 -0.52917812388E+01  0.30729259940E+03  0.31335329920E+03  0.00000000000E+00 0. -1.
         22    1    3    3    0    0 -0.50202100079E+00  0.41241384239E+02  0.23053338972E+02  0.47249976051E+02  0.00000000000E+00 0. -1.
         22    1    3    3    0    0 -0.10659809705E+02 -0.32401633855E+02  0.26355534380E+03  0.26575348853E+03  0.00000000000E+00 0. -1.
</event>
<event>
 7    1  0.6443388E-006  0.3615011E+03  0.7818608E-02  0.1158257E+00
          2   -1    0    0  502    0  0.00000000000E+00  0.00000000000E+00  0.18262970688E+04  0.18262970688E+04  0.00000000000E+00 0. -1.
          1   -1    0    0  501    0 -0.00000000000E+00 -0.00000000000E+00 -0.52510784799E+03  0.52510784799E+03  0.00000000000E+00 0. -1.
         25    2    1    2    0    0  0.34033779835E+03  0.68141177731E+02  0.25152744178E+03  0.44650102834E+03  0.12499630894E+03 0.  0.
          2    1    1    2  501    0 -0.36610739014E+03  0.28584916411E+02 -0.34665930556E+03  0.50499939871E+03  0.00000000000E+00 0. -1.
          1    1    1    2  502    0  0.25769591795E+02 -0.96726094142E+02  0.13963210846E+04  0.13999044898E+04  0.00000000000E+00 0. -1.
         22    1    3    3    0    0  0.96341970588E+02  0.20551960797E+01  0.10007102281E+02  0.96882099604E+02  0.00000000000E+00 0. -1.
         22    1    3    3    0    0  0.24399582776E+03  0.66085981652E+02  0.24152033950E+03  0.34961892873E+03  0.00000000000E+00 0. -1.
</event>
<event>
 7    1  0.6443388E-006  0.7535922E+02  0.7818608E-02  0.1420602E+00
          2   -1    0    0  502    0  0.00000000000E+00  0.00000000000E+00  0.22461011595E+02  0.22461011595E+02  0.00000000000E+00 0. -1.
          1   -1    0    0  501    0 -0.00000000000E+00 -0.00000000000E+00 -0.12061667751E+04  0.12061667751E+04  0.00000000000E+00 0. -1.
         25    2    1    2    0    0 -0.80467176380E+02 -0.54986109646E+02 -0.55495387888E+03  0.57714540531E+03  0.12499828979E+03 0.  0.
          2    1    1    2  501    0  0.10668106740E+02  0.38536918688E+02 -0.51800117758E+03  0.51954222405E+03  0.00000000000E+00 0. -1.
          1    1    1    2  502    0  0.69799069640E+02  0.16449190958E+02 -0.11075070702E+03  0.13194015731E+03  0.00000000000E+00 0. -1.
         22    1    3    3    0    0 -0.48507876583E+01  0.37866810661E+02 -0.11407790489E+03  0.12029627540E+03  0.00000000000E+00 0.  1.
         22    1    3    3    0    0 -0.75616388722E+02 -0.92852920307E+02 -0.44087597399E+03  0.45684912990E+03  0.00000000000E+00 0.  1.
</event>
<event>
 7    1  0.6443388E-006  0.1047350E+03  0.7818608E-02  0.1380240E+00
          2   -1    0    0  502    0  0.00000000000E+00  0.00000000000E+00  0.30651275770E+03  0.30651275770E+03  0.00000000000E+00 0. -1.
          1   -1    0    0  501    0 -0.00000000000E+00 -0.00000000000E+00 -0.14553150092E+04  0.14553150092E+04  0.00000000000E+00 0. -1.
         25    2    1    2    0    0 -0.69035254319E+02  0.28339144694E+02 -0.24352468734E+03  0.28373588710E+03  0.12503122340E+03 0.  0.
          2    1    1    2  501    0 -0.14491335672E+02  0.36852580646E+02 -0.11815421029E+04  0.11822055035E+04  0.00000000000E+00 0. -1.
          1    1    1    2  502    0  0.83526589991E+02 -0.65191725340E+02  0.27626453878E+03  0.29588637629E+03  0.00000000000E+00 0. -1.
         22    1    3    3    0    0  0.12506981092E+01  0.59317470981E+02 -0.15805330929E+03  0.16882231839E+03  0.00000000000E+00 0.  1.
         22    1    3    3    0    0 -0.70285952428E+02 -0.30978326288E+02 -0.85471378058E+02  0.11491356872E+03  0.00000000000E+00 0.  1.
</event>
<event>
 7    1  0.6443388E-006  0.5024438E+02  0.7818608E-02  0.1474313E+00
          2   -1    0    0  502    0  0.00000000000E+00  0.00000000000E+00  0.82158091775E+02  0.82158091775E+02  0.00000000000E+00 0. -1.
          1   -1    0    0  501    0 -0.00000000000E+00 -0.00000000000E+00 -0.77153071724E+03  0.77153071724E+03  0.00000000000E+00 0. -1.
         25    2    1    2    0    0  0.82633194072E+02  0.14428235523E+02 -0.55313850248E+02  0.16037767363E+03  0.12499982971E+03 0.  0.
          2    1    1    2  501    0 -0.37672798021E+02 -0.14344395919E+02 -0.64562862525E+03  0.64688586562E+03  0.00000000000E+00 0. -1.
          1    1    1    2  502    0 -0.44960396051E+02 -0.83839603715E-01  0.11569850036E+02  0.46425269757E+02  0.00000000000E+00 0. -1.
         22    1    3    3    0    0  0.11190449275E+03 -0.51034464046E+01 -0.27043564321E+02  0.11523894756E+03  0.00000000000E+00 0. -1.
         22    1    3    3    0    0 -0.29271298677E+02  0.19531681928E+02 -0.28270285927E+02  0.45138726074E+02  0.00000000000E+00 0. -1.
</event>
<event>
 7    1  0.6443388E-006  0.1496948E+03  0.7818608E-02  0.1253307E+00
          2   -1    0    0  502    0  0.00000000000E+00  0.00000000000E+00  0.62761593391E+03  0.62761593391E+03  0.00000000000E+00 0. -1.
          1   -1    0    0  501    0 -0.00000000000E+00 -0.00000000000E+00 -0.19319799254E+03  0.19319799254E+03  0.00000000000E+00 0. -1.
         25    2    1    2    0    0 -0.13662631073E+03 -0.17020610704E+03  0.24999876040E+03  0.35462865875E+03  0.12500095098E+03 0.  0.
          2    1    1    2  501    0  0.52657228490E+02  0.69056771883E+02 -0.11211661219E+03  0.14181592359E+03  0.00000000000E+00 0. -1.
          1    1    1    2  502    0  0.83969082238E+02  0.10114933516E+03  0.29653579316E+03  0.32436934411E+03  0.00000000000E+00 0. -1.
         22    1    3    3    0    0 -0.19095693325E+02 -0.11985298791E+03  0.97923532031E+02  0.15594358705E+03  0.00000000000E+00 0.  1.
         22    1    3    3    0    0 -0.11753061740E+03 -0.50353119131E+02  0.15207522837E+03  0.19868507170E+03  0.00000000000E+00 0.  1.
</event>
<event>
 7    1  0.6443388E-006  0.5220819E+02  0.7818608E-02  0.1502563E+00
          2   -1    0    0  502    0  0.00000000000E+00  0.00000000000E+00  0.15676771468E+03  0.15676771468E+03  0.00000000000E+00 0. -1.
          1   -1    0    0  501    0 -0.00000000000E+00 -0.00000000000E+00 -0.91734440177E+03  0.91734440177E+03  0.00000000000E+00 0. -1.
         25    2    1    2    0    0 -0.63332884073E+01  0.26122909847E+02 -0.18239709074E+03  0.22272179026E+03  0.12495511268E+03 0.  0.
          2    1    1    2  501    0  0.19575857400E+02  0.25124295397E+02 -0.70928688060E+03  0.71000163619E+03  0.00000000000E+00 0. -1.
          1    1    1    2  502    0 -0.13242568993E+02 -0.51247205244E+02  0.13110728424E+03  0.14138869000E+03  0.00000000000E+00 0. -1.
         22    1    3    3    0    0 -0.27088249760E+02  0.14735541651E+02 -0.19394543055E+03  0.19638161699E+03  0.00000000000E+00 0. -1.
         22    1    3    3    0    0  0.20754961353E+02  0.11387368196E+02  0.11548339809E+02  0.26340173263E+02  0.00000000000E+00 0. -1.
</event>
<event>
 7    1  0.6443388E-006  0.1440242E+03  0.7818608E-02  0.1253281E+00
          2   -1    0    0  502    0  0.00000000000E+00  0.00000000000E+00  0.50194373136E+03  0.50194373136E+03  0.00000000000E+00 0. -1.
          1   -1    0    0  501    0 -0.00000000000E+00 -0.00000000000E+00 -0.14537960853E+04  0.14537960853E+04  0.00000000000E+00 0. -1.
         25    2    1    2    0    0  0.80157881127E+02 -0.55644349313E+02 -0.58028680130E+02  0.16886515988E+03  0.12500613980E+03 0.  0.
          2    1    1    2  501    0  0.70972903921E+02  0.55805781001E+02 -0.13259820333E+04  0.13290522153E+04  0.00000000000E+00 0. -1.
          1    1    1    2  502    0 -0.15113078505E+03 -0.16143168725E+00  0.43215835950E+03  0.45782244150E+03  0.00000000000E+00 0. -1.
         22    1    3    3    0    0  0.11308022608E+03 -0.54069843048E+02 -0.41815612143E+02  0.13213338290E+03  0.00000000000E+00 0.  1.
         22    1    3    3    0    0 -0.32922344950E+02 -0.15745062655E+01 -0.16213067987E+02  0.36731776986E+02  0.00000000000E+00 0.  1.
</event>
<event>
 7    1  0.6443388E-006  0.1076228E+03  0.7818608E-02  0.1392867E+00
          2   -1    0    0  502    0  0.00000000000E+00  0.00000000000E+00  0.41760566594E+04  0.41760566594E+04  0.00000000000E+00 0. -1.
          1   -1    0    0  501    0 -0.00000000000E+00 -0.00000000000E+00 -0.65845079671E+03  0.65845079671E+03  0.00000000000E+00 0. -1.
         25    2    1    2    0    0 -0.64137644340E+02  0.11490603905E+03  0.13985540372E+04  0.14102826346E+04  0.12500671623E+03 0.  0.
          2    1    1    2  501    0 -0.20142181892E+01 -0.34742210791E+02 -0.65114732635E+03  0.65207662042E+03  0.00000000000E+00 0. -1.
          1    1    1    2  502    0  0.66151862529E+02 -0.80163828258E+02  0.27701991519E+04  0.27721482012E+04  0.00000000000E+00 0. -1.
         22    1    3    3    0    0  0.29727364579E+02 -0.13160810094E+01  0.15919604085E+03  0.16195316513E+03  0.00000000000E+00 0. -1.
         22    1    3    3    0    0 -0.93865008919E+02  0.11622212006E+03  0.12393579964E+04  0.12483294694E+04  0.00000000000E+00 0. -1.
</event>
<event>
 7    1  0.6443388E-006  0.9104560E+02  0.7818608E-02  0.1388969E+00
          2   -1    0    0  502    0  0.00000000000E+00  0.00000000000E+00  0.13182743496E+04  0.13182743496E+04  0.00000000000E+00 0. -1.
          1   -1    0    0  501    0 -0.00000000000E+00 -0.00000000000E+00 -0.24061652635E+03  0.24061652635E+03  0.00000000000E+00 0. -1.
         25    2    1    2    0    0 -0.11452565911E+03 -0.44480258260E+02  0.12072831873E+03  0.21282597277E+03  0.12499979109E+03 0.  0.
          2    1    1    2  501    0  0.41631809868E+02 -0.82632423221E+01 -0.19047067152E+03  0.19514242356E+03  0.00000000000E+00 0. -1.
          1    1    1    2  502    0  0.72893849237E+02  0.52743500582E+02  0.11474001760E+04  0.11509224796E+04  0.00000000000E+00 0. -1.
         22    1    3    3    0    0 -0.50549409880E+02 -0.55158645523E+02 -0.10792741792E+01  0.74825689759E+02  0.00000000000E+00 0.  1.
         22    1    3    3    0    0 -0.63976249225E+02  0.10678387264E+02  0.12180759291E+03  0.13800028301E+03  0.00000000000E+00 0.  1.
</event>
<event>
 7    1  0.6443388E-006  0.1587045E+03  0.7818608E-02  0.1296337E+00
          2   -1    0    0  502    0  0.00000000000E+00  0.00000000000E+00  0.20486269615E+04  0.20486269615E+04  0.00000000000E+00 0. -1.
          1   -1    0    0  501    0 -0.00000000000E+00 -0.00000000000E+00 -0.35299247707E+03  0.35299247707E+03  0.00000000000E+00 0. -1.
         25    2    1    2    0    0 -0.10999181212E+03 -0.73423406968E+02  0.29851398965E+03  0.34960643398E+03  0.12499944498E+03 0.  0.
          2    1    1    2  501    0  0.15484274775E+03  0.42994188654E+02 -0.30727270734E+03  0.34675826373E+03  0.00000000000E+00 0. -1.
          1    1    1    2  502    0 -0.44850935634E+02  0.30429218313E+02  0.17043932021E+04  0.17052547409E+04  0.00000000000E+00 0. -1.
         22    1    3    3    0    0  0.25481568078E+02 -0.15765444725E+01  0.23349089516E+02  0.34597337837E+02  0.00000000000E+00 0.  1.
         22    1    3    3    0    0 -0.13547338019E+03 -0.71846862495E+02  0.27516490013E+03  0.31500909615E+03  0.00000000000E+00 0.  1.
</event>
<event>
 7    1  0.6443388E-006  0.7663438E+02  0.7818608E-02  0.1473333E+00
          2   -1    0    0  502    0  0.00000000000E+00  0.00000000000E+00  0.17446226497E+04  0.17446226497E+04  0.00000000000E+00 0. -1.
          1   -1    0    0  501    0 -0.00000000000E+00 -0.00000000000E+00 -0.19146567348E+03  0.19146567348E+03  0.00000000000E+00 0. -1.
         25    2    1    2    0    0  0.56470555978E+00 -0.54952613520E+02  0.30575759105E+02  0.13991755606E+03  0.12498774670E+03 0.  0.
          2    1    1    2  501    0  0.17721069104E+02 -0.19857277130E+02 -0.13459746779E+03  0.13720359355E+03  0.00000000000E+00 0. -1.
          1    1    1    2  502    0 -0.18285774664E+02  0.74809890650E+02  0.16571786849E+04  0.16589671736E+04  0.00000000000E+00 0. -1.
         22    1    3    3    0    0 -0.20193414360E+02  0.32732050673E+02  0.31641372769E+02  0.49802987817E+02  0.00000000000E+00 0.  1.
         22    1    3    3    0    0  0.20758119920E+02 -0.87684664193E+02 -0.10656136637E+01  0.90114568243E+02  0.00000000000E+00 0.  1.
</event>
<event>
 7    1  0.6443388E-006  0.2114855E+03  0.7818608E-02  0.1253849E+00
          2   -1    0    0  502    0  0.00000000000E+00  0.00000000000E+00  0.23897112425E+04  0.23897112425E+04  0.00000000000E+00 0. -1.
          1   -1    0    0  501    0 -0.00000000000E+00 -0.00000000000E+00 -0.50829729676E+03  0.50829729676E+03  0.00000000000E+00 0. -1.
         25    2    1    2    0    0 -0.16254415304E+03 -0.33987334729E+02  0.46385922155E+02  0.21297737913E+03  0.12502787544E+03 0.  0.
          2    1    1    2  501    0 -0.51902081863E+02  0.32314131580E+02 -0.41768373404E+03  0.42213473072E+03  0.00000000000E+00 0. -1.
          1    1    1    2  502    0  0.21444623491E+03  0.16732031484E+01  0.22527117576E+04  0.22628964294E+04  0.00000000000E+00 0. -1.
         22    1    3    3    0    0  0.18286946525E+01  0.74889474419E+01  0.42722900893E+02  0.43412840481E+02  0.00000000000E+00 0.  1.
         22    1    3    3    0    0 -0.16437284770E+03 -0.41476282171E+02  0.36630212620E+01  0.16956453865E+03  0.00000000000E+00 0.  1.
</event>
<event>
 7    1  0.6443388E-006  0.1219231E+03  0.7818608E-02  0.1395663E+00
          2   -1    0    0  502    0  0.00000000000E+00  0.00000000000E+00  0.14131089044E+04  0.14131089044E+04  0.00000000000E+00 0. -1.
          1   -1    0    0  501    0 -0.00000000000E+00 -0.00000000000E+00 -0.10886765491E+04  0.10886765491E+04  0.00000000000E+00 0. -1.
         25    2    1    2    0    0 -0.14168541431E+03 -0.52738078826E+02  0.18884985260E+03  0.27229330887E+03  0.12499327039E+03 0.  0.
          2    1    1    2  501    0  0.11238412331E+03  0.46113948689E+02 -0.10432391044E+04  0.10502878255E+04  0.00000000000E+00 0. -1.
          1    1    1    2  502    0  0.29301290995E+02  0.66241301367E+01  0.11788216071E+04  0.11792043191E+04  0.00000000000E+00 0. -1.
         22    1    3    3    0    0 -0.71162335853E+02 -0.90529231984E+02  0.97741261576E+02  0.15103964414E+03  0.00000000000E+00 0. -1.
         22    1    3    3    0    0 -0.70523078455E+02  0.37791153158E+02  0.91108591020E+02  0.12125366473E+03  0.00000000000E+00 0. -1.
</event>
<event>
 7    1  0.6443388E-006  0.9555281E+02  0.7818608E-02  0.1374967E+00
          2   -1    0    0  502    0  0.00000000000E+00  0.00000000000E+00  0.14052786691E+04  0.14052786691E+04  0.00000000000E+00 0. -1.
          1   -1    0    0  501    0 -0.00000000000E+00 -0.00000000000E+00 -0.88152224721E+03  0.88152224721E+03  0.00000000000E+00 0. -1.
         25    2    1    2    0    0  0.72999068997E+02 -0.87972675022E+02 -0.55283653108E+01  0.16948059020E+03  0.12500020802E+03 0.  0.
          2    1    1    2  501    0  0.11522840498E+02  0.43829626118E+02 -0.79165109499E+03  0.79294720390E+03  0.00000000000E+00 0. -1.
          1    1    1    2  502    0 -0.84521909495E+02  0.44143048904E+02  0.13209358822E+04  0.13243731223E+04  0.00000000000E+00 0. -1.
         22    1    3    3    0    0  0.52737823576E+02 -0.83154773712E+02  0.49812505566E+02  0.11035071426E+03  0.00000000000E+00 0.  1.
         22    1    3    3    0    0  0.20261245421E+02 -0.48179013098E+01 -0.55340870877E+02  0.59129875938E+02  0.00000000000E+00 0.  1.
</event>
<event>
 7    1  0.6443388E-006  0.4387316E+02  0.7818608E-02  0.1527506E+00
          2   -1    0    0  502    0  0.00000000000E+00  0.00000000000E+00  0.66498907892E+03  0.66498907892E+03  0.00000000000E+00 0. -1.
          1   -1    0    0  501    0 -0.00000000000E+00 -0.00000000000E+00 -0.20546084997E+03  0.20546084997E+03  0.00000000000E+00 0. -1.
         25    2    1    2    0    0  0.56488630136E+02  0.40932278149E+02  0.36436765456E+03  0.39147971991E+03  0.12500466664E+03 0.  0.
          2    1    1    2  501    0 -0.30874131475E+02 -0.85738494739E+01 -0.18906654934E+03  0.19176256926E+03  0.00000000000E+00 0. -1.
          1    1    1    2  502    0 -0.25614498660E+02 -0.32358428675E+02  0.28422712373E+03  0.28720763971E+03  0.00000000000E+00 0. -1.
         22    1    3    3    0    0  0.57655262873E+02 -0.18465886756E+02  0.29022032133E+03  0.29646745727E+03  0.00000000000E+00 0. -1.
         22    1    3    3    0    0 -0.11666327372E+01  0.59398164905E+02  0.74147333236E+02  0.95012262640E+02  0.00000000000E+00 0. -1.
</event>
<event>
 7    1  0.6443388E-006  0.3298012E+03  0.7818608E-02  0.1275288E+00
          2   -1    0    0  502    0  0.00000000000E+00  0.00000000000E+00  0.87631335458E+03  0.87631335458E+03  0.00000000000E+00 0. -1.
          1   -1    0    0  501    0 -0.00000000000E+00 -0.00000000000E+00 -0.11516553604E+04  0.11516553604E+04  0.00000000000E+00 0. -1.
         25    2    1    2    0    0  0.13556849689E+03 -0.27204007054E+03  0.77992913997E+02  0.33777571469E+03  0.12499968589E+03 0.  0.
          2    1    1    2  501    0 -0.16018915288E+03  0.29217645859E+03 -0.99419338679E+03  0.10485457253E+04  0.00000000000E+00 0. -1.
          1    1    1    2  502    0  0.24620655990E+02 -0.20136388044E+02  0.64085846697E+03  0.64164727500E+03  0.00000000000E+00 0. -1.
         22    1    3    3    0    0  0.14087409342E+03 -0.16135402239E+03  0.74913013728E+02  0.22691978839E+03  0.00000000000E+00 0.  1.
         22    1    3    3    0    0 -0.53055965241E+01 -0.11068604816E+03  0.30799002693E+01  0.11085592630E+03  0.00000000000E+00 0.  1.
</event>
<event>
 7    1  0.1264657E-005  0.8539137E+02  0.7818608E-02  0.1337512E+00
          2   -1    0    0  502    0  0.00000000000E+00  0.00000000000E+00  0.17634352754E+04  0.17634352754E+04  0.00000000000E+00 0. -1.
          1   -1    0    0  501    0 -0.00000000000E+00 -0.00000000000E+00 -0.11034835859E+04  0.11034835859E+04  0.00000000000E+00 0. -1.
         25    2    1    2    0    0  0.27418281054E+02  0.86281638129E+02 -0.20572136635E+03  0.25718266848E+03  0.12500144469E+03 0.  0.
          2    1    1    2  501    0 -0.78121817862E+02 -0.38603225012E+02 -0.86915516393E+03  0.87351240770E+03  0.00000000000E+00 0. -1.
          1    1    1    2  502    0  0.50703536807E+02 -0.47678413117E+02  0.17348282199E+04  0.17362237852E+04  0.00000000000E+00 0. -1.
         22    1    3    3    0    0  0.31327105149E+02 -0.78212842652E+01 -0.13657916360E+03  0.14034396295E+03  0.00000000000E+00 0. -1.
         22    1    3    3    0    0 -0.39088240948E+01  0.94102922394E+02 -0.69142202751E+02  0.11683870553E+03  0.00000000000E+00 0. -1.
</event>
<event>
 7    1  0.6443388E-006  0.1857652E+03  0.7818608E-02  0.1336151E+00
          2   -1    0    0  502    0  0.00000000000E+00  0.00000000000E+00  0.55030874877E+03  0.55030874877E+03  0.00000000000E+00 0. -1.
          1   -1    0    0  501    0 -0.00000000000E+00 -0.00000000000E+00 -0.57978749577E+03  0.57978749577E+03  0.00000000000E+00 0. -1.
         25    2    1    2    0    0 -0.72644234971E+02 -0.18766151035E+03 -0.22706134993E+03  0.32814007466E+03  0.12500009852E+03 0.  0.
          2    1    1    2  501    0 -0.18356041942E+02  0.26667554264E+02 -0.28412807997E+03  0.28596655146E+03  0.00000000000E+00 0. -1.
          1    1    1    2  502    0  0.91000276913E+02  0.16099395608E+03  0.48171068290E+03  0.51598961842E+03  0.00000000000E+00 0. -1.
         22    1    3    3    0    0 -0.44002678385E+02 -0.84570236763E+02 -0.19399066913E+03  0.21614980999E+03  0.00000000000E+00 0. -1.
         22    1    3    3    0    0 -0.28641556586E+02 -0.10309127359E+03 -0.33070680799E+02  0.11199026467E+03  0.00000000000E+00 0. -1.
</event>
<event>
 7    1  0.6443388E-006  0.6715475E+02  0.7818608E-02  0.1445116E+00
          2   -1    0    0  502    0  0.00000000000E+00  0.00000000000E+00  0.79695425716E+02  0.79695425716E+02  0.00000000000E+00 0. -1.
          1   -1    0    0  501    0 -0.00000000000E+00 -0.00000000000E+00 -0.64675417194E+03  0.64675417194E+03  0.00000000000E+00 0. -1.
         25    2    1    2    0    0 -0.10703399320E+02 -0.93289902275E+02 -0.22572118013E+03  0.27457949033E+03  0.12500510679E+03 0.  0.
          2    1    1    2  501    0  0.23263834733E+02  0.29143083095E+02 -0.37602638169E+03  0.37787083114E+03  0.00000000000E+00 0. -1.
          1    1    1    2  502    0 -0.12560435413E+02  0.64146819180E+02  0.34688815600E+02  0.73999276188E+02  0.00000000000E+00 0. -1.
         22    1    3    3    0    0 -0.23233916964E+01  0.31129521847E+02 -0.53696889875E+02  0.62111200775E+02  0.00000000000E+00 0. -1.
         22    1    3    3    0    0 -0.83800076239E+01 -0.12441942412E+03 -0.17202429026E+03  0.21246828955E+03  0.00000000000E+00 0. -1.
</event>
<event>
 7    1  0.6443388E-006  0.6860735E+02  0.7818608E-02  0.1441675E+00
          2   -1    0    0  502    0  0.00000000000E+00  0.00000000000E+00  0.16893651809E+04  0.16893651809E+04  0.00000000000E+00 0. -1.
          1   -1    0    0  501    0 -0.00000000000E+00 -0.00000000000E+00 -0.95958285460E+03  0.95958285460E+03  0.00000000000E+00 0. -1.
         25    2    1    2    0    0 -0.68342101585E+02 -0.55350889043E+00  0.12170593658E+03  0.18737412508E+03  0.12500311407E+03 0.  0.
          2    1    1    2  501    0  0.94599362818E+01  0.36231647247E+02 -0.92559790916E+03  0.92635506805E+03  0.00000000000E+00 0. -1.
          1    1    1    2  502    0  0.58882165303E+02 -0.35678138357E+02  0.15336742989E+04  0.15352188424E+04  0.00000000000E+00 0. -1.
         22    1    3    3    0    0 -0.33975066220E+02  0.26886479701E+02  0.13471639996E+03  0.14151217733E+03  0.00000000000E+00 0.  1.
         22    1    3    3    0    0 -0.34367035365E+02 -0.27439988592E+02 -0.13010463375E+02  0.45861947744E+02  0.00000000000E+00 0.  1.
</event>
<event>
 7    1  0.6443388E-006  0.9328608E+02  0.7818608E-02  0.1340055E+00
          2   -1    0    0  502    0  0.00000000000E+00  0.00000000000E+00  0.13957499436E+04  0.13957499436E+04  0.00000000000E+00 0. -1.
          1   -1    0    0  501    0 -0.00000000000E+00 -0.00000000000E+00 -0.18686544178E+02  0.18686544178E+02  0.00000000000E+00 0. -1.
         25    2    1    2    0    0 -0.17921170792E+02 -0.55621707298E+02  0.80456738098E+03  0.81631469844E+03  0.12500429457E+03 0.  0.
          2    1    1    2  501    0 -0.12640984742E+02  0.10993171984E+03  0.35141776027E+03  0.36842803878E+03  0.00000000000E+00 0. -1.
          1    1    1    2  502    0  0.30562155535E+02 -0.54310012541E+02  0.22107825817E+03  0.22969375057E+03  0.00000000000E+00 0. -1.
         22    1    3    3    0    0  0.28079957230E+02 -0.44342913793E+02  0.69461149059E+03  0.69659163134E+03  0.00000000000E+00 0.  1.
         22    1    3    3    0    0 -0.46001128023E+02 -0.11278793505E+02  0.10995589040E+03  0.11972306710E+03  0.00000000000E+00 0.  1.
</event>
<event>
 7    1  0.6443388E-006  0.1138328E+03  0.7818608E-02  0.1368181E+00
          2   -1    0    0  502    0  0.00000000000E+00  0.00000000000E+00  0.10754726982E+03  0.10754726982E+03  0.00000000000E+00 0. -1.
          1   -1    0    0  501    0 -0.00000000000E+00 -0.00000000000E+00 -0.54007211242E+03  0.54007211242E+03  0.00000000000E+00 0. -1.
         25    2    1    2    0    0 -0.11861012052E+02  0.97391932680E+02 -0.29811363272E+03  0.33782048847E+03  0.12500028905E+03 0.  0.
          2    1    1    2  501    0  0.42352787744E+02 -0.12364169155E+03 -0.19639197052E+03  0.23590428696E+03  0.00000000000E+00 0. -1.
          1    1    1    2  502    0 -0.30491775692E+02  0.26249758872E+02  0.61980760638E+02  0.73894606805E+02  0.00000000000E+00 0. -1.
         22    1    3    3    0    0 -0.37343921079E+02  0.10390934817E+03 -0.28997702732E+03  0.31028760442E+03  0.00000000000E+00 0.  1.
         22    1    3    3    0    0  0.25482909027E+02 -0.65174154891E+01 -0.81366053920E+01  0.27532884056E+02  0.00000000000E+00 0.  1.
</event>
<event>
 7    1  0.6443388E-006  0.4671321E+02  0.7818608E-02  0.1521658E+00
          2   -1    0    0  502    0  0.00000000000E+00  0.00000000000E+00  0.12651148331E+04  0.12651148331E+04  0.00000000000E+00 0. -1.
          1   -1    0    0  501    0 -0.00000000000E+00 -0.00000000000E+00 -0.17262982085E+04  0.17262982085E+04  0.00000000000E+00 0. -1.
         25    2    1    2    0    0 -0.12689383653E+01  0.66118559732E+02  0.53466801339E+03  0.55305533015E+03  0.12500815782E+03 0.  0.
          2    1    1    2  501    0  0.20908887833E+02 -0.41764031469E+02 -0.17164474418E+04  0.17170827693E+04  0.00000000000E+00 0. -1.
          1    1    1    2  502    0 -0.19639949467E+02 -0.24354528263E+02  0.72059605306E+03  0.72127494227E+03  0.00000000000E+00 0. -1.
         22    1    3    3    0    0 -0.58292925798E+02  0.36714951374E+02  0.36943247973E+03  0.37580102439E+03  0.00000000000E+00 0. -1.
         22    1    3    3    0    0  0.57023987433E+02  0.29403608358E+02  0.16523553366E+03  0.17725430576E+03  0.00000000000E+00 0. -1.
</event>
<event>
 7    1  0.6443388E-006  0.8379585E+02  0.7818608E-02  0.1361964E+00
          2   -1    0    0  502    0  0.00000000000E+00  0.00000000000E+00  0.92829747741E+03  0.92829747741E+03  0.00000000000E+00 0. -1.
          1   -1    0    0  501    0 -0.00000000000E+00 -0.00000000000E+00 -0.12552483659E+03  0.12552483659E+03  0.00000000000E+00 0. -1.
         25    2    1    2    0    0 -0.82305012774E+02 -0.91091917347E+02  0.21506003746E+03  0.27739373718E+03  0.12499845271E+03 0.  0.
          2    1    1    2  501    0  0.83948777657E+01  0.56949375053E+02 -0.82881092226E+02  0.10091075632E+03  0.00000000000E+00 0. -1.
          1    1    1    2  502    0  0.73910135008E+02  0.34142542294E+02  0.67059369559E+03  0.67551782051E+03  0.00000000000E+00 0. -1.
         22    1    3    3    0    0 -0.71101172534E+02  0.41957124810E+01  0.51948757610E+02  0.88156985861E+02  0.00000000000E+00 0.  1.
         22    1    3    3    0    0 -0.11203840240E+02 -0.95287629828E+02  0.16311127985E+03  0.18923675132E+03  0.00000000000E+00 0.  1.
</event>
<event>
 7    1  0.6443388E-006  0.1687926E+03  0.7818608E-02  0.1364430E+00
          2   -1    0    0  502    0  0.00000000000E+00  0.00000000000E+00  0.45415540138E+03  0.45415540138E+03  0.00000000000E+00 0. -1.
          1   -1    0    0  501    0 -0.00000000000E+00 -0.00000000000E+00 -0.35670301567E+03  0.35670301567E+03  0.00000000000E+00 0. -1.
         25    2    1    2    0    0 -0.17099958431E+03 -0.32176673355E+02  0.10888699949E+02  0.21452079071E+03  0.12499763885E+03 0.  0.
          2    1    1    2  501    0  0.29488739710E+01  0.27838421711E+02 -0.23330837331E+03  0.23498185172E+03  0.00000000000E+00 0. -1.
          1    1    1    2  502    0  0.16805071034E+03  0.43382516436E+01  0.31987205907E+03  0.36135577461E+03  0.00000000000E+00 0. -1.
         22    1    3    3    0    0 -0.62187097021E+02 -0.73644477927E+02  0.17167312283E+02  0.97905366431E+02  0.00000000000E+00 0. -1.
         22    1    3    3    0    0 -0.10881248729E+03  0.41467804573E+02 -0.62786123341E+01  0.11661542428E+03  0.00000000000E+00 0. -1.
</event>
<event>
 7    1  0.6443388E-006  0.8579819E+02  0.7818608E-02  0.1370750E+00
          2   -1    0    0  502    0  0.00000000000E+00  0.00000000000E+00  0.18535803641E+04  0.18535803641E+04  0.00000000000E+00 0. -1.
          1   -1    0    0  501    0 -0.00000000000E+00 -0.00000000000E+00 -0.85678163582E+03  0.85678163582E+03  0.00000000000E+00 0. -1.
         25    2    1    2    0    0  0.11383263401E+03  0.41466651108E+02  0.36492997225E+03  0.40431791035E+03  0.12498694435E+03 0.  0.
          2    1    1    2  501    0 -0.85608413821E+02  0.25120616012E+01 -0.83443034921E+03  0.83881411448E+03  0.00000000000E+00 0. -1.
          1    1    1    2  502    0 -0.28224220192E+02 -0.43978712709E+02  0.14662991053E+04  0.14672299751E+04  0.00000000000E+00 0. -1.
         22    1    3    3    0    0  0.48296585255E+02  0.57461967232E+02  0.73041547728E+02  0.10473540719E+03  0.00000000000E+00 0.  1.
         22    1    3    3    0    0  0.65536048758E+02 -0.15995316123E+02  0.29188842453E+03  0.29958250316E+03  0.00000000000E+00 0.  1.
</event>
<event>
 7    1  0.6443388E-006  0.1364954E+03  0.7818608E-02  0.1306635E+00
          2   -1    0    0  502    0  0.00000000000E+00  0.00000000000E+00  0.32511897696E+03  0.32511897696E+03  0.00000000000E+00 0. -1.
          1   -1    0    0  501    0 -0.00000000000E+00 -0.00000000000E+00 -0.10720268657E+04  0.10720268657E+04  0.00000000000E+00 0. -1.
         25    2    1    2    0    0  0.60979887702E+02  0.14374611027E+03 -0.66676724997E+03  0.69612157694E+03  0.12500077331E+03 0.  0.
          2    1    1    2  501    0 -0.86243482214E+02 -0.92289966201E+02 -0.37756094698E+03  0.39813018570E+03  0.00000000000E+00 0. -1.
          1    1    1    2  502    0  0.25263594512E+02 -0.51456144073E+02  0.29742030821E+03  0.30289408001E+03  0.00000000000E+00 0. -1.
         22    1    3    3    0    0  0.92961373875E+02  0.76444886709E+02 -0.33146488218E+03  0.35263948426E+03  0.00000000000E+00 0. -1.
         22    1    3    3    0    0 -0.31981486173E+02  0.67301223565E+02 -0.33530236779E+03  0.34348209269E+03  0.00000000000E+00 0. -1.
</event>
<event>
 7    1  0.6443388E-006  0.3032928E+03  0.7818608E-02  0.1257639E+00
          2   -1    0    0  502    0  0.00000000000E+00  0.00000000000E+00  0.47191964216E+03  0.47191964216E+03  0.00000000000E+00 0. -1.
          1   -1    0    0  501    0 -0.00000000000E+00 -0.00000000000E+00 -0.20400623856E+04  0.20400623856E+04  0.00000000000E+00 0. -1.
         25    2    1    2    0    0  0.31076361452E+03  0.28785463243E+02 -0.42561453452E+02  0.33887933232E+03  0.12500039020E+03 0.  0.
          2    1    1    2  501    0 -0.30254326697E+03  0.11446392347E+02 -0.18355876758E+04  0.18603885519E+04  0.00000000000E+00 0. -1.
          1    1    1    2  502    0 -0.82203475546E+01 -0.40231855589E+02  0.31000638585E+03  0.31271414357E+03  0.00000000000E+00 0. -1.
         22    1    3    3    0    0  0.78935074032E+02  0.14726457552E+02 -0.68018767043E+02  0.10523386876E+03  0.00000000000E+00 0. -1.
         22    1    3    3    0    0  0.23182854049E+03  0.14059005691E+02  0.25457313592E+02  0.23364546356E+03  0.00000000000E+00 0. -1.
</event>
<event>
 7    1  0.6607958E-006  0.7233878E+02  0.7818608E-02  0.1362779E+00
          2   -1    0    0  502    0  0.00000000000E+00  0.00000000000E+00  0.11130054340E+04  0.11130054340E+04  0.00000000000E+00 0. -1.
          1   -1    0    0  501    0 -0.00000000000E+00 -0.00000000000E+00 -0.77306035805E+03  0.77306035805E+03  0.00000000000E+00 0. -1.
         25    2    1    2    0    0  0.10232908955E+03  0.71590576792E+02 -0.11617317805E+03  0.21146532377E+03  0.12499969042E+03 0.  0.
          2    1    1    2  501    0 -0.65517414619E+02 -0.96788584997E+01 -0.60621809840E+03  0.60982505258E+03  0.00000000000E+00 0. -1.
          1    1    1    2  502    0 -0.36811674926E+02 -0.61911718292E+02  0.10623363524E+04  0.10647754158E+04  0.00000000000E+00 0. -1.
         22    1    3    3    0    0  0.28126322023E+02  0.14077467069E+02  0.26193106575E+02  0.40930965071E+02  0.00000000000E+00 0. -1.
         22    1    3    3    0    0  0.74202767523E+02  0.57513109723E+02 -0.14236628462E+03  0.17053435869E+03  0.00000000000E+00 0. -1.
</event>
<event>
 7    1  0.6443388E-006  0.8131593E+02  0.7818608E-02  0.1406653E+00
          2   -1    0    0  502    0  0.00000000000E+00  0.00000000000E+00  0.88758715828E+03  0.88758715828E+03  0.00000000000E+00 0. -1.
          1   -1    0    0  501    0 -0.00000000000E+00 -0.00000000000E+00 -0.12960278508E+03  0.12960278508E+03  0.00000000000E+00 0. -1.
         25    2    1    2    0    0  0.95934427032E+02 -0.10412431608E+02  0.11041251241E+02  0.15830238614E+03  0.12500361277E+03 0.  0.
          2    1    1    2  501    0 -0.67328816518E+02  0.40194247306E+02 -0.27686363476E+02  0.83158173217E+02  0.00000000000E+00 0. -1.
          1    1    1    2  502    0 -0.28605610514E+02 -0.29781815698E+02  0.77462948544E+03  0.77572938400E+03  0.00000000000E+00 0. -1.
         22    1    3    3    0    0  0.10558237838E+03 -0.20958647969E+02 -0.32526834292E+02  0.11244953757E+03  0.00000000000E+00 0. -1.
         22    1    3    3    0    0 -0.96479513520E+01  0.10546216361E+02  0.43568085533E+02  0.45852848569E+02  0.00000000000E+00 0. -1.
</event>
<event>
 7    1  0.6443388E-006  0.4121318E+02  0.7818608E-02  0.1546357E+00
          2   -1    0    0  502    0  0.00000000000E+00  0.00000000000E+00  0.45469695848E+03  0.45469695848E+03  0.00000000000E+00 0. -1.
          1   -1    0    0  501    0 -0.00000000000E+00 -0.00000000000E+00 -0.81483777164E+02  0.81483777164E+02  0.00000000000E+00 0. -1.
         25    2    1    2    0    0  0.18755079403E+02 -0.57650924233E+02  0.23461839384E+03  0.27266568919E+03  0.12500162105E+03 0.  0.
          2    1    1    2  501    0 -0.28622379673E+02  0.29154632106E+02 -0.54480921269E+02  0.68098487309E+02  0.00000000000E+00 0. -1.
          1    1    1    2  502    0  0.98673002703E+01  0.28496292127E+02  0.19307570875E+03  0.19541655915E+03  0.00000000000E+00 0. -1.
         22    1    3    3    0    0  0.11576748735E+02  0.13764468256E+02 -0.79769513083E+01  0.19675198850E+02  0.00000000000E+00 0.  1.
         22    1    3    3    0    0  0.71783306682E+01 -0.71415392489E+02  0.24259534515E+03  0.25299049034E+03  0.00000000000E+00 0.  1.
</event>
<event>
 7    1  0.6443388E-006  0.3615463E+03  0.7818608E-02  0.1281162E+00
          2   -1    0    0  502    0  0.00000000000E+00  0.00000000000E+00  0.15503787660E+04  0.15503787660E+04  0.00000000000E+00 0. -1.
          1   -1    0    0  501    0 -0.00000000000E+00 -0.00000000000E+00 -0.16345888771E+04  0.16345888771E+04  0.00000000000E+00 0. -1.
         25    2    1    2    0    0  0.12811940515E+03  0.34982322749E+03 -0.14194309092E+03  0.41780845092E+03  0.12500075255E+03 0.  0.
          2    1    1    2  501    0 -0.10106702838E+03 -0.34527353568E+03 -0.13306904013E+04  0.13784648356E+04  0.00000000000E+00 0. -1.
          1    1    1    2  502    0 -0.27052376766E+02 -0.45496918095E+01  0.13884233812E+04  0.13886943566E+04  0.00000000000E+00 0. -1.
         22    1    3    3    0    0 -0.24240429646E+02  0.72476339790E+02 -0.31262004639E+02  0.82569553667E+02  0.00000000000E+00 0.  1.
         22    1    3    3    0    0  0.15235983479E+03  0.27734688770E+03 -0.11068108628E+03  0.33523889726E+03  0.00000000000E+00 0.  1.
</event>
<event>
 7    1  0.6443388E-006  0.1312505E+03  0.7818608E-02  0.1346335E+00
          2   -1    0    0  502    0  0.00000000000E+00  0.00000000000E+00  0.10962351128E+04  0.10962351128E+04  0.00000000000E+00 0. -1.
          1   -1    0    0  501    0 -0.00000000000E+00 -0.00000000000E+00 -0.80462448854E+03  0.80462448854E+03  0.00000000000E+00 0. -1.
         25    2    1    2    0    0 -0.27061835854E+02  0.15341088515E+03  0.21087061137E+03  0.29044359459E+03  0.12499529694E+03 0.  0.
          2    1    1    2  501    0  0.52295906302E+02 -0.11988784411E+03 -0.75871815830E+03  0.76990986532E+03  0.00000000000E+00 0. -1.
          1    1    1    2  502    0 -0.25234070448E+02 -0.33523041046E+02  0.83945817121E+03  0.84050614145E+03  0.00000000000E+00 0. -1.
         22    1    3    3    0    0 -0.42078805774E+01  0.15660900729E+03  0.12182850731E+03  0.19845975062E+03  0.00000000000E+00 0. -1.
         22    1    3    3    0    0 -0.22853955277E+02 -0.31981221303E+01  0.89042104061E+02  0.91983843976E+02  0.00000000000E+00 0. -1.
</event>
<event>
 7    1  0.6443388E-006  0.9506358E+02  0.7818608E-02  0.1310533E+00
          2   -1    0    0  502    0  0.00000000000E+00  0.00000000000E+00  0.14791243636E+03  0.14791243636E+03  0.00000000000E+00 0. -1.
          1   -1    0    0  501    0 -0.00000000000E+00 -0.00000000000E+00 -0.50116925953E+03  0.50116925953E+03  0.00000000000E+00 0. -1.
         25    2    1    2    0    0  0.33821539887E+02 -0.36771926279E+02 -0.86379213803E+02  0.15996034977E+03  0.12501949368E+03 0.  0.
          2    1    1    2  501    0  0.21610419580E+01  0.10759573359E+03 -0.35471997526E+03  0.37068554442E+03  0.00000000000E+00 0. -1.
          1    1    1    2  502    0 -0.35982581845E+02 -0.70823807315E+02  0.87842365896E+02  0.11843580170E+03  0.00000000000E+00 0. -1.
         22    1    3    3    0    0  0.67857568882E+02 -0.62273591704E+02 -0.58740748028E+02  0.10923884546E+03  0.00000000000E+00 0.  1.
         22    1    3    3    0    0 -0.34036028995E+02  0.25501665426E+02 -0.27638465775E+02  0.50721504311E+02  0.00000000000E+00 0.  1.
</event>
<event>
 7    1  0.6443388E-006  0.1199250E+03  0.7818608E-02  0.1340998E+00
          2   -1    0    0  502    0  0.00000000000E+00  0.00000000000E+00  0.21142077241E+04  0.21142077241E+04  0.00000000000E+00 0. -1.
          1   -1    0    0  501    0 -0.00000000000E+00 -0.00000000000E+00 -0.30147598252E+03  0.30147598252E+03  0.00000000000E+00 0. -1.
         25    2    1    2    0    0 -0.24710986031E+02 -0.14620143450E+03  0.10215704437E+04  0.10398154867E+04  0.12499833072E+03 0.  0.
          2    1    1    2  501    0  0.52968131009E+02  0.10729903751E+03 -0.27954695232E+03  0.30408091835E+03  0.00000000000E+00 0. -1.
          1    1    1    2  502    0 -0.28257144978E+02  0.38902396993E+02  0.10707082502E+04  0.10717873016E+04  0.00000000000E+00 0. -1.
         22    1    3    3    0    0 -0.36374670371E+02 -0.16653476920E+03  0.89187802432E+03  0.90802167170E+03  0.00000000000E+00 0. -1.
         22    1    3    3    0    0  0.11663684340E+02  0.20333334703E+02  0.12969241935E+03  0.13179381499E+03  0.00000000000E+00 0. -1.
</event>
<event>
 7    1  0.6443388E-006  0.5646528E+02  0.7818608E-02  0.1468036E+00
          2   -1    0    0  502    0  0.00000000000E+00  0.00000000000E+00  0.34355785542E+03  0.34355785542E+03  0.00000000000E+00 0. -1.
          1   -1    0    0  501    0 -0.00000000000E+00 -0.00000000000E+00 -0.63771986017E+02  0.63771986017E+02  0.00000000000E+00 0. -1.
         25    2    1    2    0    0 -0.86750058011E+02 -0.35079791900E+01  0.92351503388E+02  0.17802077180E+03  0.12499886612E+03 0.  0.
          2    1    1    2  501    0  0.35292196383E+02 -0.12726722838E+02  0.35648031209E+01  0.37685758862E+02  0.00000000000E+00 0. -1.
          1    1    1    2  502    0  0.51457861629E+02  0.16234702028E+02  0.18386956290E+03  0.19162331078E+03  0.00000000000E+00 0. -1.
         22    1    3    3    0    0  0.31145011141E+02 -0.14678232057E+01  0.57086646833E+01  0.31697871796E+02  0.00000000000E+00 0. -1.
         22    1    3    3    0    0 -0.11789506915E+03 -0.20401559843E+01  0.86642838704E+02  0.14632290000E+03  0.00000000000E+00 0. -1.
</event>
<event>
 7    1  0.6443388E-006  0.4685611E+02  0.7818608E-02  0.1479222E+00
          2   -1    0    0  502    0  0.00000000000E+00  0.00000000000E+00  0.10296284428E+04  0.10296284428E+04  0.00000000000E+00 0. -1.
          1   -1    0    0  501    0 -0.00000000000E+00 -0.00000000000E+00 -0.54212223109E+02  0.54212223109E+02  0.00000000000E+00 0. -1.
         25    2    1    2    0    0  0.10017931803E+02  0.60281811102E+02  0.23666948638E+03  0.27453896588E+03  0.12499976920E+03 0.  0.
          2    1    1    2  501    0  0.27175477408E+02 -0.31690103644E+02 -0.21946160996E+02  0.47163579421E+02  0.00000000000E+00 0. -1.
          1    1    1    2  502    0 -0.37193409211E+02 -0.28591707458E+02  0.76069289435E+03  0.76213812065E+03  0.00000000000E+00 0. -1.
         22    1    3    3    0    0 -0.18104580404E+02  0.31961581846E+02  0.23138120150E+03  0.23427884871E+03  0.00000000000E+00 0.  1.
         22    1    3    3    0    0  0.28122512207E+02  0.28320229256E+02  0.52882848787E+01  0.40260117175E+02  0.00000000000E+00 0.  1.
</event>
<event>
 7    1  0.6443388E-006  0.1387094E+03  0.7818608E-02  0.1316861E+00
          2   -1    0    0  502    0  0.00000000000E+00  0.00000000000E+00  0.40933607568E+03  0.40933607568E+03  0.00000000000E+00 0. -1.
          1   -1    0    0  501    0 -0.00000000000E+00 -0.00000000000E+00 -0.17817234623E+04  0.17817234623E+04  0.00000000000E+00 0. -1.
         25    2    1    2    0    0 -0.14189815744E+03 -0.11715802208E+03 -0.24314181307E+03  0.32955164473E+03  0.12500102424E+03 0.  0.
          2    1    1    2  501    0  0.11329840431E+03  0.74422143804E+02 -0.14904801230E+04  0.14966316117E+04  0.00000000000E+00 0. -1.
          1    1    1    2  502    0  0.28599753124E+02  0.42735878272E+02  0.36123454944E+03  0.36487628161E+03  0.00000000000E+00 0. -1.
         22    1    3    3    0    0 -0.18889544060E+02 -0.75705224042E+02 -0.15227672120E+03  0.17110317250E+03  0.00000000000E+00 0. -1.
         22    1    3    3    0    0 -0.12300861338E+03 -0.41452798035E+02 -0.90865091872E+02  0.15844847223E+03  0.00000000000E+00 0. -1.
</event>
<event>
 7    1  0.6443388E-006  0.1492405E+03  0.7818608E-02  0.1215003E+00
          2   -1    0    0  502    0  0.00000000000E+00  0.00000000000E+00  0.21680662950E+04  0.21680662950E+04  0.00000000000E+00 0. -1.
          1   -1    0    0  501    0 -0.00000000000E+00 -0.00000000000E+00 -0.71161267531E+03  0.71161267531E+03  0.00000000000E+00 0. -1.
         25    2    1    2    0    0  0.89650634719E+02 -0.53072617815E+02  0.10000423549E+04  0.10131984902E+04  0.12503011625E+03 0.  0.
          2    1    1    2  501    0  0.79694053111E+02 -0.10146565835E+03 -0.68766297628E+03  0.69966191184E+03  0.00000000000E+00 0. -1.
          1    1    1    2  502    0 -0.16934468783E+03  0.15453827617E+03  0.11440742410E+04  0.11668185682E+04  0.00000000000E+00 0. -1.
         22    1    3    3    0    0  0.10996670189E+03 -0.74439743152E+02  0.84623562575E+03  0.85659131747E+03  0.00000000000E+00 0. -1.
         22    1    3    3    0    0 -0.20316067171E+02  0.21367125337E+02  0.15380672916E+03  0.15660717277E+03  0.00000000000E+00 0. -1.
</event>
<event>
 7    1  0.6443388E-006  0.1190370E+03  0.7818608E-02  0.1342386E+00
          2   -1    0    0  502    0  0.00000000000E+00  0.00000000000E+00  0.13722498300E+04  0.13722498300E+04  0.00000000000E+00 0. -1.
          1   -1    0    0  501    0 -0.00000000000E+00 -0.00000000000E+00 -0.65551414855E+03  0.65551414855E+03  0.00000000000E+00 0. -1.
         25    2    1    2    0    0 -0.93002089297E+02 -0.56885414702E+02 -0.91958580620E+02  0.18964654127E+03  0.12499636413E+03 0.  0.
          2    1    1    2  501    0  0.24659467983E+02 -0.41021951531E+02 -0.51089758771E+03  0.51313471428E+03  0.00000000000E+00 0. -1.
          1    1    1    2  502    0  0.68342621314E+02  0.97907366233E+02  0.13195918497E+04  0.13249827230E+04  0.00000000000E+00 0. -1.
         22    1    3    3    0    0 -0.32167466749E+01 -0.48542475700E+02  0.13893309477E+02  0.50593907286E+02  0.00000000000E+00 0.  1.
         22    1    3    3    0    0 -0.89785342623E+02 -0.83429390019E+01 -0.10585189010E+03  0.13905263398E+03  0.00000000000E+00 0.  1.
</event>
<event>
 7    1  0.6443388E-006  0.6634665E+02  0.7818608E-02  0.1526099E+00
          2   -1    0    0  502    0  0.00000000000E+00  0.00000000000E+00  0.38366004541E+03  0.38366004541E+03  0.00000000000E+00 0. -1.
          1   -1    0    0  501    0 -0.00000000000E+00 -0.00000000000E+00 -0.34999464242E+03  0.34999464242E+03  0.00000000000E+00 0. -1.
         25    2    1    2    0    0  0.64566577349E+02  0.14887164328E+02  0.14901469592E+03  0.20547563151E+03  0.12499753986E+03 0.  0.
          2    1    1    2  501    0 -0.66100324930E+02  0.64449402792E+01 -0.31776776286E+03  0.32463385733E+03  0.00000000000E+00 0. -1.
          1    1    1    2  502    0  0.15337475814E+01 -0.21332104607E+02  0.20241846993E+03  0.20354519900E+03  0.00000000000E+00 0. -1.
         22    1    3    3    0    0  0.15040592128E+02 -0.17307947674E+02  0.14441725045E+03  0.14622628591E+03  0.00000000000E+00 0. -1.
         22    1    3    3    0    0  0.49525985221E+02  0.32195112002E+02  0.45974454732E+01  0.59249345598E+02  0.00000000000E+00 0. -1.
</event>
<event>
 7    1  0.6443388E-006  0.8780328E+02  0.7818608E-02  0.1469382E+00
          2   -1    0    0  502    0  0.00000000000E+00  0.00000000000E+00  0.16522202209E+04  0.16522202209E+04  0.00000000000E+00 0. -1.
          1   -1    0    0  501    0 -0.00000000000E+00 -0.00000000000E+00 -0.79986922369E+02  0.79986922369E+02  0.00000000000E+00 0. -1.
         25    2    1    2    0    0  0.61705897050E+01 -0.71551089094E+02  0.13992921712E+04  0.14066977164E+04  0.12498900207E+03 0.  0.
          2    1    1    2  501    0  0.11766360533E+02  0.87337907714E+02 -0.49978764939E+02  0.10131255751E+03  0.00000000000E+00 0. -1.
          1    1    1    2  502    0 -0.17936950238E+02 -0.15786818620E+02  0.22291989226E+03  0.22419686927E+03  0.00000000000E+00 0. -1.
         22    1    3    3    0    0  0.47489386402E+01 -0.80343139510E+01  0.11290230730E+04  0.11290616466E+04  0.00000000000E+00 0.  1.
         22    1    3    3    0    0  0.14216510648E+01 -0.63516775143E+02  0.27026909820E+03  0.27763606981E+03  0.00000000000E+00 0.  1.
</event>
<event>
 7    1  0.6443388E-006  0.2815973E+02  0.7818608E-02  0.1648886E+00
          2   -1    0    0  502    0  0.00000000000E+00  0.00000000000E+00  0.41308270640E+03  0.41308270640E+03  0.00000000000E+00 0. -1.
          1   -1    0    0  501    0 -0.00000000000E+00 -0.00000000000E+00 -0.71229058456E+02  0.71229058456E+02  0.00000000000E+00 0. -1.
         25    2    1    2    0    0 -0.12932558159E+02  0.52332593777E+00  0.33651833603E+03  0.35921678901E+03  0.12499834435E+03 0.  0.
          2    1    1    2  501    0 -0.18893465762E+02  0.14401471776E+02 -0.52381200524E+02  0.57516568101E+02  0.00000000000E+00 0. -1.
          1    1    1    2  502    0  0.31826023921E+02 -0.14924797714E+02  0.57716512433E+02  0.67578407742E+02  0.00000000000E+00 0. -1.
         22    1    3    3    0    0  0.31135524324E+02 -0.45233464859E+02  0.21727597737E+03  0.22410787037E+03  0.00000000000E+00 0. -1.
         22    1    3    3    0    0 -0.44068082483E+02  0.45756790797E+02  0.11924235866E+03  0.13510891864E+03  0.00000000000E+00 0. -1.
</event>
<event>
 7    1  0.6443388E-006  0.2426035E+03  0.7818608E-02  0.1241162E+00
          2   -1    0    0  502    0  0.00000000000E+00  0.00000000000E+00  0.30918338132E+04  0.30918338132E+04  0.00000000000E+00 0. -1.
          1   -1    0    0  501    0 -0.00000000000E+00 -0.00000000000E+00 -0.20322606174E+04  0.20322606174E+04  0.00000000000E+00 0. -1.
         25    2    1    2    0    0  0.19596423105E+03  0.12500948804E+03 -0.90054569761E+03  0.93842277474E+03  0.12500159486E+03 0.  0.
          2    1    1    2  501    0  0.34713203237E+02 -0.49587044362E+02 -0.11071564426E+04  0.11088098438E+04  0.00000000000E+00 0. -1.
          1    1    1    2  502    0 -0.23067743428E+03 -0.75422443676E+02  0.30672753360E+04  0.30768618121E+04  0.00000000000E+00 0. -1.
         22    1    3    3    0    0  0.11207617452E+03  0.93542420132E+02 -0.32949490705E+03  0.36038610826E+03  0.00000000000E+00 0.  1.
         22    1    3    3    0    0  0.83888056531E+02  0.31467067906E+02 -0.57105079056E+03  0.57803666647E+03  0.00000000000E+00 0.  1.
</event>
<event>
 7    1  0.6443388E-006  0.9669304E+02  0.7818608E-02  0.1300399E+00
          2   -1    0    0  502    0  0.00000000000E+00  0.00000000000E+00  0.13775764001E+04  0.13775764001E+04  0.00000000000E+00 0. -1.
          1   -1    0    0  501    0 -0.00000000000E+00 -0.00000000000E+00 -0.51456223723E+02  0.51456223723E+02  0.00000000000E+00 0. -1.
         25    2    1    2    0    0 -0.14313012418E+03  0.22321901265E+02  0.36917447630E+03  0.41581276159E+03  0.12500383607E+03 0.  0.
          2    1    1    2  501    0  0.58302185166E+02 -0.62785638676E+02  0.45635587111E+02  0.97076197031E+02  0.00000000000E+00 0. -1.
          1    1    1    2  502    0  0.84827939014E+02  0.40463737410E+02  0.91131011295E+03  0.91614366518E+03  0.00000000000E+00 0. -1.
         22    1    3    3    0    0 -0.12229994169E+03  0.49552564770E+02  0.17794134173E+03  0.22153070557E+03  0.00000000000E+00 0.  1.
         22    1    3    3    0    0 -0.20830182490E+02 -0.27230663505E+02  0.19123313457E+03  0.19428205603E+03  0.00000000000E+00 0.  1.
</event>
<event>
 7    1  0.6443388E-006  0.1477905E+03  0.7818608E-02  0.1360644E+00
          2   -1    0    0  502    0  0.00000000000E+00  0.00000000000E+00  0.50564346336E+03  0.50564346336E+03  0.00000000000E+00 0. -1.
          1   -1    0    0  501    0 -0.00000000000E+00 -0.00000000000E+00 -0.21955762877E+04  0.21955762877E+04  0.00000000000E+00 0. -1.
         25    2    1    2    0    0  0.95711747397E+02  0.85158387954E+02  0.17843035154E+03  0.25273466939E+03  0.12499893253E+03 0.  0.
          2    1    1    2  501    0  0.15728344409E+02  0.29012868953E+02 -0.21363485746E+04  0.21366034633E+04  0.00000000000E+00 0. -1.
          1    1    1    2  502    0 -0.11144009181E+03 -0.11417125691E+03  0.26798539869E+03  0.31188161837E+03  0.00000000000E+00 0. -1.
         22    1    3    3    0    0  0.11076672545E+03  0.85580919336E+02  0.18837401604E+03  0.23468730502E+03  0.00000000000E+00 0. -1.
         22    1    3    3    0    0 -0.15054978054E+02 -0.42253138214E+00 -0.99436644973E+01  0.18047364367E+02  0.00000000000E+00 0. -1.
</event>
<event>
 7    1  0.6443388E-006  0.9414659E+02  0.7818608E-02  0.1364285E+00
          2   -1    0    0  502    0  0.00000000000E+00  0.00000000000E+00  0.81002330762E+03  0.81002330762E+03  0.00000000000E+00 0. -1.
          1   -1    0    0  501    0 -0.00000000000E+00 -0.00000000000E+00 -0.13593980836E+04  0.13593980836E+04  0.00000000000E+00 0. -1.
         25    2    1    2    0    0  0.69094443367E+02 -0.59742280712E+02 -0.18107002391E+02  0.15587127714E+03  0.12499923717E+03 0.  0.
          2    1    1    2  501    0 -0.93241806740E+02  0.15673387605E+02 -0.12697975079E+04  0.12733127663E+04  0.00000000000E+00 0. -1.
          1    1    1    2  502    0  0.24147363373E+02  0.44068893107E+02  0.73852973437E+03  0.74023734778E+03  0.00000000000E+00 0. -1.
         22    1    3    3    0    0  0.80618157899E+02 -0.81546212764E+02  0.13852136364E+02  0.11550304706E+03  0.00000000000E+00 0.  1.
         22    1    3    3    0    0 -0.11523714532E+02  0.21803932052E+02 -0.31959138754E+02  0.40368230076E+02  0.00000000000E+00 0.  1.
</event>
<event>
 7    1  0.6443388E-006  0.9334146E+02  0.7818608E-02  0.1298827E+00
          2   -1    0    0  502    0  0.00000000000E+00  0.00000000000E+00  0.10520618501E+04  0.10520618501E+04  0.00000000000E+00 0. -1.
          1   -1    0    0  501    0 -0.00000000000E+00 -0.00000000000E+00 -0.97080281097E+03  0.97080281097E+03  0.00000000000E+00 0. -1.
         25    2    1    2    0    0 -0.10369429640E+03 -0.76565066458E+02  0.25943862110E+03  0.31551356508E+03  0.12500278046E+03 0.  0.
          2    1    1    2  501    0  0.11522617497E+02  0.89313757326E+02 -0.93776932789E+03  0.94208334572E+03  0.00000000000E+00 0. -1.
          1    1    1    2  502    0  0.92171678898E+02 -0.12748690868E+02  0.75958974591E+03  0.76526775027E+03  0.00000000000E+00 0. -1.
         22    1    3    3    0    0 -0.31623009780E+01  0.17982662069E+01  0.14245976276E+03  0.14250620307E+03  0.00000000000E+00 0. -1.
         22    1    3    3    0    0 -0.10053199542E+03 -0.78363332665E+02  0.11697885834E+03  0.17300736201E+03  0.00000000000E+00 0. -1.
</event>
<event>
 7    1  0.6443388E-006  0.5200760E+02  0.7818608E-02  0.1566430E+00
          2   -1    0    0  502    0  0.00000000000E+00  0.00000000000E+00  0.12252860884E+04  0.12252860884E+04  0.00000000000E+00 0. -1.
          1   -1    0    0  501    0 -0.00000000000E+00 -0.00000000000E+00 -0.81672289357E+03  0.81672289357E+03  0.00000000000E+00 0. -1.
         25    2    1    2    0    0  0.23919892234E+02 -0.20811195846E+02  0.38769037990E+03  0.40857421828E+03  0.12499517614E+03 0.  0.
          2    1    1    2  501    0 -0.34466357185E+02  0.39004849183E+02 -0.80530697355E+03  0.80698737889E+03  0.00000000000E+00 0. -1.
          1    1    1    2  502    0  0.10546464951E+02 -0.18193653336E+02  0.82617978850E+03  0.82644738482E+03  0.00000000000E+00 0. -1.
         22    1    3    3    0    0 -0.23190267157E+02  0.42474525395E+02  0.11678659366E+03  0.12641590982E+03  0.00000000000E+00 0. -1.
         22    1    3    3    0    0  0.47110159391E+02 -0.63285721241E+02  0.27090378624E+03  0.28215830846E+03  0.00000000000E+00 0. -1.
</event>
<event>
 7    1  0.6443388E-006  0.2601453E+03  0.7818608E-02  0.1288489E+00
          2   -1    0    0  502    0  0.00000000000E+00  0.00000000000E+00  0.60545428133E+03  0.60545428133E+03  0.00000000000E+00 0. -1.
          1   -1    0    0  501    0 -0.00000000000E+00 -0.00000000000E+00 -0.83401839686E+03  0.83401839686E+03  0.00000000000E+00 0. -1.
         25    2    1    2    0    0  0.23856174552E+03 -0.20694223626E+01 -0.13419773308E+03  0.30091515851E+03  0.12499964849E+03 0.  0.
          2    1    1    2  501    0 -0.26721144663E+03 -0.19022666870E+02 -0.58668663937E+03  0.64495351141E+03  0.00000000000E+00 0. -1.
          1    1    1    2  502    0  0.28649701111E+02  0.21092089232E+02  0.49232025692E+03  0.49360400827E+03  0.00000000000E+00 0. -1.
         22    1    3    3    0    0  0.17739871064E+03  0.49082126300E+02 -0.12053886170E+03  0.22002039642E+03  0.00000000000E+00 0. -1.
         22    1    3    3    0    0  0.61163034871E+02 -0.51151548663E+02 -0.13658871378E+02  0.80894762084E+02  0.00000000000E+00 0. -1.
</event>
<event>
 7    1  0.6443388E-006  0.9730643E+02  0.7818608E-02  0.1325630E+00
          2   -1    0    0  502    0  0.00000000000E+00  0.00000000000E+00  0.36444437222E+03  0.36444437222E+03  0.00000000000E+00 0. -1.
          1   -1    0    0  501    0 -0.00000000000E+00 -0.00000000000E+00 -0.14335940150E+03  0.14335940150E+03  0.00000000000E+00 0. -1.
         25    2    1    2    0    0 -0.18197122778E+02  0.14422284456E+03  0.88293931621E+02  0.21107880401E+03  0.12500831561E+03 0.  0.
          2    1    1    2  501    0 -0.19392785118E+02 -0.87809689505E+02 -0.49209516584E+02  0.10250950301E+03  0.00000000000E+00 0. -1.
          1    1    1    2  502    0  0.37589907895E+02 -0.56413155050E+02  0.18200055568E+03  0.19421546670E+03  0.00000000000E+00 0. -1.
         22    1    3    3    0    0 -0.27193844777E+02  0.33111410603E+02  0.89903931207E+02  0.99592105874E+02  0.00000000000E+00 0. -1.
         22    1    3    3    0    0  0.89967219993E+01  0.11111143395E+03 -0.16099995865E+01  0.11148669813E+03  0.00000000000E+00 0. -1.
</event>
<event>
 7    1  0.6443388E-006  0.1046084E+03  0.7818608E-02  0.1371587E+00
          2   -1    0    0  502    0  0.00000000000E+00  0.00000000000E+00  0.14432667434E+04  0.14432667434E+04  0.00000000000E+00 0. -1.
          1   -1    0    0  501    0 -0.00000000000E+00 -0.00000000000E+00 -0.19091982373E+03  0.19091982373E+03  0.00000000000E+00 0. -1.
         25    2    1    2    0    0 -0.59920299778E+02 -0.71154193016E+02  0.13846065991E+03  0.20844601626E+03  0.12500010337E+03 0.  0.
          2    1    1    2  501    0  0.29892262196E+02 -0.30302014613E+02 -0.15077138172E+03  0.15666451089E+03  0.00000000000E+00 0. -1.
          1    1    1    2  502    0  0.30028037582E+02  0.10145620763E+03  0.12646576414E+04  0.12690760400E+04  0.00000000000E+00 0. -1.
         22    1    3    3    0    0 -0.21984345475E+02 -0.80122323120E+02  0.14670894317E+03  0.16860134079E+03  0.00000000000E+00 0. -1.
         22    1    3    3    0    0 -0.37935954303E+02  0.89681301040E+01 -0.82482832637E+01  0.39844675470E+02  0.00000000000E+00 0. -1.
</event>
<event>
 7    1  0.6443388E-006  0.2143184E+03  0.7818608E-02  0.1156326E+00
          2   -1    0    0  502    0  0.00000000000E+00  0.00000000000E+00  0.28258502170E+03  0.28258502170E+03  0.00000000000E+00 0. -1.
          1   -1    0    0  501    0 -0.00000000000E+00 -0.00000000000E+00 -0.20612270513E+04  0.20612270513E+04  0.00000000000E+00 0. -1.
         25    2    1    2    0    0  0.12211459110E+03  0.50645137139E+02 -0.13861947472E+03  0.22873434949E+03  0.12500856207E+03 0.  0.
          2    1    1    2  501    0  0.12249175108E+03 -0.12174166452E+03 -0.18039253585E+04  0.18121732702E+04  0.00000000000E+00 0. -1.
          1    1    1    2  502    0 -0.24460634218E+03  0.71096527379E+02  0.16390280361E+03  0.30290445337E+03  0.00000000000E+00 0. -1.
         22    1    3    3    0    0  0.11194444239E+02  0.46610100836E+02 -0.10055326270E+03  0.11139468444E+03  0.00000000000E+00 0. -1.
         22    1    3    3    0    0  0.11092014686E+03  0.40350363027E+01 -0.38066212016E+02  0.11733966505E+03  0.00000000000E+00 0. -1.
</event>
<event>
 7    1  0.6443388E-006  0.1583217E+03  0.7818608E-02  0.1307463E+00
          2   -1    0    0  502    0  0.00000000000E+00  0.00000000000E+00  0.28220949355E+04  0.28220949355E+04  0.00000000000E+00 0. -1.
          1   -1    0    0  501    0 -0.00000000000E+00 -0.00000000000E+00 -0.20179694723E+04  0.20179694723E+04  0.00000000000E+00 0. -1.
         25    2    1    2    0    0  0.83660414333E+01 -0.15497967711E+03  0.76646009590E+02  0.21351329389E+03  0.12499849966E+03 0.  0.
          2    1    1    2  501    0 -0.49023229460E+02  0.15969947558E+01 -0.19468752435E+04  0.19474930144E+04  0.00000000000E+00 0. -1.
          1    1    1    2  502    0  0.40657188027E+02  0.15338268235E+03  0.26743546971E+04  0.26790580994E+04  0.00000000000E+00 0. -1.
         22    1    3    3    0    0  0.17990358259E+02 -0.17464832881E+03  0.76752664118E+02  0.19161592626E+03  0.00000000000E+00 0.  1.
         22    1    3    3    0    0 -0.96243168257E+01  0.19668651701E+02 -0.10665452893E+00  0.21897367634E+02  0.00000000000E+00 0.  1.
</event>
<event>
 7    1  0.6443388E-006  0.6557331E+02  0.7818608E-02  0.1407309E+00
          2   -1    0    0  502    0  0.00000000000E+00  0.00000000000E+00  0.26315944471E+03  0.26315944471E+03  0.00000000000E+00 0. -1.
          1   -1    0    0  501    0 -0.00000000000E+00 -0.00000000000E+00 -0.13916516029E+03  0.13916516029E+03  0.00000000000E+00 0. -1.
         25    2    1    2    0    0 -0.77982138419E+02  0.70991803454E+01 -0.77320844534E+02  0.16653977242E+03  0.12500148208E+03 0.  0.
          2    1    1    2  501    0  0.31782207177E+02  0.39816723899E+02  0.53023470570E+02  0.73532092493E+02  0.00000000000E+00 0. -1.
          1    1    1    2  502    0  0.46199931242E+02 -0.46915904245E+02  0.14829165839E+03  0.16225274009E+03  0.00000000000E+00 0. -1.
         22    1    3    3    0    0 -0.60246627537E+02  0.15245334618E+02  0.21538590513E+02  0.65772237597E+02  0.00000000000E+00 0. -1.
         22    1    3    3    0    0 -0.17735510883E+02 -0.81461542728E+01 -0.98859435048E+02  0.10076753482E+03  0.00000000000E+00 0. -1.
</event>
<event>
 7    1  0.6443388E-006  0.1597937E+03  0.7818608E-02  0.1339146E+00
          2   -1    0    0  502    0  0.00000000000E+00  0.00000000000E+00  0.83001444984E+03  0.83001444984E+03  0.00000000000E+00 0. -1.
          1   -1    0    0  501    0 -0.00000000000E+00 -0.00000000000E+00 -0.59556446677E+03  0.59556446677E+03  0.00000000000E+00 0. -1.
         25    2    1    2    0    0  0.12330923126E+03 -0.15480745938E+02  0.40840704269E+03  0.44482146025E+03  0.12499999590E+03 0.  0.
          2    1    1    2  501    0 -0.15997804788E+03  0.15504916716E+02 -0.56529748659E+03  0.58770283868E+03  0.00000000000E+00 0. -1.
          1    1    1    2  502    0  0.36668816618E+02 -0.24170778052E-01  0.39134042697E+03  0.39305461768E+03  0.00000000000E+00 0. -1.
         22    1    3    3    0    0 -0.12939160682E+02  0.96745718949E+00  0.16405925303E+03  0.16457155391E+03  0.00000000000E+00 0.  1.
         22    1    3    3    0    0  0.13624839194E+03 -0.16448203127E+02  0.24434778966E+03  0.28024990634E+03  0.00000000000E+00 0.  1.
</event>
<event>
 7    1  0.6443388E-006  0.3264844E+02  0.7818608E-02  0.1574342E+00
          2   -1    0    0  502    0  0.00000000000E+00  0.00000000000E+00  0.29971252955E+03  0.29971252955E+03  0.00000000000E+00 0. -1.
          1   -1    0    0  501    0 -0.00000000000E+00 -0.00000000000E+00 -0.13028923514E+04  0.13028923514E+04  0.00000000000E+00 0. -1.
         25    2    1    2    0    0  0.24942464104E+02  0.31388236622E+02  0.13121584728E+03  0.18560796261E+03  0.12500147717E+03 0.  0.
          2    1    1    2  501    0  0.81432125425E+01 -0.30824608934E+02 -0.12735567296E+04  0.12739557339E+04  0.00000000000E+00 0. -1.
          1    1    1    2  502    0 -0.33085676646E+02 -0.56362768872E+00  0.13916106050E+03  0.14304118440E+03  0.00000000000E+00 0. -1.
         22    1    3    3    0    0  0.78893041570E+01 -0.14992834206E+01  0.14563396875E+03  0.14585520843E+03  0.00000000000E+00 0.  1.
         22    1    3    3    0    0  0.17053159947E+02  0.32887520043E+02 -0.14418121472E+02  0.39752754188E+02  0.00000000000E+00 0.  1.
</event>
<event>
 7    1  0.6443388E-006  0.6975249E+02  0.7818608E-02  0.1482185E+00
          2   -1    0    0  502    0  0.00000000000E+00  0.00000000000E+00  0.94166741523E+03  0.94166741523E+03  0.00000000000E+00 0. -1.
          1   -1    0    0  501    0 -0.00000000000E+00 -0.00000000000E+00 -0.76499467836E+02  0.76499467836E+02  0.00000000000E+00 0. -1.
         25    2    1    2    0    0 -0.72285680527E+02 -0.28385309560E+02  0.12687956813E+03  0.19430455597E+03  0.12499956101E+03 0.  0.
          2    1    1    2  501    0  0.51380626977E+02  0.46194990359E+02 -0.14478693402E+02  0.70594465261E+02  0.00000000000E+00 0. -1.
          1    1    1    2  502    0  0.20905053549E+02 -0.17809680800E+02  0.75276707266E+03  0.75326786184E+03  0.00000000000E+00 0. -1.
         22    1    3    3    0    0 -0.56551547376E+02 -0.69556574120E+02  0.42723184590E+02  0.99304909322E+02  0.00000000000E+00 0. -1.
         22    1    3    3    0    0 -0.15734133150E+02  0.41171264561E+02  0.84156383544E+02  0.94999646645E+02  0.00000000000E+00 0. -1.
</event>
<event>
 7    1  0.6443388E-006  0.1510601E+03  0.7818608E-02  0.1239228E+00
          2   -1    0    0  502    0  0.00000000000E+00  0.00000000000E+00  0.11025650405E+04  0.11025650405E+04  0.00000000000E+00 0. -1.
          1   -1    0    0  501    0 -0.00000000000E+00 -0.00000000000E+00 -0.29966159085E+03  0.29966159085E+03  0.00000000000E+00 0. -1.
         25    2    1    2    0    0  0.20775177847E+03 -0.10751118120E+03  0.43439806349E+03  0.50896549025E+03  0.12499894863E+03 0.  0.
          2    1    1    2  501    0 -0.87238242636E+02  0.47095537151E+02 -0.24543122621E+03  0.26469791725E+03  0.00000000000E+00 0. -1.
          1    1    1    2  502    0 -0.12051353583E+03  0.60415644048E+02  0.61393661237E+03  0.62856322385E+03  0.00000000000E+00 0. -1.
         22    1    3    3    0    0  0.99010800287E+02  0.16189472210E+02  0.17405820284E+03  0.20090170622E+03  0.00000000000E+00 0.  1.
         22    1    3    3    0    0  0.10874097818E+03 -0.12370065341E+03  0.26033986065E+03  0.30806378403E+03  0.00000000000E+00 0.  1.
</event>
<event>
 7    1  0.6443388E-006  0.5760748E+02  0.7818608E-02  0.1411834E+00
          2   -1    0    0  502    0  0.00000000000E+00  0.00000000000E+00  0.18341315836E+04  0.18341315836E+04  0.00000000000E+00 0. -1.
          1   -1    0    0  501    0 -0.00000000000E+00 -0.00000000000E+00 -0.11303841962E+04  0.11303841962E+04  0.00000000000E+00 0. -1.
         25    2    1    2    0    0  0.17071519483E+02  0.10723544974E+02  0.44512533638E+03  0.46278390238E+03  0.12500377603E+03 0.  0.
          2    1    1    2  501    0  0.34431244857E+02 -0.44135706897E+02 -0.11201729903E+04  0.11215707733E+04  0.00000000000E+00 0. -1.
          1    1    1    2  502    0 -0.51502764341E+02  0.33412161923E+02  0.13787950414E+04  0.13801611042E+04  0.00000000000E+00 0. -1.
         22    1    3    3    0    0  0.38378397893E+02  0.32740637314E+02  0.42039175600E+03  0.42340769864E+03  0.00000000000E+00 0.  1.
         22    1    3    3    0    0 -0.21306878410E+02 -0.22017092341E+02  0.24733580388E+02  0.39376203747E+02  0.00000000000E+00 0.  1.
</event>
<event>
 7    1  0.6443388E-006  0.1187465E+03  0.7818608E-02  0.1291208E+00
          2   -1    0    0  502    0  0.00000000000E+00  0.00000000000E+00  0.14182177573E+04  0.14182177573E+04  0.00000000000E+00 0. -1.
          1   -1    0    0  501    0 -0.00000000000E+00 -0.00000000000E+00 -0.15109237834E+03  0.15109237834E+03  0.00000000000E+00 0. -1.
         25    2    1    2    0    0  0.10268522811E+03 -0.12595677997E+03  0.48522646112E+02  0.21068615349E+03  0.12499936638E+03 0.  0.
          2    1    1    2  501    0 -0.75113131402E+02  0.11442577195E+02 -0.45820288111E+02  0.88726624440E+02  0.00000000000E+00 0. -1.
          1    1    1    2  502    0 -0.27572096707E+02  0.11451420278E+03  0.12644230210E+04  0.12698973577E+04  0.00000000000E+00 0. -1.
         22    1    3    3    0    0  0.36042675972E+02 -0.84123426143E+02  0.84136412448E+02  0.12431717989E+03  0.00000000000E+00 0. -1.
         22    1    3    3    0    0  0.66642552137E+02 -0.41833353832E+02 -0.35613766336E+02  0.86368973601E+02  0.00000000000E+00 0. -1.
</event>
<event>
 7    1  0.6443388E-006  0.9715886E+02  0.7818608E-02  0.1471978E+00
          2   -1    0    0  502    0  0.00000000000E+00  0.00000000000E+00  0.39187311718E+04  0.39187311718E+04  0.00000000000E+00 0. -1.
          1   -1    0    0  501    0 -0.00000000000E+00 -0.00000000000E+00 -0.50257133723E+03  0.50257133723E+03  0.00000000000E+00 0. -1.
         25    2    1    2    0    0  0.33813998252E+02 -0.86069218128E+02 -0.38248685231E+03  0.41287768542E+03  0.12498197526E+03 0.  0.
          2    1    1    2  501    0 -0.18730652210E+02 -0.99222914976E+01 -0.10320712237E+03  0.10536127993E+03  0.00000000000E+00 0. -1.
          1    1    1    2  502    0 -0.15083346041E+02  0.95991509626E+02  0.39018538093E+04  0.39030635437E+04  0.00000000000E+00 0. -1.
         22    1    3    3    0    0  0.45845540210E+02  0.13704499020E+02 -0.71318772591E+02  0.85883608299E+02  0.00000000000E+00 0. -1.
         22    1    3    3    0    0 -0.12031541959E+02 -0.99773717149E+02 -0.31116807972E+03  0.32699407712E+03  0.00000000000E+00 0. -1.
</event>
<event>
 7    1  0.6443388E-006  0.1672665E+03  0.7818608E-02  0.1306308E+00
          2   -1    0    0  502    0  0.00000000000E+00  0.00000000000E+00  0.16237852339E+04  0.16237852339E+04  0.00000000000E+00 0. -1.
          1   -1    0    0  501    0 -0.00000000000E+00 -0.00000000000E+00 -0.11444061591E+03  0.11444061591E+03  0.00000000000E+00 0. -1.
         25    2    1    2    0    0 -0.18826712680E+03 -0.48719548492E+02  0.91709596025E+03  0.94578466450E+03  0.12500210342E+03 0.  0.
          2    1    1    2  501    0  0.37978914309E+02  0.27548234265E+02 -0.85704887153E+02  0.97706861710E+02  0.00000000000E+00 0. -1.
          1    1    1    2  502    0  0.15028821249E+03  0.21171314227E+02  0.67795354490E+03  0.69473432361E+03  0.00000000000E+00 0. -1.
         22    1    3    3    0    0 -0.17684586158E+03 -0.16371910744E+01  0.79487550630E+03  0.81431210827E+03  0.00000000000E+00 0. -1.
         22    1    3    3    0    0 -0.11421265222E+02 -0.47082357418E+02  0.12222045395E+03  0.13147255623E+03  0.00000000000E+00 0. -1.
</event>
<event>
 7    1  0.6443388E-006  0.1104666E+03  0.7818608E-02  0.1370164E+00
          2   -1    0    0  502    0  0.00000000000E+00  0.00000000000E+00  0.63232395583E+03  0.63232395583E+03  0.00000000000E+00 0. -1.
          1   -1    0    0  501    0 -0.00000000000E+00 -0.00000000000E+00 -0.11068042941E+04  0.11068042941E+04  0.00000000000E+00 0. -1.
         25    2    1    2    0    0 -0.31064600543E+02 -0.12869098056E+03 -0.27204747977E+03  0.32735434427E+03  0.12499863031E+03 0.  0.
          2    1    1    2  501    0  0.36281677769E+02  0.18628152366E+02 -0.80156092545E+03  0.80259783541E+03  0.00000000000E+00 0. -1.
          1    1    1    2  502    0 -0.52170772265E+01  0.11006282819E+03  0.59912806691E+03  0.60917607028E+03  0.00000000000E+00 0. -1.
         22    1    3    3    0    0  0.38663243861E+02 -0.73829016122E+02 -0.18572569113E+03  0.20356719381E+03  0.00000000000E+00 0. -1.
         22    1    3    3    0    0 -0.69727844403E+02 -0.54861964437E+02 -0.86321788640E+02  0.12378715047E+03  0.00000000000E+00 0. -1.
</event>
<event>
 7    1  0.6443388E-006  0.1837744E+03  0.7818608E-02  0.1282328E+00
          2   -1    0    0  502    0  0.00000000000E+00  0.00000000000E+00  0.67106954173E+02  0.67106954173E+02  0.00000000000E+00 0. -1.
          1   -1    0    0  501    0 -0.00000000000E+00 -0.00000000000E+00 -0.15680786754E+04  0.15680786754E+04  0.00000000000E+00 0. -1.
         25    2    1    2    0    0  0.13963235472E+03 -0.10433970562E+03 -0.93965626636E+03  0.96382750559E+03  0.12500237182E+03 0.  0.
          2    1    1    2  501    0 -0.28313471899E+02 -0.45246018040E+02 -0.45215377452E+03  0.45529319197E+03  0.00000000000E+00 0. -1.
          1    1    1    2  502    0 -0.11131888282E+03  0.14958572366E+03 -0.10916168036E+03  0.21606493204E+03  0.00000000000E+00 0. -1.
         22    1    3    3    0    0 -0.76934583607E+01 -0.28904064753E+02 -0.35313358018E+03  0.35439802441E+03  0.00000000000E+00 0.  1.
         22    1    3    3    0    0  0.14732581308E+03 -0.75435640869E+02 -0.58652268619E+03  0.60942948118E+03  0.00000000000E+00 0.  1.
</event>
<event>
 7    1  0.6443388E-006  0.1503366E+03  0.7818608E-02  0.1360857E+00
          2   -1    0    0  502    0  0.00000000000E+00  0.00000000000E+00  0.21770326856E+03  0.21770326856E+03  0.00000000000E+00 0. -1.
          1   -1    0    0  501    0 -0.00000000000E+00 -0.00000000000E+00 -0.63840677184E+03  0.63840677184E+03  0.00000000000E+00 0. -1.
         25    2    1    2    0    0 -0.27182974888E+02  0.13005316478E+03 -0.97807133726E+02  0.20698363019E+03  0.12499299167E+03 0.  0.
          2    1    1    2  501    0  0.59715236327E+01 -0.15452483899E+03 -0.47192722308E+03  0.49661744718E+03  0.00000000000E+00 0. -1.
          1    1    1    2  502    0  0.21211451255E+02  0.24471674211E+02  0.14903085353E+03  0.15250896303E+03  0.00000000000E+00 0. -1.
         22    1    3    3    0    0 -0.42224963805E+02  0.14807402718E+02 -0.76789312149E+02  0.88875222666E+02  0.00000000000E+00 0. -1.
         22    1    3    3    0    0  0.15041988916E+02  0.11524576207E+03 -0.21017821576E+02  0.11810840753E+03  0.00000000000E+00 0. -1.
</event>
<event>
 7    1  0.6443388E-006  0.1345436E+03  0.7818608E-02  0.1353694E+00
          2   -1    0    0  502    0  0.00000000000E+00  0.00000000000E+00  0.14538116525E+04  0.14538116525E+04  0.00000000000E+00 0. -1.
          1   -1    0    0  501    0 -0.00000000000E+00 -0.00000000000E+00 -0.21633406190E+04  0.21633406190E+04  0.00000000000E+00 0. -1.
         25    2    1    2    0    0 -0.13756217677E+03  0.11437913656E+02 -0.15080244648E+04  0.15194790001E+04  0.12499786843E+03 0.  0.
          2    1    1    2  501    0  0.12451312443E+03 -0.47596477112E+02 -0.64249132570E+03  0.65617379283E+03  0.00000000000E+00 0. -1.
          1    1    1    2  502    0  0.13049052342E+02  0.36158563456E+02  0.14409868240E+04  0.14414994785E+04  0.00000000000E+00 0. -1.
         22    1    3    3    0    0  0.64316482257E+01  0.23955612033E+02 -0.71077529701E+02  0.75281157504E+02  0.00000000000E+00 0. -1.
         22    1    3    3    0    0 -0.14399382500E+03 -0.12517698376E+02 -0.14369469351E+04  0.14441978426E+04  0.00000000000E+00 0. -1.
</event>
<event>
 7    1  0.6443388E-006  0.7673660E+02  0.7818608E-02  0.1482658E+00
          2   -1    0    0  502    0  0.00000000000E+00  0.00000000000E+00  0.15000384643E+03  0.15000384643E+03  0.00000000000E+00 0. -1.
          1   -1    0    0  501    0 -0.00000000000E+00 -0.00000000000E+00 -0.49192852261E+03  0.49192852261E+03  0.00000000000E+00 0. -1.
         25    2    1    2    0    0 -0.11705742220E+02 -0.83202133745E+02 -0.43833541457E+02  0.15686410315E+03  0.12500139215E+03 0.  0.
          2    1    1    2  501    0 -0.20415182930E+02  0.14221570605E+02 -0.37561630751E+03  0.37643942837E+03  0.00000000000E+00 0. -1.
          1    1    1    2  502    0  0.32120925150E+02  0.68980563140E+02  0.77525172790E+02  0.10862883751E+03  0.00000000000E+00 0. -1.
         22    1    3    3    0    0  0.31775389960E+02 -0.90260514787E+02 -0.14006648196E+01  0.95700563209E+02  0.00000000000E+00 0. -1.
         22    1    3    3    0    0 -0.43481132180E+02  0.70583810411E+01 -0.42432876637E+02  0.61163539942E+02  0.00000000000E+00 0. -1.
</event>
<event>
 7    1  0.6443388E-006  0.1447402E+03  0.7818608E-02  0.1258878E+00
          2   -1    0    0  502    0  0.00000000000E+00  0.00000000000E+00  0.73159025392E+03  0.73159025392E+03  0.00000000000E+00 0. -1.
          1   -1    0    0  501    0 -0.00000000000E+00 -0.00000000000E+00 -0.66232534932E+03  0.66232534932E+03  0.00000000000E+00 0. -1.
         25    2    1    2    0    0 -0.74206518135E+02  0.14625573100E+03  0.20020856484E+03  0.28741511100E+03  0.12500652148E+03 0.  0.
          2    1    1    2  501    0 -0.10775179332E+02 -0.14446371072E+03 -0.60642159851E+03  0.62348458149E+03  0.00000000000E+00 0. -1.
          1    1    1    2  502    0  0.84981697467E+02 -0.17920202802E+01  0.47547793829E+03  0.48301591075E+03  0.00000000000E+00 0. -1.
         22    1    3    3    0    0 -0.39951178354E+02  0.65271111669E+02  0.91235389568E+01  0.77069148389E+02  0.00000000000E+00 0. -1.
         22    1    3    3    0    0 -0.34255339781E+02  0.80984619335E+02  0.19108502588E+03  0.21034596261E+03  0.00000000000E+00 0. -1.
</event>
<event>
 7    1  0.6443388E-006  0.3648086E+03  0.7818608E-02  0.1217591E+00
          2   -1    0    0  502    0  0.00000000000E+00  0.00000000000E+00  0.42981327822E+03  0.42981327822E+03  0.00000000000E+00 0. -1.
          1   -1    0    0  501    0 -0.00000000000E+00 -0.00000000000E+00 -0.78770378837E+03  0.78770378837E+03  0.00000000000E+00 0. -1.
         25    2    1    2    0    0  0.24394438048E+03  0.23580979675E+03  0.27158588239E+02  0.36259694333E+03  0.12499533345E+03 0.  0.
          2    1    1    2  501    0  0.43702291986E+02  0.26976888440E+02 -0.45601495385E+03  0.45889789820E+03  0.00000000000E+00 0. -1.
          1    1    1    2  502    0 -0.28764667247E+03 -0.26278668519E+03  0.70965855467E+02  0.39602222506E+03  0.00000000000E+00 0. -1.
         22    1    3    3    0    0  0.14125710476E+03  0.16922735927E+03  0.72549167320E+02  0.23206647851E+03  0.00000000000E+00 0. -1.
         22    1    3    3    0    0  0.10268727573E+03  0.66582437481E+02 -0.45390579081E+02  0.13053046482E+03  0.00000000000E+00 0. -1.
</event>
<event>
 7    1  0.6443388E-006  0.8619433E+02  0.7818608E-02  0.1491406E+00
          2   -1    0    0  502    0  0.00000000000E+00  0.00000000000E+00  0.81369193216E+03  0.81369193216E+03  0.00000000000E+00 0. -1.
          1   -1    0    0  501    0 -0.00000000000E+00 -0.00000000000E+00 -0.70144345903E+02  0.70144345903E+02  0.00000000000E+00 0. -1.
         25    2    1    2    0    0  0.35787057102E+02  0.68412609173E+02  0.19860308305E+03  0.24703409646E+03  0.12498664596E+03 0.  0.
          2    1    1    2  501    0 -0.23275910249E+02 -0.85073768111E+02 -0.32032620090E+01  0.88258568457E+02  0.00000000000E+00 0. -1.
          1    1    1    2  502    0 -0.12511146853E+02  0.16661158938E+02  0.54814776521E+03  0.54854361314E+03  0.00000000000E+00 0. -1.
         22    1    3    3    0    0 -0.11844824923E+02 -0.97807616942E+01 -0.10606250929E+02  0.18666969104E+02  0.00000000000E+00 0.  1.
         22    1    3    3    0    0  0.47631882025E+02  0.78193370867E+02  0.20920933398E+03  0.22836712736E+03  0.00000000000E+00 0.  1.
</event>
<event>
 7    1  0.6443388E-006  0.1876329E+03  0.7818608E-02  0.1265266E+00
          2   -1    0    0  502    0  0.00000000000E+00  0.00000000000E+00  0.15258686461E+03  0.15258686461E+03  0.00000000000E+00 0. -1.
          1   -1    0    0  501    0 -0.00000000000E+00 -0.00000000000E+00 -0.18900197721E+04  0.18900197721E+04  0.00000000000E+00 0. -1.
         25    2    1    2    0    0 -0.15113054905E+03  0.16713935406E+03 -0.92846226615E+03  0.96355751824E+03  0.12499961901E+03 0.  0.
          2    1    1    2  501    0  0.13299914358E+03 -0.10827586554E+03 -0.92870184073E+03  0.94440433302E+03  0.00000000000E+00 0. -1.
          1    1    1    2  502    0  0.18131405469E+02 -0.58863488524E+02  0.11973119938E+03  0.13464478546E+03  0.00000000000E+00 0. -1.
         22    1    3    3    0    0 -0.10036759008E+03  0.77354852576E+02 -0.28527123663E+03  0.31214917076E+03  0.00000000000E+00 0.  1.
         22    1    3    3    0    0 -0.50762958966E+02  0.89784501487E+02 -0.64319102952E+03  0.65140834748E+03  0.00000000000E+00 0.  1.
</event>
<event>
 7    1  0.6443388E-006  0.6823852E+02  0.7818608E-02  0.1423572E+00
          2   -1    0    0  502    0  0.00000000000E+00  0.00000000000E+00  0.99994998208E+03  0.99994998208E+03  0.00000000000E+00 0. -1.
          1   -1    0    0  501    0 -0.00000000000E+00 -0.00000000000E+00 -0.33067850232E+03  0.33067850232E+03  0.00000000000E+00 0. -1.
         25    2    1    2    0    0  0.79843702419E+01 -0.26330793579E+02 -0.12541770978E+03  0.17919922519E+03  0.12500279806E+03 0.  0.
          2    1    1    2  501    0  0.30863405407E+02 -0.30176388120E+02 -0.17452943069E+03  0.17978789273E+03  0.00000000000E+00 0. -1.
          1    1    1    2  502    0 -0.38847775649E+02  0.56507181699E+02  0.96921862023E+03  0.97164136648E+03  0.00000000000E+00 0. -1.
         22    1    3    3    0    0  0.57570406454E+02 -0.38612569231E+02 -0.41026668825E+02  0.80551038211E+02  0.00000000000E+00 0.  1.
         22    1    3    3    0    0 -0.49586036213E+02  0.12281775651E+02 -0.84391040959E+02  0.98648186981E+02  0.00000000000E+00 0.  1.
</event>
<event>
 7    1  0.6443388E-006  0.1284325E+03  0.7818608E-02  0.1259839E+00
          2   -1    0    0  502    0  0.00000000000E+00  0.00000000000E+00  0.23196831924E+04  0.23196831924E+04  0.00000000000E+00 0. -1.
          1   -1    0    0  501    0 -0.00000000000E+00 -0.00000000000E+00 -0.11746452180E+04  0.11746452180E+04  0.00000000000E+00 0. -1.
         25    2    1    2    0    0 -0.16324620599E+03  0.14613639617E+03  0.33090458957E+03  0.41608742144E+03  0.12500289928E+03 0.  0.
          2    1    1    2  501    0  0.70785951913E+02 -0.63196417248E+02 -0.11280779467E+04  0.11320619647E+04  0.00000000000E+00 0. -1.
          1    1    1    2  502    0  0.92460254074E+02 -0.82939978918E+02  0.19422113314E+04  0.19461790243E+04  0.00000000000E+00 0. -1.
         22    1    3    3    0    0 -0.15225801994E+03  0.13918830910E+03  0.34173104862E+03  0.39916913661E+03  0.00000000000E+00 0. -1.
         22    1    3    3    0    0 -0.10988186042E+02  0.69480870623E+01 -0.10826459046E+02  0.16918284836E+02  0.00000000000E+00 0. -1.
</event>
<event>
 7    1  0.6443388E-006  0.1068615E+03  0.7818608E-02  0.1325112E+00
          2   -1    0    0  502    0  0.00000000000E+00  0.00000000000E+00  0.49744050069E+03  0.49744050069E+03  0.00000000000E+00 0. -1.
          1   -1    0    0  501    0 -0.00000000000E+00 -0.00000000000E+00 -0.96649712342E+03  0.96649712342E+03  0.00000000000E+00 0. -1.
         25    2    1    2    0    0  0.91035183836E+01 -0.59387368995E+02  0.75931697028E+02  0.15812285336E+03  0.12500992160E+03 0.  0.
          2    1    1    2  501    0 -0.23352733975E+02 -0.57446738484E+02 -0.91522306833E+03  0.91732150458E+03  0.00000000000E+00 0. -1.
          1    1    1    2  502    0  0.14249215591E+02  0.11683410748E+03  0.37023474857E+03  0.38849326618E+03  0.00000000000E+00 0. -1.
         22    1    3    3    0    0 -0.41194757748E+02 -0.74041412702E+02  0.58285551107E+02  0.10284135515E+03  0.00000000000E+00 0.  1.
         22    1    3    3    0    0  0.50298276131E+02  0.14654043706E+02  0.17646145921E+02  0.55281498213E+02  0.00000000000E+00 0.  1.
</event>
<event>
 7    1  0.6443388E-006  0.1896105E+03  0.7818608E-02  0.1254408E+00
          2   -1    0    0  502    0  0.00000000000E+00  0.00000000000E+00  0.51131516460E+03  0.51131516460E+03  0.00000000000E+00 0. -1.
          1   -1    0    0  501    0 -0.00000000000E+00 -0.00000000000E+00 -0.76885335574E+03  0.76885335574E+03  0.00000000000E+00 0. -1.
         25    2    1    2    0    0  0.13134941461E+03  0.49179687371E+01  0.35400960236E+03  0.39777501419E+03  0.12500123287E+03 0.  0.
          2    1    1    2  501    0 -0.18636301158E+03 -0.44571746551E+02 -0.72517693373E+03  0.75006626233E+03  0.00000000000E+00 0. -1.
          1    1    1    2  502    0  0.55013596965E+02  0.39653777814E+02  0.11362914023E+03  0.13232724382E+03  0.00000000000E+00 0. -1.
         22    1    3    3    0    0  0.36238672186E+02 -0.47164379784E+02  0.60349148884E+02  0.84733345581E+02  0.00000000000E+00 0. -1.
         22    1    3    3    0    0  0.95110742426E+02  0.52082348522E+02  0.29366045347E+03  0.31304166861E+03  0.00000000000E+00 0. -1.
</event>
<event>
 7    1  0.6443388E-006  0.1078326E+03  0.7818608E-02  0.1388989E+00
          2   -1    0    0  502    0  0.00000000000E+00  0.00000000000E+00  0.17455966557E+03  0.17455966557E+03  0.00000000000E+00 0. -1.
          1   -1    0    0  501    0 -0.00000000000E+00 -0.00000000000E+00 -0.17002814321E+04  0.17002814321E+04  0.00000000000E+00 0. -1.
         25    2    1    2    0    0 -0.16588053724E+02  0.13395720619E+03 -0.20349003016E+03  0.27432966025E+03  0.12501549305E+03 0.  0.
          2    1    1    2  501    0  0.21862976770E+02 -0.28387608328E+02 -0.14410420081E+04  0.14414873968E+04  0.00000000000E+00 0. -1.
          1    1    1    2  502    0 -0.52749230457E+01 -0.10556959786E+03  0.11881027176E+03  0.15902404058E+03  0.00000000000E+00 0. -1.
         22    1    3    3    0    0  0.35632049848E+02  0.26913629111E+01 -0.76234927686E+02  0.84194124557E+02  0.00000000000E+00 0. -1.
         22    1    3    3    0    0 -0.52220103572E+02  0.13126584328E+03 -0.12725510248E+03  0.19013553570E+03  0.00000000000E+00 0. -1.
</event>
<event>
 7    1  0.6443388E-006  0.1363149E+03  0.7818608E-02  0.1220962E+00
          2   -1    0    0  502    0  0.00000000000E+00  0.00000000000E+00  0.47191752125E+03  0.47191752125E+03  0.00000000000E+00 0. -1.
          1   -1    0    0  501    0 -0.00000000000E+00 -0.00000000000E+00 -0.72640353717E+03  0.72640353717E+03  0.00000000000E+00 0. -1.
         25    2    1    2    0    0  0.38122257701E+02  0.55206777359E+02 -0.94936846548E+02  0.17070239084E+03  0.12500082643E+03 0.  0.
          2    1    1    2  501    0 -0.11190383319E+03  0.71249659480E+02 -0.57344588492E+03  0.58859082969E+03  0.00000000000E+00 0. -1.
          1    1    1    2  502    0  0.73781575489E+02 -0.12645643684E+03  0.41389671555E+03  0.43902783789E+03  0.00000000000E+00 0. -1.
         22    1    3    3    0    0  0.62957396689E+02  0.37930086951E+02 -0.11349077377E+03  0.13521272509E+03  0.00000000000E+00 0.  1.
         22    1    3    3    0    0 -0.24835138987E+02  0.17276690407E+02  0.18553927225E+02  0.35489665755E+02  0.00000000000E+00 0.  1.
</event>
<event>
 7    1  0.6443388E-006  0.1782450E+03  0.7818608E-02  0.1220350E+00
          2   -1    0    0  502    0  0.00000000000E+00  0.00000000000E+00  0.13107448881E+04  0.13107448881E+04  0.00000000000E+00 0. -1.
          1   -1    0    0  501    0 -0.00000000000E+00 -0.00000000000E+00 -0.16053315715E+04  0.16053315715E+04  0.00000000000E+00 0. -1.
         25    2    1    2    0    0  0.43774529404E+02  0.80156216711E+02  0.36296627723E+00  0.15481021106E+03  0.12499936481E+03 0.  0.
          2    1    1    2  501    0 -0.33591132666E+02 -0.18175417916E+03 -0.15203877957E+04  0.15315815340E+04  0.00000000000E+00 0. -1.
          1    1    1    2  502    0 -0.10183396739E+02  0.10159796245E+03  0.12254381460E+04  0.12296847145E+04  0.00000000000E+00 0. -1.
         22    1    3    3    0    0  0.12184377696E+02 -0.25127638575E+02  0.29977664678E+02  0.40969716374E+02  0.00000000000E+00 0. -1.
         22    1    3    3    0    0  0.31590151708E+02  0.10528385529E+03 -0.29614698401E+02  0.11384049469E+03  0.00000000000E+00 0. -1.
</event>
<event>
 7    1  0.6443388E-006  0.1137293E+03  0.7818608E-02  0.1327467E+00
          2   -1    0    0  502    0  0.00000000000E+00  0.00000000000E+00  0.82655195705E+03  0.82655195705E+03  0.00000000000E+00 0. -1.
          1   -1    0    0  501    0 -0.00000000000E+00 -0.00000000000E+00 -0.21883621552E+03  0.21883621552E+03  0.00000000000E+00 0. -1.
         25    2    1    2    0    0 -0.15654686177E+03 -0.31061510701E+02  0.13347001845E+03  0.24271653838E+03  0.12500133920E+03 0.  0.
          2    1    1    2  501    0  0.10952546269E+03 -0.12726519860E+01 -0.14448765104E+03  0.18131223876E+03  0.00000000000E+00 0. -1.
          1    1    1    2  502    0  0.47021399079E+02  0.32334162687E+02  0.61873337411E+03  0.62135939543E+03  0.00000000000E+00 0. -1.
         22    1    3    3    0    0 -0.66435597489E+02 -0.32411363544E+02 -0.86569432407E+01  0.74425316706E+02  0.00000000000E+00 0.  1.
         22    1    3    3    0    0 -0.90111264284E+02  0.13498528436E+01  0.14212696169E+03  0.16829122168E+03  0.00000000000E+00 0.  1.
</event>
<event>
 7    1  0.8131384E-006  0.1115569E+03  0.7818608E-02  0.1296464E+00
          2   -1    0    0  502    0  0.00000000000E+00  0.00000000000E+00  0.23764592425E+04  0.23764592425E+04  0.00000000000E+00 0. -1.
          1   -1    0    0  501    0 -0.00000000000E+00 -0.00000000000E+00 -0.67802760159E+03  0.67802760159E+03  0.00000000000E+00 0. -1.
         25    2    1    2    0    0 -0.11969572421E+03 -0.15801096804E+02  0.32237728807E+02  0.17674781747E+03  0.12499511497E+03 0.  0.
          2    1    1    2  501    0  0.23714573162E+02  0.73272349754E+02 -0.60194054729E+03  0.60684729602E+03  0.00000000000E+00 0. -1.
          1    1    1    2  502    0  0.95981151049E+02 -0.57471252950E+02  0.22681344593E+04  0.22708917306E+04  0.00000000000E+00 0. -1.
         22    1    3    3    0    0 -0.43468979964E+02 -0.17588460318E+02  0.75652229073E+02  0.89006549867E+02  0.00000000000E+00 0.  1.
         22    1    3    3    0    0 -0.76226744247E+02  0.17873635135E+01 -0.43414500266E+02  0.87741267600E+02  0.00000000000E+00 0.  1.
</event>
<event>
 7    1  0.6443388E-006  0.5436141E+02  0.7818608E-02  0.1475204E+00
          2   -1    0    0  502    0  0.00000000000E+00  0.00000000000E+00  0.37589064364E+04  0.37589064364E+04  0.00000000000E+00 0. -1.
          1   -1    0    0  501    0 -0.00000000000E+00 -0.00000000000E+00 -0.19808385008E+02  0.19808385008E+02  0.00000000000E+00 0. -1.
         25    2    1    2    0    0  0.68346739671E+01  0.54725857103E+02  0.15085395934E+04  0.15147146011E+04  0.12500794197E+03 0.  0.
          2    1    1    2  501    0 -0.39684330596E+02 -0.37649632321E+02  0.28594587042E+02  0.61725127111E+02  0.00000000000E+00 0. -1.
          1    1    1    2  502    0  0.32849656629E+02 -0.17076224782E+02  0.22019638709E+04  0.22022750932E+04  0.00000000000E+00 0. -1.
         22    1    3    3    0    0  0.28979726877E+02 -0.15064223922E+02  0.10378808751E+04  0.10383946583E+04  0.00000000000E+00 0.  1.
         22    1    3    3    0    0 -0.22145052910E+02  0.69790081025E+02  0.47065871831E+03  0.47631994279E+03  0.00000000000E+00 0.  1.
</event>
<event>
 7    1  0.6443388E-006  0.6916524E+02  0.7818608E-02  0.1418107E+00
          2   -1    0    0  502    0  0.00000000000E+00  0.00000000000E+00  0.16068235750E+04  0.16068235750E+04  0.00000000000E+00 0. -1.
          1   -1    0    0  501    0 -0.00000000000E+00 -0.00000000000E+00 -0.38537686680E+02  0.38537686680E+02  0.00000000000E+00 0. -1.
         25    2    1    2    0    0  0.26462565911E+02  0.39419335092E+02  0.34987422635E+03  0.37456087379E+03  0.12501888870E+03 0.  0.
          2    1    1    2  501    0 -0.68762810897E+02 -0.25887851266E+02  0.26569329591E+02  0.78130879174E+02  0.00000000000E+00 0. -1.
          1    1    1    2  502    0  0.42300244986E+02 -0.13531483827E+02  0.11918423324E+04  0.11926695087E+04  0.00000000000E+00 0. -1.
         22    1    3    3    0    0  0.64700747627E+02 -0.14380015018E+02  0.20277016306E+03  0.21332770707E+03  0.00000000000E+00 0.  1.
         22    1    3    3    0    0 -0.38238181716E+02  0.53799350110E+02  0.14710406329E+03  0.16123316671E+03  0.00000000000E+00 0.  1.
</event>
<event>
 7    1  0.6443388E-006  0.9059182E+02  0.7818608E-02  0.1478499E+00
          2   -1    0    0  502    0  0.00000000000E+00  0.00000000000E+00  0.11856303190E+04  0.11856303190E+04  0.00000000000E+00 0. -1.
          1   -1    0    0  501    0 -0.00000000000E+00 -0.00000000000E+00 -0.13394398740E+03  0.13394398740E+03  0.00000000000E+00 0. -1.
         25    2    1    2    0    0  0.54978770341E+02 -0.84709515484E+02  0.10725217507E+02  0.16104924086E+03  0.12499384180E+03 0.  0.
          2    1    1    2  501    0 -0.59608237232E+02  0.63506033047E+02 -0.26347029952E+02  0.90996286554E+02  0.00000000000E+00 0. -1.
          1    1    1    2  502    0  0.46294668908E+01  0.21203482437E+02  0.10673081441E+04  0.10675287790E+04  0.00000000000E+00 0. -1.
         22    1    3    3    0    0  0.16089286882E+02 -0.10323722071E+03 -0.22217206682E+02  0.10681944189E+03  0.00000000000E+00 0.  1.
         22    1    3    3    0    0  0.38889483459E+02  0.18527705227E+02  0.32942424189E+02  0.54229798968E+02  0.00000000000E+00 0.  1.
</event>
<event>
 7    1  0.6443388E-006  0.1172172E+03  0.7818608E-02  0.1269612E+00
          2   -1    0    0  502    0  0.00000000000E+00  0.00000000000E+00  0.10481594937E+04  0.10481594937E+04  0.00000000000E+00 0. -1.
          1   -1    0    0  501    0 -0.00000000000E+00 -0.00000000000E+00 -0.79195272032E+03  0.79195272032E+03  0.00000000000E+00 0. -1.
         25    2    1    2    0    0  0.11604760319E+03 -0.15957224486E+03 -0.34460243827E+03  0.41629952171E+03  0.12499641506E+03 0.  0.
          2    1    1    2  501    0 -0.59717112194E+02  0.83672922952E+02 -0.40282650043E+03  0.41573607129E+03  0.00000000000E+00 0. -1.
          1    1    1    2  502    0 -0.56330491000E+02  0.75899321907E+02  0.10036357121E+04  0.10080766211E+04  0.00000000000E+00 0. -1.
         22    1    3    3    0    0  0.57181550082E+02  0.28122623013E+01 -0.12004222816E+03  0.13299539477E+03  0.00000000000E+00 0. -1.
         22    1    3    3    0    0  0.58866053113E+02 -0.16238450716E+03 -0.22456021011E+03  0.28330412694E+03  0.00000000000E+00 0. -1.
</event>
<event>
 7    1  0.6443388E-006  0.1093735E+03  0.7818608E-02  0.1266974E+00
          2   -1    0    0  502    0  0.00000000000E+00  0.00000000000E+00  0.66988480445E+03  0.66988480445E+03  0.00000000000E+00 0. -1.
          1   -1    0    0  501    0 -0.00000000000E+00 -0.00000000000E+00 -0.16096681514E+04  0.16096681514E+04  0.00000000000E+00 0. -1.
         25    2    1    2    0    0 -0.96167762390E+02  0.49325907424E+02  0.39492650556E+03  0.42810355112E+03  0.12499768808E+03 0.  0.
          2    1    1    2  501    0  0.79608134516E+02  0.75000736231E+02 -0.15758498883E+04  0.15796409199E+04  0.00000000000E+00 0. -1.
          1    1    1    2  502    0  0.16559627874E+02 -0.12432664365E+03  0.24114003573E+03  0.27180848484E+03  0.00000000000E+00 0. -1.
         22    1    3    3    0    0  0.29479908762E+01  0.13134710036E+02 -0.50997021698E+01  0.14395076247E+02  0.00000000000E+00 0. -1.
         22    1    3    3    0    0 -0.99115753266E+02  0.36191197388E+02  0.40002620773E+03  0.41370847488E+03  0.00000000000E+00 0. -1.
</event>
<event>
 7    1  0.6443388E-006  0.1523230E+03  0.7818608E-02  0.1253620E+00
          2   -1    0    0  502    0  0.00000000000E+00  0.00000000000E+00  0.20428381574E+04  0.20428381574E+04  0.00000000000E+00 0. -1.
          1   -1    0    0  501    0 -0.00000000000E+00 -0.00000000000E+00 -0.29469634246E+03  0.29469634246E+03  0.00000000000E+00 0. -1.
         25    2    1    2    0    0 -0.23100506354E+01  0.22076539766E+03  0.37288083686E+03  0.45100583770E+03  0.12499379988E+03 0.  0.
          2    1    1    2  501    0  0.38791855053E+02 -0.14390546745E+03 -0.23268919918E+03  0.27632925106E+03  0.00000000000E+00 0. -1.
          1    1    1    2  502    0 -0.36481804418E+02 -0.76859930218E+02  0.16079501773E+04  0.16101994111E+04  0.00000000000E+00 0. -1.
         22    1    3    3    0    0  0.18715282194E+02  0.10358491636E+03  0.28267944396E+03  0.30164178212E+03  0.00000000000E+00 0.  1.
         22    1    3    3    0    0 -0.21025332829E+02  0.11718048130E+03  0.90201392900E+02  0.14936405558E+03  0.00000000000E+00 0.  1.
</event>
<event>
 7    1  0.6443388E-006  0.3366524E+02  0.7818608E-02  0.1566737E+00
          2   -1    0    0  502    0  0.00000000000E+00  0.00000000000E+00  0.13596434958E+03  0.13596434958E+03  0.00000000000E+00 0. -1.
          1   -1    0    0  501    0 -0.00000000000E+00 -0.00000000000E+00 -0.26294879053E+03  0.26294879053E+03  0.00000000000E+00 0. -1.
         25    2    1    2    0    0 -0.20641361574E+02  0.19427055073E+01 -0.13718927571E+03  0.18675252304E+03  0.12500307028E+03 0.  0.
          2    1    1    2  501    0  0.10320747164E+02 -0.33986942192E+02 -0.95146947300E+02  0.10156067961E+03  0.00000000000E+00 0. -1.
          1    1    1    2  502    0  0.10320614410E+02  0.32044236684E+02  0.10535178205E+03  0.11059993747E+03  0.00000000000E+00 0. -1.
         22    1    3    3    0    0  0.89396471698E+01 -0.35716246827E+02 -0.13376842969E+03  0.13874278490E+03  0.00000000000E+00 0. -1.
         22    1    3    3    0    0 -0.29581008743E+02  0.37658952334E+02 -0.34208460167E+01  0.48009738144E+02  0.00000000000E+00 0. -1.
</event>
<event>
 7    1  0.6443388E-006  0.1143737E+03  0.7818608E-02  0.1432654E+00
          2   -1    0    0  502    0  0.00000000000E+00  0.00000000000E+00  0.32183877119E+03  0.32183877119E+03  0.00000000000E+00 0. -1.
          1   -1    0    0  501    0 -0.00000000000E+00 -0.00000000000E+00 -0.16407369217E+03  0.16407369217E+03  0.00000000000E+00 0. -1.
         25    2    1    2    0    0  0.96969353063E+02  0.16802636940E+02  0.26675269370E+02  0.16131331941E+03  0.12500013192E+03 0.  0.
          2    1    1    2  501    0 -0.12039050387E+03 -0.11404175926E+02 -0.57907882174E+02  0.13407927308E+03  0.00000000000E+00 0. -1.
          1    1    1    2  502    0  0.23421150807E+02 -0.53984610141E+01  0.18899769182E+03  0.19051987088E+03  0.00000000000E+00 0. -1.
         22    1    3    3    0    0  0.40858031117E+02  0.34302321167E+02 -0.44169806991E+02  0.69260376796E+02  0.00000000000E+00 0.  1.
         22    1    3    3    0    0  0.56111321946E+02 -0.17499684228E+02  0.70845076362E+02  0.92052942611E+02  0.00000000000E+00 0.  1.
</event>
<event>
 7    1  0.6443388E-006  0.4724311E+02  0.7818608E-02  0.1517703E+00
          2   -1    0    0  502    0  0.00000000000E+00  0.00000000000E+00  0.11549988034E+04  0.11549988034E+04  0.00000000000E+00 0. -1.
          1   -1    0    0  501    0 -0.00000000000E+00 -0.00000000000E+00 -0.25209108989E+03  0.25209108989E+03  0.00000000000E+00 0. -1.
         25    2    1    2    0    0 -0.35833600821E+02 -0.32873857534E+01  0.46321394791E+03  0.48113010842E+03  0.12499666330E+03 0.  0.
          2    1    1    2  501    0  0.32067988913E+02  0.34828796494E+02 -0.24045409581E+03  0.24507054733E+03  0.00000000000E+00 0. -1.
          1    1    1    2  502    0  0.37656119074E+01 -0.31541410741E+02  0.68014786141E+03  0.68088923754E+03  0.00000000000E+00 0. -1.
         22    1    3    3    0    0 -0.27507684053E+02  0.16541609589E+02  0.45783869413E+03  0.45896249016E+03  0.00000000000E+00 0. -1.
         22    1    3    3    0    0 -0.83259167673E+01 -0.19828995342E+02  0.53752537833E+01  0.22167618265E+02  0.00000000000E+00 0. -1.
</event>
<event>
 7    1  0.6443388E-006  0.8574037E+02  0.7818608E-02  0.1376842E+00
          2   -1    0    0  502    0  0.00000000000E+00  0.00000000000E+00  0.13746866885E+04  0.13746866885E+04  0.00000000000E+00 0. -1.
          1   -1    0    0  501    0 -0.00000000000E+00 -0.00000000000E+00 -0.53244019558E+03  0.53244019558E+03  0.00000000000E+00 0. -1.
         25    2    1    2    0    0 -0.10520357409E+03 -0.74682248675E+02 -0.57252458846E+02  0.18854211129E+03  0.12500021366E+03 0.  0.
          2    1    1    2  501    0  0.57775799192E+02  0.59711177429E+02 -0.40484997861E+03  0.41328800232E+03  0.00000000000E+00 0. -1.
          1    1    1    2  502    0  0.47427774894E+02  0.14971071246E+02  0.13043489304E+04  0.13052967705E+04  0.00000000000E+00 0. -1.
         22    1    3    3    0    0 -0.43292347492E+01 -0.46845027772E+02  0.26958586627E+02  0.54221437582E+02  0.00000000000E+00 0. -1.
         22    1    3    3    0    0 -0.10087433934E+03 -0.27837220903E+02 -0.84211045474E+02  0.13432067370E+03  0.00000000000E+00 0. -1.
</event>
<event>
 7    1  0.6443388E-006  0.1102095E+03  0.7818608E-02  0.1326351E+00
          2   -1    0    0  502    0  0.00000000000E+00  0.00000000000E+00  0.15389929897E+04  0.15389929897E+04  0.00000000000E+00 0. -1.
          1   -1    0    0  501    0 -0.00000000000E+00 -0.00000000000E+00 -0.42338000755E+03  0.42338000755E+03  0.00000000000E+00 0. -1.
         25    2    1    2    0    0  0.15842648680E+03  0.48386235421E+02  0.13111380566E+03  0.24547098821E+03  0.12499998608E+03 0.  0.
          2    1    1    2  501    0 -0.59235889904E+02 -0.52985593522E+01 -0.36160382406E+03  0.36646185471E+03  0.00000000000E+00 0. -1.
          1    1    1    2  502    0 -0.99190596893E+02 -0.43087676068E+02  0.13461030005E+04  0.13504401543E+04  0.00000000000E+00 0. -1.
         22    1    3    3    0    0  0.14428764074E+03  0.69038558425E+02  0.14581668490E+03  0.21644341389E+03  0.00000000000E+00 0. -1.
         22    1    3    3    0    0  0.14138846053E+02 -0.20652323004E+02 -0.14702879236E+02  0.29027574322E+02  0.00000000000E+00 0. -1.
</event>
<event>
 7    1  0.6443388E-006  0.3517580E+02  0.7818608E-02  0.1554009E+00
          2   -1    0    0  502    0  0.00000000000E+00  0.00000000000E+00  0.94494472402E+02  0.94494472402E+02  0.00000000000E+00 0. -1.
          1   -1    0    0  501    0 -0.00000000000E+00 -0.00000000000E+00 -0.18697190988E+04  0.18697190988E+04  0.00000000000E+00 0. -1.
         25    2    1    2    0    0  0.47324731451E+02  0.85494857070E+00 -0.32956551395E+03  0.35563641848E+03  0.12499389193E+03 0.  0.
          2    1    1    2  501    0 -0.24347152211E+02 -0.25422159702E+02 -0.15234334786E+04  0.15238400945E+04  0.00000000000E+00 0. -1.
          1    1    1    2  502    0 -0.22977579241E+02  0.24567211132E+02  0.77774366114E+02  0.84737058215E+02  0.00000000000E+00 0. -1.
         22    1    3    3    0    0  0.82642405740E+02 -0.25116811024E+02 -0.17786611581E+03  0.19772955413E+03  0.00000000000E+00 0.  1.
         22    1    3    3    0    0 -0.35317674289E+02  0.25971759595E+02 -0.15169939813E+03  0.15790686434E+03  0.00000000000E+00 0.  1.
</event>
<event>
 7    1  0.6443388E-006  0.4964934E+02  0.7818608E-02  0.1456478E+00
          2   -1    0    0  502    0  0.00000000000E+00  0.00000000000E+00  0.49635311404E+03  0.49635311404E+03  0.00000000000E+00 0. -1.
          1   -1    0    0  501    0 -0.00000000000E+00 -0.00000000000E+00 -0.15715164549E+04  0.15715164549E+04  0.00000000000E+00 0. -1.
         25    2    1    2    0    0  0.30434662711E+02  0.35237691686E+02 -0.25479395942E+01  0.13340716041E+03  0.12499205911E+03 0.  0.
          2    1    1    2  501    0 -0.49287885576E+02  0.71503976542E+01 -0.15018763396E+04  0.15027018877E+04  0.00000000000E+00 0. -1.
          1    1    1    2  502    0  0.18853222864E+02 -0.42388089341E+02  0.42926093836E+03  0.43176052081E+03  0.00000000000E+00 0. -1.
         22    1    3    3    0    0  0.11808003030E+02 -0.41343616993E+02  0.25216510549E+02  0.49845722041E+02  0.00000000000E+00 0. -1.
         22    1    3    3    0    0  0.18626659682E+02  0.76581308679E+02 -0.27764450143E+02  0.83561438365E+02  0.00000000000E+00 0. -1.
</event>
<event>
 7    1  0.6443388E-006  0.8659284E+02  0.7818608E-02  0.1356186E+00
          2   -1    0    0  502    0  0.00000000000E+00  0.00000000000E+00  0.21646990142E+04  0.21646990142E+04  0.00000000000E+00 0. -1.
          1   -1    0    0  501    0 -0.00000000000E+00 -0.00000000000E+00 -0.49904674773E+02  0.49904674773E+02  0.00000000000E+00 0. -1.
         25    2    1    2    0    0 -0.10750002279E+03 -0.42425995480E+02  0.97116734315E+03  0.98597534177E+03  0.12500058476E+03 0.  0.
          2    1    1    2  501    0  0.54409478868E+02 -0.21438191638E+02 -0.20178007119E+02  0.61863878174E+02  0.00000000000E+00 0. -1.
          1    1    1    2  502    0  0.53090543922E+02  0.63864187119E+02  0.11638050034E+04  0.11667644690E+04  0.00000000000E+00 0. -1.
         22    1    3    3    0    0  0.12477663374E+02  0.15117657579E+02  0.35798942825E+03  0.35852568443E+03  0.00000000000E+00 0. -1.
         22    1    3    3    0    0 -0.11997768616E+03 -0.57543653059E+02  0.61317791490E+03  0.62744965735E+03  0.00000000000E+00 0. -1.
</event>
<event>
 7    1  0.6443388E-006  0.2082772E+03  0.7818608E-02  0.1274601E+00
          2   -1    0    0  502    0  0.00000000000E+00  0.00000000000E+00  0.17674705521E+03  0.17674705521E+03  0.00000000000E+00 0. -1.
          1   -1    0    0  501    0 -0.00000000000E+00 -0.00000000000E+00 -0.23984849888E+04  0.23984849888E+04  0.00000000000E+00 0. -1.
         25    2    1    2    0    0  0.13585223156E+03  0.12547658217E+03 -0.11003036446E+03  0.24886641500E+03  0.12501043925E+03 0.  0.
          2    1    1    2  501    0  0.50695249032E+02 -0.48499026919E+00 -0.21009459505E+04  0.21015575486E+04  0.00000000000E+00 0. -1.
          1    1    1    2  502    0 -0.18654748059E+03 -0.12499159190E+03 -0.10761618671E+02  0.22480808036E+03  0.00000000000E+00 0. -1.
         22    1    3    3    0    0  0.36679645914E+02 -0.10178921926E+02  0.13410707847E+02  0.40359062934E+02  0.00000000000E+00 0. -1.
         22    1    3    3    0    0  0.99172585646E+02  0.13565550410E+03 -0.12344107231E+03  0.20850735207E+03  0.00000000000E+00 0. -1.
</event>
<event>
 7    1  0.6443388E-006  0.4871998E+02  0.7818608E-02  0.1464762E+00
          2   -1    0    0  502    0  0.00000000000E+00  0.00000000000E+00  0.24872612645E+04  0.24872612645E+04  0.00000000000E+00 0. -1.
          1   -1    0    0  501    0 -0.00000000000E+00 -0.00000000000E+00 -0.51530754786E+03  0.51530754786E+03  0.00000000000E+00 0. -1.
         25    2    1    2    0    0  0.44443949653E+02 -0.81145136486E+02 -0.59063027189E+02  0.16634355639E+03  0.12498775834E+03 0.  0.
          2    1    1    2  501    0 -0.25949615481E+02  0.36172692248E+02 -0.40112984252E+03  0.40359261238E+03  0.00000000000E+00 0. -1.
          1    1    1    2  502    0 -0.18494334173E+02  0.44972444238E+02  0.24321465863E+04  0.24326326435E+04  0.00000000000E+00 0. -1.
         22    1    3    3    0    0  0.11940892126E+02  0.32072722659E+02  0.75973228585E+00  0.34231880414E+02  0.00000000000E+00 0.  1.
         22    1    3    3    0    0  0.32503057527E+02 -0.11321785915E+03 -0.59822759475E+02  0.13211167598E+03  0.00000000000E+00 0.  1.
</event>
<event>
 7    1  0.6443388E-006  0.5093659E+02  0.7818608E-02  0.1476459E+00
          2   -1    0    0  502    0  0.00000000000E+00  0.00000000000E+00  0.10359225942E+04  0.10359225942E+04  0.00000000000E+00 0. -1.
          1   -1    0    0  501    0 -0.00000000000E+00 -0.00000000000E+00 -0.77422277643E+03  0.77422277643E+03  0.00000000000E+00 0. -1.
         25    2    1    2    0    0  0.59820592627E+02 -0.52878618528E+02  0.48418031311E+03  0.50638963825E+03  0.12500095409E+03 0.  0.
          2    1    1    2  501    0 -0.48518232342E+02  0.15383737651E+02 -0.76155832540E+03  0.76325733618E+03  0.00000000000E+00 0. -1.
          1    1    1    2  502    0 -0.11302360285E+02  0.37494880877E+02  0.53907783010E+03  0.54049839624E+03  0.00000000000E+00 0. -1.
         22    1    3    3    0    0  0.63162071504E+02 -0.89840342438E+02  0.38979147701E+03  0.40496682575E+03  0.00000000000E+00 0. -1.
         22    1    3    3    0    0 -0.33414788777E+01  0.36961723911E+02  0.94388836103E+02  0.10142281251E+03  0.00000000000E+00 0. -1.
</event>
<event>
 7    1  0.6939338E-006  0.4903599E+02  0.7818608E-02  0.1470856E+00
          2   -1    0    0  502    0  0.00000000000E+00  0.00000000000E+00  0.10482620658E+04  0.10482620658E+04  0.00000000000E+00 0. -1.
          1   -1    0    0  501    0 -0.00000000000E+00 -0.00000000000E+00 -0.72276115408E+03  0.72276115408E+03  0.00000000000E+00 0. -1.
         25    2    1    2    0    0  0.78149972733E+02 -0.43034424201E+02 -0.52264199964E+02  0.16222185561E+03  0.12500001573E+03 0.  0.
          2    1    1    2  501    0 -0.40674685195E+02  0.11745226170E+02 -0.61418909655E+03  0.61564651113E+03  0.00000000000E+00 0. -1.
          1    1    1    2  502    0 -0.37475287538E+02  0.31289198031E+02  0.99195420826E+03  0.99315485317E+03  0.00000000000E+00 0. -1.
         22    1    3    3    0    0 -0.30766886193E+02 -0.16854971522E+02  0.65719319510E+01  0.35691478543E+02  0.00000000000E+00 0. -1.
         22    1    3    3    0    0  0.10891685893E+03 -0.26179452679E+02 -0.58836131915E+02  0.12653037706E+03  0.00000000000E+00 0. -1.
</event>
<event>
 7    1  0.6443388E-006  0.5991036E+02  0.7818608E-02  0.1411252E+00
          2   -1    0    0  502    0  0.00000000000E+00  0.00000000000E+00  0.28366507226E+04  0.28366507226E+04  0.00000000000E+00 0. -1.
          1   -1    0    0  501    0 -0.00000000000E+00 -0.00000000000E+00 -0.21029077629E+02  0.21029077629E+02  0.00000000000E+00 0. -1.
         25    2    1    2    0    0  0.17751501111E+02 -0.10717068772E+02  0.64881142824E+03  0.66106823721E+03  0.12499989391E+03 0.  0.
          2    1    1    2  501    0  0.40838455827E+02  0.35437103512E+02  0.36237668238E+02  0.65090217229E+02  0.00000000000E+00 0. -1.
          1    1    1    2  502    0 -0.58589956938E+02 -0.24720034740E+02  0.21305725485E+04  0.21315213458E+04  0.00000000000E+00 0. -1.
         22    1    3    3    0    0 -0.29742068953E+02  0.17745639163E+02  0.57176033860E+02  0.66847567068E+02  0.00000000000E+00 0. -1.
         22    1    3    3    0    0  0.47493570064E+02 -0.28462707934E+02  0.59163539438E+03  0.59422067014E+03  0.00000000000E+00 0. -1.
</event>
<event>
 7    1  0.6443388E-006  0.1582611E+03  0.7818608E-02  0.1290125E+00
          2   -1    0    0  502    0  0.00000000000E+00  0.00000000000E+00  0.81721098401E+02  0.81721098401E+02  0.00000000000E+00 0. -1.
          1   -1    0    0  501    0 -0.00000000000E+00 -0.00000000000E+00 -0.71710975878E+03  0.71710975878E+03  0.00000000000E+00 0. -1.
         25    2    1    2    0    0 -0.86243301746E+02 -0.94355494838E+02 -0.10405777556E+03  0.20686806821E+03  0.12500204194E+03 0.  0.
          2    1    1    2  501    0  0.73544276118E+02  0.15052738532E+03 -0.49799672556E+03  0.52542172866E+03  0.00000000000E+00 0. -1.
          1    1    1    2  502    0  0.12699025628E+02 -0.56171890485E+02 -0.33334159257E+02  0.66541060301E+02  0.00000000000E+00 0. -1.
         22    1    3    3    0    0 -0.47036068339E+02 -0.11672642043E+03 -0.47518803382E+02  0.13451946188E+03  0.00000000000E+00 0.  1.
         22    1    3    3    0    0 -0.39207233407E+02  0.22370925589E+02 -0.56538972176E+02  0.72348606330E+02  0.00000000000E+00 0.  1.
</event>
<event>
 7    1  0.6443388E-006  0.8222435E+02  0.7818608E-02  0.1330879E+00
          2   -1    0    0  502    0  0.00000000000E+00  0.00000000000E+00  0.44672674062E+04  0.44672674062E+04  0.00000000000E+00 0. -1.
          1   -1    0    0  501    0 -0.00000000000E+00 -0.00000000000E+00 -0.46462653871E+02  0.46462653871E+02  0.00000000000E+00 0. -1.
         25    2    1    2    0    0  0.85124446123E+02  0.44228008173E+02  0.16474153118E+04  0.16549333250E+04  0.12499925012E+03 0.  0.
          2    1    1    2  501    0 -0.76331345365E+02  0.31859700757E+02 -0.16211096599E+01  0.82729334665E+02  0.00000000000E+00 0. -1.
          1    1    1    2  502    0 -0.87931007582E+01 -0.76087708930E+02  0.27750105501E+04  0.27760674004E+04  0.00000000000E+00 0. -1.
         22    1    3    3    0    0  0.45665675648E+02 -0.54169208334E+01  0.16859876671E+03  0.17475766392E+03  0.00000000000E+00 0. -1.
         22    1    3    3    0    0  0.39458770475E+02  0.49644929006E+02  0.14788165451E+04  0.14801756611E+04  0.00000000000E+00 0. -1.
</event>
<event>
 7    1  0.6443388E-006  0.8871657E+02  0.7818608E-02  0.1427775E+00
          2   -1    0    0  502    0  0.00000000000E+00  0.00000000000E+00  0.10832462589E+04  0.10832462589E+04  0.00000000000E+00 0. -1.
          1   -1    0    0  501    0 -0.00000000000E+00 -0.00000000000E+00 -0.83078021538E+02  0.83078021538E+02  0.00000000000E+00 0. -1.
         25    2    1    2    0    0  0.76809106374E+02  0.52620265681E+01  0.15095791557E+03  0.21057641217E+03  0.12500722118E+03 0.  0.
          2    1    1    2  501    0 -0.88798074214E+02  0.24572705531E+02 -0.12903645833E+02  0.93034509280E+02  0.00000000000E+00 0. -1.
          1    1    1    2  502    0  0.11988967840E+02 -0.29834732099E+02  0.86211396765E+03  0.86271335901E+03  0.00000000000E+00 0. -1.
         22    1    3    3    0    0  0.96102021327E+02  0.38717810752E+02  0.84436685951E+02  0.13365710347E+03  0.00000000000E+00 0. -1.
         22    1    3    3    0    0 -0.19292914953E+02 -0.33455784184E+02  0.66521229615E+02  0.76919308709E+02  0.00000000000E+00 0. -1.
</event>
<event>
 7    1  0.6443388E-006  0.7648584E+02  0.7818608E-02  0.1460227E+00
          2   -1    0    0  502    0  0.00000000000E+00  0.00000000000E+00  0.43690753806E+03  0.43690753806E+03  0.00000000000E+00 0. -1.
          1   -1    0    0  501    0 -0.00000000000E+00 -0.00000000000E+00 -0.34163422880E+03  0.34163422880E+03  0.00000000000E+00 0. -1.
         25    2    1    2    0    0  0.99240253428E+02  0.27354368978E+02  0.14174878543E+02  0.16255193324E+03  0.12500125766E+03 0.  0.
          2    1    1    2  501    0 -0.25203642622E+02 -0.14948680058E+02 -0.26257916451E+03  0.26420920550E+03  0.00000000000E+00 0. -1.
          1    1    1    2  502    0 -0.74036610806E+02 -0.12405688921E+02  0.34367759523E+03  0.35178062812E+03  0.00000000000E+00 0. -1.
         22    1    3    3    0    0  0.10569023253E+03  0.48372297880E+02 -0.23824911907E+02  0.11865045673E+03  0.00000000000E+00 0.  1.
         22    1    3    3    0    0 -0.64499791051E+01 -0.21017928902E+02  0.37999790450E+02  0.43901476513E+02  0.00000000000E+00 0.  1.
</event>
<event>
 7    1  0.6443388E-006  0.7090536E+02  0.7818608E-02  0.1367801E+00
          2   -1    0    0  502    0  0.00000000000E+00  0.00000000000E+00  0.57927817440E+03  0.57927817440E+03  0.00000000000E+00 0. -1.
          1   -1    0    0  501    0 -0.00000000000E+00 -0.00000000000E+00 -0.36484658540E+02  0.36484658540E+02  0.00000000000E+00 0. -1.
         25    2    1    2    0    0  0.19462845413E+02  0.16480191049E+02  0.25932836240E+03  0.28900865516E+03  0.12499761662E+03 0.  0.
          2    1    1    2  501    0 -0.63506938080E+01 -0.86162625386E+02  0.11389098810E+03  0.14295274218E+03  0.00000000000E+00 0. -1.
          1    1    1    2  502    0 -0.13112151605E+02  0.69682434337E+02  0.16957416536E+03  0.18380143561E+03  0.00000000000E+00 0. -1.
         22    1    3    3    0    0  0.47666003221E+02 -0.17740293148E+00  0.27812332933E+02  0.55187002075E+02  0.00000000000E+00 0. -1.
         22    1    3    3    0    0 -0.28203157808E+02  0.16657593980E+02  0.23151602947E+03  0.23382165308E+03  0.00000000000E+00 0. -1.
</event>
<event>
 7    1  0.6443388E-006  0.5355133E+02  0.7818608E-02  0.1427878E+00
          2   -1    0    0  502    0  0.00000000000E+00  0.00000000000E+00  0.90918114764E+03  0.90918114764E+03  0.00000000000E+00 0. -1.
          1   -1    0    0  501    0 -0.00000000000E+00 -0.00000000000E+00 -0.49888911869E+03  0.49888911869E+03  0.00000000000E+00 0. -1.
         25    2    1    2    0    0 -0.29879904186E+02  0.51223202883E+02 -0.15581386979E+03  0.20838195261E+03  0.12501380309E+03 0.  0.
          2    1    1    2  501    0 -0.23643691975E+02 -0.49500070560E+02 -0.31359605111E+03  0.31835791875E+03  0.00000000000E+00 0. -1.
          1    1    1    2  502    0  0.53523596161E+02 -0.17231323237E+01  0.87970194986E+03  0.88133039498E+03  0.00000000000E+00 0. -1.
         22    1    3    3    0    0 -0.64917660166E+02 -0.60787540055E+01 -0.10719276583E+03  0.12546530555E+03  0.00000000000E+00 0. -1.
         22    1    3    3    0    0  0.35037755980E+02  0.57301956889E+02 -0.48621103965E+02  0.82916647051E+02  0.00000000000E+00 0. -1.
</event>
<event>
 7    1  0.6443388E-006  0.3177896E+02  0.7818608E-02  0.1595469E+00
          2   -1    0    0  502    0  0.00000000000E+00  0.00000000000E+00  0.79474596606E+03  0.79474596606E+03  0.00000000000E+00 0. -1.
          1   -1    0    0  501    0 -0.00000000000E+00 -0.00000000000E+00 -0.22589245284E+03  0.22589245284E+03  0.00000000000E+00 0. -1.
         25    2    1    2    0    0  0.24577827321E+02 -0.86796974901E-01 -0.80294322222E+02  0.15058544611E+03  0.12499888507E+03 0.  0.
          2    1    1    2  501    0 -0.17783937572E+02 -0.27871956850E+02 -0.10769890417E+03  0.11265952411E+03  0.00000000000E+00 0. -1.
          1    1    1    2  502    0 -0.67938897486E+01  0.27958753825E+02  0.75684673960E+03  0.75739344868E+03  0.00000000000E+00 0. -1.
         22    1    3    3    0    0  0.42215084437E+02 -0.54615494068E+02 -0.34187908367E+02  0.77031023782E+02  0.00000000000E+00 0. -1.
         22    1    3    3    0    0 -0.17637257116E+02  0.54528697093E+02 -0.46106413855E+02  0.73554422326E+02  0.00000000000E+00 0. -1.
</event>
<event>
 7    1  0.1307883E-005  0.7510586E+02  0.7818608E-02  0.1367211E+00
          2   -1    0    0  502    0  0.00000000000E+00  0.00000000000E+00  0.10013272391E+04  0.10013272391E+04  0.00000000000E+00 0. -1.
          1   -1    0    0  501    0 -0.00000000000E+00 -0.00000000000E+00 -0.13680934425E+04  0.13680934425E+04  0.00000000000E+00 0. -1.
         25    2    1    2    0    0 -0.94351142536E+02 -0.98089897609E+02 -0.43862190632E+03  0.47596027056E+03  0.12500094533E+03 0.  0.
          2    1    1    2  501    0  0.45680776812E+02  0.41137346762E+02 -0.90833407493E+03  0.91041188829E+03  0.00000000000E+00 0. -1.
          1    1    1    2  502    0  0.48670365725E+02  0.56952550847E+02  0.98018977785E+03  0.98304852279E+03  0.00000000000E+00 0. -1.
         22    1    3    3    0    0 -0.10984178299E+03 -0.33803736791E+02 -0.23009098600E+03  0.25719597926E+03  0.00000000000E+00 0. -1.
         22    1    3    3    0    0  0.15490640454E+02 -0.64286160818E+02 -0.20853092033E+03  0.21876429130E+03  0.00000000000E+00 0. -1.
</event>
<event>
 7    1  0.6443388E-006  0.1530738E+03  0.7818608E-02  0.1379242E+00
          2   -1    0    0  502    0  0.00000000000E+00  0.00000000000E+00  0.77307919275E+03  0.77307919275E+03  0.00000000000E+00 0. -1.
          1   -1    0    0  501    0 -0.00000000000E+00 -0.00000000000E+00 -0.83706149033E+03  0.83706149033E+03  0.00000000000E+00 0. -1.
         25    2    1    2    0    0  0.48312864700E+02 -0.13051859217E+03  0.64418819107E+01  0.18717856245E+03  0.12500032239E+03 0.  0.
          2    1    1    2  501    0 -0.75301803359E+02  0.13473260290E+03 -0.73843478960E+03  0.75439324915E+03  0.00000000000E+00 0. -1.
          1    1    1    2  502    0  0.26988938660E+02 -0.42140107271E+01  0.66801061011E+03  0.66856887149E+03  0.00000000000E+00 0. -1.
         22    1    3    3    0    0  0.55145844312E+02 -0.14575132598E+03  0.29608789667E+02  0.15862280288E+03  0.00000000000E+00 0. -1.
         22    1    3    3    0    0 -0.68329796123E+01  0.15232733800E+02 -0.23166907756E+02  0.28555759566E+02  0.00000000000E+00 0. -1.
</event>
<event>
 7    1  0.6443388E-006  0.7189503E+02  0.7818608E-02  0.1434186E+00
          2   -1    0    0  502    0  0.00000000000E+00  0.00000000000E+00  0.83948813440E+03  0.83948813440E+03  0.00000000000E+00 0. -1.
          1   -1    0    0  501    0 -0.00000000000E+00 -0.00000000000E+00 -0.88287419323E+03  0.88287419323E+03  0.00000000000E+00 0. -1.
         25    2    1    2    0    0  0.90993963265E+02  0.22569554239E+02  0.22083864769E+01  0.15626642016E+03  0.12500012388E+03 0.  0.
          2    1    1    2  501    0 -0.20065995757E+02 -0.32030626653E+02 -0.80371631284E+03  0.80460457167E+03  0.00000000000E+00 0. -1.
          1    1    1    2  502    0 -0.70927967508E+02  0.94610724148E+01  0.75812186753E+03  0.76149133580E+03  0.00000000000E+00 0. -1.
         22    1    3    3    0    0  0.21347549537E+02 -0.50699102047E+02  0.40711148947E+01  0.55160590970E+02  0.00000000000E+00 0.  1.
         22    1    3    3    0    0  0.69646413728E+02  0.73268656286E+02 -0.18627284178E+01  0.10110582919E+03  0.00000000000E+00 0.  1.
</event>
<event>
 7    1  0.6443388E-006  0.7757451E+02  0.7818608E-02  0.1409495E+00
          2   -1    0    0  502    0  0.00000000000E+00  0.00000000000E+00  0.21509940376E+03  0.21509940376E+03  0.00000000000E+00 0. -1.
          1   -1    0    0  501    0 -0.00000000000E+00 -0.00000000000E+00 -0.34605693543E+03  0.34605693543E+03  0.00000000000E+00 0. -1.
         25    2    1    2    0    0  0.72507941160E+02 -0.46143925535E+01 -0.49160742105E+02  0.15271113026E+03  0.12500086636E+03 0.  0.
          2    1    1    2  501    0 -0.30053406184E+01  0.42227459313E+02 -0.23354559882E+03  0.23735150541E+03  0.00000000000E+00 0. -1.
          1    1    1    2  502    0 -0.69502600542E+02 -0.37613066760E+02  0.15174880926E+03  0.17109370352E+03  0.00000000000E+00 0. -1.
         22    1    3    3    0    0  0.49784308627E+02 -0.11475059705E+02  0.37167560888E+02  0.63178967728E+02  0.00000000000E+00 0. -1.
         22    1    3    3    0    0  0.22723632533E+02  0.68606671514E+01 -0.86328302994E+02  0.89532162528E+02  0.00000000000E+00 0. -1.
</event>
<event>
 7    1  0.6443388E-006  0.4777886E+02  0.7818608E-02  0.1532352E+00
          2   -1    0    0  502    0  0.00000000000E+00  0.00000000000E+00  0.84638853701E+03  0.84638853701E+03  0.00000000000E+00 0. -1.
          1   -1    0    0  501    0 -0.00000000000E+00 -0.00000000000E+00 -0.43142524453E+03  0.43142524453E+03  0.00000000000E+00 0. -1.
         25    2    1    2    0    0 -0.64808552525E+02 -0.29830617232E+02  0.53898230250E+03  0.55786836282E+03  0.12500069450E+03 0.  0.
          2    1    1    2  501    0  0.47138680516E+02  0.74727494714E+01 -0.41994601969E+03  0.42264944888E+03  0.00000000000E+00 0. -1.
          1    1    1    2  502    0  0.17669872009E+02  0.22357867761E+02  0.29592700967E+03  0.29729596983E+03  0.00000000000E+00 0. -1.
         22    1    3    3    0    0  0.10917300425E+02  0.29311991716E+02  0.46113394457E+02  0.55720960646E+02  0.00000000000E+00 0. -1.
         22    1    3    3    0    0 -0.75725852950E+02 -0.59142608948E+02  0.49286890804E+03  0.50214740218E+03  0.00000000000E+00 0. -1.
</event>
<event>
 7    1  0.6443388E-006  0.2543515E+02  0.7818608E-02  0.1684122E+00
          2   -1    0    0  502    0  0.00000000000E+00  0.00000000000E+00  0.13712685396E+04  0.13712685396E+04  0.00000000000E+00 0. -1.
          1   -1    0    0  501    0 -0.00000000000E+00 -0.00000000000E+00 -0.61186772567E+03  0.61186772567E+03  0.00000000000E+00 0. -1.
         25    2    1    2    0    0  0.26134910943E+02  0.38741549362E+02  0.12717321297E+02  0.13405656105E+03  0.12500196031E+03 0.  0.
          2    1    1    2  501    0 -0.12064772909E+02 -0.22296537290E+02 -0.55081631366E+03  0.55139940671E+03  0.00000000000E+00 0. -1.
          1    1    1    2  502    0 -0.14070138033E+02 -0.16445012072E+02  0.12974998063E+04  0.12976802975E+04  0.00000000000E+00 0. -1.
         22    1    3    3    0    0 -0.23822433216E+01 -0.44619599032E+02  0.10618918750E+02  0.45927607563E+02  0.00000000000E+00 0.  1.
         22    1    3    3    0    0  0.28517154264E+02  0.83361148394E+02  0.20984025476E+01  0.88128953483E+02  0.00000000000E+00 0.  1.
</event>
<event>
 7    1  0.6443388E-006  0.7565999E+02  0.7818608E-02  0.1342317E+00
          2   -1    0    0  502    0  0.00000000000E+00  0.00000000000E+00  0.86109707509E+02  0.86109707509E+02  0.00000000000E+00 0. -1.
          1   -1    0    0  501    0 -0.00000000000E+00 -0.00000000000E+00 -0.63950987843E+03  0.63950987843E+03  0.00000000000E+00 0. -1.
         25    2    1    2    0    0  0.36723818130E+02 -0.27392422861E+02 -0.10294469311E+03  0.16829248377E+03  0.12500306638E+03 0.  0.
          2    1    1    2  501    0 -0.43410511570E+02 -0.61967426369E+02 -0.46093809770E+03  0.46710637371E+03  0.00000000000E+00 0. -1.
          1    1    1    2  502    0  0.66866934401E+01  0.89359849230E+02  0.10482619896E+02  0.90220728458E+02  0.00000000000E+00 0. -1.
         22    1    3    3    0    0  0.79807732195E+02 -0.35970294758E+02 -0.80657952951E+02  0.11903294333E+03  0.00000000000E+00 0. -1.
         22    1    3    3    0    0 -0.43083914065E+02  0.85778718963E+01 -0.22286740160E+02  0.49259540440E+02  0.00000000000E+00 0. -1.
</event>
<event>
 7    1  0.6443388E-006  0.6080924E+02  0.7818608E-02  0.1408328E+00
          2   -1    0    0  502    0  0.00000000000E+00  0.00000000000E+00  0.13606465831E+04  0.13606465831E+04  0.00000000000E+00 0. -1.
          1   -1    0    0  501    0 -0.00000000000E+00 -0.00000000000E+00 -0.23691384640E+02  0.23691384640E+02  0.00000000000E+00 0. -1.
         25    2    1    2    0    0  0.44076277308E+02  0.46498055139E+02  0.60661483967E+03  0.62266386490E+03  0.12499575032E+03 0.  0.
          2    1    1    2  501    0  0.19678893868E+02 -0.50824067956E+02  0.38117066544E+02  0.66507559792E+02  0.00000000000E+00 0. -1.
          1    1    1    2  502    0 -0.63755171176E+02  0.43260128166E+01  0.69222329225E+03  0.69516654305E+03  0.00000000000E+00 0. -1.
         22    1    3    3    0    0  0.47347520848E+00  0.57317639637E+02  0.53542174425E+03  0.53848117907E+03  0.00000000000E+00 0.  1.
         22    1    3    3    0    0  0.43602802100E+02 -0.10819584498E+02  0.71193095412E+02  0.84182685833E+02  0.00000000000E+00 0.  1.
</event>
<event>
 7    1  0.6443388E-006  0.6774790E+02  0.7818608E-02  0.1451411E+00
          2   -1    0    0  502    0  0.00000000000E+00  0.00000000000E+00  0.77342322577E+03  0.77342322577E+03  0.00000000000E+00 0. -1.
          1   -1    0    0  501    0 -0.00000000000E+00 -0.00000000000E+00 -0.13081261891E+03  0.13081261891E+03  0.00000000000E+00 0. -1.
         25    2    1    2    0    0 -0.77008633033E+02 -0.58005751017E+02  0.37094954393E+03  0.40314265297E+03  0.12500175116E+03 0.  0.
          2    1    1    2  501    0  0.32950781462E+02  0.12618354919E+02 -0.10933218697E+03  0.11488474218E+03  0.00000000000E+00 0. -1.
          1    1    1    2  502    0  0.44057851571E+02  0.45387396098E+02  0.38099324990E+03  0.38620844952E+03  0.00000000000E+00 0. -1.
         22    1    3    3    0    0 -0.14059051327E+02  0.36084664330E+02  0.14950508973E+03  0.15443941136E+03  0.00000000000E+00 0. -1.
         22    1    3    3    0    0 -0.62949581706E+02 -0.94090415348E+02  0.22144445419E+03  0.24870324161E+03  0.00000000000E+00 0. -1.
</event>
<event>
 7    1  0.6443388E-006  0.2126149E+03  0.7818608E-02  0.1356129E+00
          2   -1    0    0  502    0  0.00000000000E+00  0.00000000000E+00  0.24154277683E+03  0.24154277683E+03  0.00000000000E+00 0. -1.
          1   -1    0    0  501    0 -0.00000000000E+00 -0.00000000000E+00 -0.72431786890E+03  0.72431786890E+03  0.00000000000E+00 0. -1.
         25    2    1    2    0    0 -0.17262203022E+03  0.91300416450E+02 -0.18481350103E+03  0.29650699140E+03  0.12500493760E+03 0.  0.
          2    1    1    2  501    0 -0.14662565578E+02  0.18784026205E+02 -0.41966700635E+03  0.42034298697E+03  0.00000000000E+00 0. -1.
          1    1    1    2  502    0  0.18728459580E+03 -0.11008444265E+03  0.12170541533E+03  0.24901066736E+03  0.00000000000E+00 0. -1.
         22    1    3    3    0    0 -0.92711013539E+02  0.11469937612E+03 -0.10393356812E+03  0.18042578944E+03  0.00000000000E+00 0. -1.
         22    1    3    3    0    0 -0.79911016683E+02 -0.23398959667E+02 -0.80879932916E+02  0.11608120196E+03  0.00000000000E+00 0. -1.
</event>
<event>
 7    1  0.6443388E-006  0.1906707E+03  0.7818608E-02  0.1192312E+00
          2   -1    0    0  502    0  0.00000000000E+00  0.00000000000E+00  0.38110749586E+04  0.38110749586E+04  0.00000000000E+00 0. -1.
          1   -1    0    0  501    0 -0.00000000000E+00 -0.00000000000E+00 -0.26689498760E+03  0.26689498760E+03  0.00000000000E+00 0. -1.
         25    2    1    2    0    0  0.30673865738E+03 -0.19276919185E+02  0.72732367282E+03  0.79942781824E+03  0.12499963195E+03 0.  0.
          2    1    1    2  501    0 -0.18402779738E+03 -0.20544834488E+02 -0.19210319407E+03  0.26681821078E+03  0.00000000000E+00 0. -1.
          1    1    1    2  502    0 -0.12271086000E+03  0.39821753673E+02  0.30089594923E+04  0.30117239172E+04  0.00000000000E+00 0. -1.
         22    1    3    3    0    0  0.10606759823E+03 -0.35631270978E+01  0.41109343866E+03  0.42457136806E+03  0.00000000000E+00 0.  1.
         22    1    3    3    0    0  0.20067105915E+03 -0.15713792087E+02  0.31623023416E+03  0.37485645018E+03  0.00000000000E+00 0.  1.
</event>
<event>
 7    1  0.6443388E-006  0.2222325E+03  0.7818608E-02  0.1282777E+00
          2   -1    0    0  502    0  0.00000000000E+00  0.00000000000E+00  0.97326935789E+03  0.97326935789E+03  0.00000000000E+00 0. -1.
          1   -1    0    0  501    0 -0.00000000000E+00 -0.00000000000E+00 -0.24916578289E+03  0.24916578289E+03  0.00000000000E+00 0. -1.
         25    2    1    2    0    0 -0.19267848802E+03  0.34367444345E+02  0.17584503681E+03  0.29129466732E+03  0.12499994104E+03 0.  0.
          2    1    1    2  501    0 -0.27891558178E+02  0.33966366036E+02 -0.17056604895E+03  0.17613753176E+03  0.00000000000E+00 0. -1.
          1    1    1    2  502    0  0.22057004620E+03 -0.68333810381E+02  0.71882458713E+03  0.75500294170E+03  0.00000000000E+00 0. -1.
         22    1    3    3    0    0 -0.13015301767E+03  0.73826429387E+02  0.78257783921E+02  0.16886216400E+03  0.00000000000E+00 0.  1.
         22    1    3    3    0    0 -0.62525470350E+02 -0.39458985042E+02  0.97587252893E+02  0.12243250332E+03  0.00000000000E+00 0.  1.
</event>
<event>
 7    1  0.6443388E-006  0.5987324E+02  0.7818608E-02  0.1472715E+00
          2   -1    0    0  502    0  0.00000000000E+00  0.00000000000E+00  0.17177786431E+04  0.17177786431E+04  0.00000000000E+00 0. -1.
          1   -1    0    0  501    0 -0.00000000000E+00 -0.00000000000E+00 -0.54994726335E+02  0.54994726335E+02  0.00000000000E+00 0. -1.
         25    2    1    2    0    0  0.91900827546E+01 -0.26292262453E+02  0.33429251048E+03  0.35798429877E+03  0.12500213966E+03 0.  0.
          2    1    1    2  501    0 -0.16302433085E+02  0.59760859333E+02 -0.20587645149E+02  0.65276188350E+02  0.00000000000E+00 0. -1.
          1    1    1    2  502    0  0.71123503303E+01 -0.33468596880E+02  0.13490790514E+04  0.13495128823E+04  0.00000000000E+00 0. -1.
         22    1    3    3    0    0 -0.46537646023E+02  0.22444105363E+02  0.10476227892E+03  0.11681021123E+03  0.00000000000E+00 0. -1.
         22    1    3    3    0    0  0.55727728778E+02 -0.48736367816E+02  0.22953023156E+03  0.24117408754E+03  0.00000000000E+00 0. -1.
</event>
<event>
 7    1  0.6443388E-006  0.9462388E+02  0.7818608E-02  0.1376933E+00
          2   -1    0    0  502    0  0.00000000000E+00  0.00000000000E+00  0.28618643960E+02  0.28618643960E+02  0.00000000000E+00 0. -1.
          1   -1    0    0  501    0 -0.00000000000E+00 -0.00000000000E+00 -0.19869770814E+04  0.19869770814E+04  0.00000000000E+00 0. -1.
         25    2    1    2    0    0  0.47069523492E+02 -0.88875454444E+02 -0.15060321436E+04  0.15145534249E+04  0.12499949153E+03 0.  0.
          2    1    1    2  501    0 -0.44633977251E+02 -0.59712457458E+01 -0.37758588714E+03  0.38026168604E+03  0.00000000000E+00 0. -1.
          1    1    1    2  502    0 -0.24355462412E+01  0.94846700190E+02 -0.74740406661E+02  0.12078061438E+03  0.00000000000E+00 0. -1.
         22    1    3    3    0    0  0.10256990723E+02 -0.96678382220E+02 -0.13690166432E+04  0.13724643838E+04  0.00000000000E+00 0. -1.
         22    1    3    3    0    0  0.36812532769E+02  0.78029277761E+01 -0.13701550038E+03  0.14208904108E+03  0.00000000000E+00 0. -1.
</event>
<event>
 7    1  0.6443388E-006  0.7324728E+02  0.7818608E-02  0.1492718E+00
          2   -1    0    0  502    0  0.00000000000E+00  0.00000000000E+00  0.14054886166E+03  0.14054886166E+03  0.00000000000E+00 0. -1.
          1   -1    0    0  501    0 -0.00000000000E+00 -0.00000000000E+00 -0.28716672961E+03  0.28716672961E+03  0.00000000000E+00 0. -1.
         25    2    1    2    0    0  0.34170865680E+02  0.42191961356E+02 -0.94876661885E+02  0.16605715843E+03  0.12500235691E+03 0.  0.
          2    1    1    2  501    0  0.23462554735E+02  0.63090890351E+01 -0.14201928509E+03  0.14408252294E+03  0.00000000000E+00 0. -1.
          1    1    1    2  502    0 -0.57633420415E+02 -0.48501050391E+02  0.90278079019E+02  0.11757590990E+03  0.00000000000E+00 0. -1.
         22    1    3    3    0    0  0.41836358779E+02 -0.23208586925E+02 -0.87593292564E+02  0.99807336029E+02  0.00000000000E+00 0. -1.
         22    1    3    3    0    0 -0.76654930987E+01  0.65400548281E+02 -0.72833693207E+01  0.66249822404E+02  0.00000000000E+00 0. -1.
</event>
<event>
 7    1  0.6443388E-006  0.5113909E+02  0.7818608E-02  0.1462695E+00
          2   -1    0    0  502    0  0.00000000000E+00  0.00000000000E+00  0.95405842110E+02  0.95405842110E+02  0.00000000000E+00 0. -1.
          1   -1    0    0  501    0 -0.00000000000E+00 -0.00000000000E+00 -0.95273674062E+03  0.95273674062E+03  0.00000000000E+00 0. -1.
         25    2    1    2    0    0 -0.27854784466E+02 -0.23882354352E+02 -0.67253580343E+03  0.68503674234E+03  0.12499870235E+03 0.  0.
          2    1    1    2  501    0 -0.15394576834E+02  0.51171528639E+02 -0.26371010095E+03  0.26906975988E+03  0.00000000000E+00 0. -1.
          1    1    1    2  502    0  0.43249361300E+02 -0.27289174287E+02  0.78915005872E+02  0.94036080511E+02  0.00000000000E+00 0. -1.
         22    1    3    3    0    0 -0.39431507666E+02  0.24930609616E+02 -0.10043940626E+03  0.11074499276E+03  0.00000000000E+00 0.  1.
         22    1    3    3    0    0  0.11576723200E+02 -0.48812963968E+02 -0.57209639717E+03  0.57429174958E+03  0.00000000000E+00 0.  1.
</event>
<event>
 7    1  0.6443388E-006  0.7260091E+02  0.7818608E-02  0.1521024E+00
          2   -1    0    0  502    0  0.00000000000E+00  0.00000000000E+00  0.66288821235E+03  0.66288821235E+03  0.00000000000E+00 0. -1.
          1   -1    0    0  501    0 -0.00000000000E+00 -0.00000000000E+00 -0.30615508243E+02  0.30615508243E+02  0.00000000000E+00 0. -1.
         25    2    1    2    0    0 -0.68250925259E+02 -0.30746453731E+01  0.27522038301E+03  0.30990196962E+03  0.12500131722E+03 0.  0.
          2    1    1    2  501    0 -0.20289131041E+01 -0.20114085338E+02  0.13270034984E+01  0.20259660798E+02  0.00000000000E+00 0. -1.
          1    1    1    2  502    0  0.70279838363E+02  0.23188730711E+02  0.35572531760E+03  0.36334209018E+03  0.00000000000E+00 0. -1.
         22    1    3    3    0    0 -0.98963954634E+02 -0.21067059234E+02  0.23688544276E+03  0.25758959275E+03  0.00000000000E+00 0. -1.
         22    1    3    3    0    0  0.30713029375E+02  0.17992413861E+02  0.38334940254E+02  0.52312376874E+02  0.00000000000E+00 0. -1.
</event>
<event>
 7    1  0.6443388E-006  0.2425551E+03  0.7818608E-02  0.1299688E+00
          2   -1    0    0  502    0  0.00000000000E+00  0.00000000000E+00  0.23389653780E+04  0.23389653780E+04  0.00000000000E+00 0. -1.
          1   -1    0    0  501    0 -0.00000000000E+00 -0.00000000000E+00 -0.12022986627E+03  0.12022986627E+03  0.00000000000E+00 0. -1.
         25    2    1    2    0    0 -0.23012509281E+03  0.99125698496E+01  0.75874204613E+03  0.80272872151E+03  0.12501236094E+03 0.  0.
          2    1    1    2  501    0  0.24434606368E+03  0.21389174214E+02  0.55408607232E+02  0.25146094998E+03  0.00000000000E+00 0. -1.
          1    1    1    2  502    0 -0.14220970866E+02 -0.31301744063E+02  0.14045848584E+04  0.14050055728E+04  0.00000000000E+00 0. -1.
         22    1    3    3    0    0 -0.17139262445E+03  0.63295104867E+02  0.52749644624E+03  0.55824206471E+03  0.00000000000E+00 0. -1.
         22    1    3    3    0    0 -0.58732468363E+02 -0.53382535017E+02  0.23124559989E+03  0.24448665680E+03  0.00000000000E+00 0. -1.
</event>
<event>
 7    1  0.6443388E-006  0.1211366E+03  0.7818608E-02  0.1259850E+00
          2   -1    0    0  502    0  0.00000000000E+00  0.00000000000E+00  0.10255963334E+04  0.10255963334E+04  0.00000000000E+00 0. -1.
          1   -1    0    0  501    0 -0.00000000000E+00 -0.00000000000E+00 -0.12438651070E+03  0.12438651070E+03  0.00000000000E+00 0. -1.
         25    2    1    2    0    0 -0.68144904290E+02  0.69939547174E+02  0.18759543292E+02  0.15972054888E+03  0.12499385996E+03 0.  0.
          2    1    1    2  501    0  0.13036021354E+03  0.33999514064E+02  0.41984241936E+02  0.14111140564E+03  0.00000000000E+00 0. -1.
          1    1    1    2  502    0 -0.62215309246E+02 -0.10393906124E+03  0.84046603743E+03  0.84915088955E+03  0.00000000000E+00 0. -1.
         22    1    3    3    0    0 -0.89357831984E+02  0.46732419371E+01  0.42779906860E+01  0.89582155206E+02  0.00000000000E+00 0.  1.
         22    1    3    3    0    0  0.21212927694E+02  0.65266305237E+02  0.14481552606E+02  0.70138393669E+02  0.00000000000E+00 0.  1.
</event>
<event>
 7    1  0.6443388E-006  0.8596309E+02  0.7818608E-02  0.1389578E+00
          2   -1    0    0  502    0  0.00000000000E+00  0.00000000000E+00  0.15267425961E+04  0.15267425961E+04  0.00000000000E+00 0. -1.
          1   -1    0    0  501    0 -0.00000000000E+00 -0.00000000000E+00 -0.84040845459E+03  0.84040845459E+03  0.00000000000E+00 0. -1.
         25    2    1    2    0    0  0.44953019210E+02  0.33031754898E+01  0.22416790355E+02  0.13474965437E+03  0.12499308764E+03 0.  0.
          2    1    1    2  501    0 -0.83079941774E+02 -0.26701290090E+02 -0.78146733071E+03  0.78632463053E+03  0.00000000000E+00 0. -1.
          1    1    1    2  502    0  0.38126922564E+02  0.23398114600E+02  0.14453846818E+04  0.14460767658E+04  0.00000000000E+00 0. -1.
         22    1    3    3    0    0 -0.33891002165E+02  0.28353836014E+01 -0.25480595501E+02  0.42495884212E+02  0.00000000000E+00 0. -1.
         22    1    3    3    0    0  0.78844021376E+02  0.46779188834E+00  0.47897385855E+02  0.92253770154E+02  0.00000000000E+00 0. -1.
</event>
<event>
 7    1  0.6443388E-006  0.2860161E+03  0.7818608E-02  0.1231010E+00
          2   -1    0    0  502    0  0.00000000000E+00  0.00000000000E+00  0.35864309077E+04  0.35864309077E+04  0.00000000000E+00 0. -1.
          1   -1    0    0  501    0 -0.00000000000E+00 -0.00000000000E+00 -0.10177223466E+04  0.10177223466E+04  0.00000000000E+00 0. -1.
         25    2    1    2    0    0  0.10756849394E+03 -0.25394442914E+03 -0.57072976784E+02  0.30812699383E+03  0.12500466258E+03 0.  0.
          2    1    1    2  501    0 -0.50263387544E+02 -0.26786929863E+02 -0.82821254239E+03  0.83016863535E+03  0.00000000000E+00 0. -1.
          1    1    1    2  502    0 -0.57305106394E+02  0.28073135900E+03  0.34539940802E+04  0.34658576251E+04  0.00000000000E+00 0. -1.
         22    1    3    3    0    0  0.13271933846E+03 -0.17585820898E+03 -0.34169537268E+02  0.22295311109E+03  0.00000000000E+00 0. -1.
         22    1    3    3    0    0 -0.25150844525E+02 -0.78086220157E+02 -0.22903439517E+02  0.85173882736E+02  0.00000000000E+00 0. -1.
</event>
<event>
 7    1  0.6443388E-006  0.1233173E+03  0.7818608E-02  0.1417122E+00
          2   -1    0    0  502    0  0.00000000000E+00  0.00000000000E+00  0.82415450463E+03  0.82415450463E+03  0.00000000000E+00 0. -1.
          1   -1    0    0  501    0 -0.00000000000E+00 -0.00000000000E+00 -0.37665487973E+03  0.37665487973E+03  0.00000000000E+00 0. -1.
         25    2    1    2    0    0 -0.55160127258E+02  0.83905668616E+02 -0.40822305608E+02  0.16545434943E+03  0.12500352094E+03 0.  0.
          2    1    1    2  501    0 -0.63687069269E+01  0.24277971563E+02 -0.26784297358E+03  0.26901642855E+03  0.00000000000E+00 0. -1.
          1    1    1    2  502    0  0.61528834185E+02 -0.10818364018E+03  0.75616490409E+03  0.76633860638E+03  0.00000000000E+00 0. -1.
         22    1    3    3    0    0 -0.58706215075E+02  0.23492324528E+02  0.31918128572E+02  0.70831320274E+02  0.00000000000E+00 0.  1.
         22    1    3    3    0    0  0.35460878175E+01  0.60413344088E+02 -0.72740434179E+02  0.94623029159E+02  0.00000000000E+00 0.  1.
</event>
<event>
 7    1  0.6443388E-006  0.1366899E+03  0.7818608E-02  0.1232014E+00
          2   -1    0    0  502    0  0.00000000000E+00  0.00000000000E+00  0.15809858687E+04  0.15809858687E+04  0.00000000000E+00 0. -1.
          1   -1    0    0  501    0 -0.00000000000E+00 -0.00000000000E+00 -0.51969246737E+03  0.51969246737E+03  0.00000000000E+00 0. -1.
         25    2    1    2    0    0  0.96081169563E+01 -0.30933043655E+02  0.83043822338E+02  0.15353593360E+03  0.12501134899E+03 0.  0.
          2    1    1    2  501    0 -0.15083581850E+02 -0.11698321544E+03 -0.47344729336E+03  0.48791897557E+03  0.00000000000E+00 0. -1.
          1    1    1    2  502    0  0.54754648937E+01  0.14791625909E+03  0.14516968723E+04  0.14592234269E+04  0.00000000000E+00 0. -1.
         22    1    3    3    0    0  0.19813851301E+02 -0.31458690537E+02  0.11454029713E+03  0.12042307744E+03  0.00000000000E+00 0. -1.
         22    1    3    3    0    0 -0.10205734345E+02  0.52564688157E+00 -0.31496474796E+02  0.33112856155E+02  0.00000000000E+00 0. -1.
</event>
<event>
 7    1  0.6443388E-006  0.5447515E+02  0.7818608E-02  0.1474940E+00
          2   -1    0    0  502    0  0.00000000000E+00  0.00000000000E+00  0.96605189124E+03  0.96605189124E+03  0.00000000000E+00 0. -1.
          1   -1    0    0  501    0 -0.00000000000E+00 -0.00000000000E+00 -0.92461089475E+02  0.92461089475E+02  0.00000000000E+00 0. -1.
         25    2    1    2    0    0 -0.13328976769E+02  0.31252530252E+02  0.24978566141E+03  0.28137540565E+03  0.12499943995E+03 0.  0.
          2    1    1    2  501    0  0.28974130253E+02  0.23034915422E+02 -0.70983993853E+02  0.80055199305E+02  0.00000000000E+00 0. -1.
          1    1    1    2  502    0 -0.15645153483E+02 -0.54287445674E+02  0.69478913421E+03  0.69708237577E+03  0.00000000000E+00 0. -1.
         22    1    3    3    0    0  0.21450713084E+02 -0.24632696822E+02  0.18892287761E+03  0.19172573257E+03  0.00000000000E+00 0. -1.
         22    1    3    3    0    0 -0.34779689853E+02  0.55885227074E+02  0.60862783803E+02  0.89649673081E+02  0.00000000000E+00 0. -1.
</event>
<event>
 7    1  0.6443388E-006  0.1331036E+03  0.7818608E-02  0.1359251E+00
          2   -1    0    0  502    0  0.00000000000E+00  0.00000000000E+00  0.10723455055E+04  0.10723455055E+04  0.00000000000E+00 0. -1.
          1   -1    0    0  501    0 -0.00000000000E+00 -0.00000000000E+00 -0.55058572829E+02  0.55058572829E+02  0.00000000000E+00 0. -1.
         25    2    1    2    0    0 -0.10316628276E+03 -0.74061210970E+01  0.23908407503E+03  0.28893638320E+03  0.12499962429E+03 0.  0.
          2    1    1    2  501    0 -0.36933127887E+02 -0.32383931799E+01 -0.95482469673E+01  0.38284620229E+02  0.00000000000E+00 0. -1.
          1    1    1    2  502    0  0.14009941065E+03  0.10644514277E+02  0.78775110456E+03  0.80018307485E+03  0.00000000000E+00 0. -1.
         22    1    3    3    0    0 -0.92778100033E+02  0.46431395556E+01  0.25191573686E+03  0.26849743587E+03  0.00000000000E+00 0. -1.
         22    1    3    3    0    0 -0.10388182729E+02 -0.12049260653E+02 -0.12831661827E+02  0.20438947330E+02  0.00000000000E+00 0. -1.
</event>
<event>
 7    1  0.6443388E-006  0.2425761E+03  0.7818608E-02  0.1132299E+00
          2   -1    0    0  502    0  0.00000000000E+00  0.00000000000E+00  0.18165271067E+04  0.18165271067E+04  0.00000000000E+00 0. -1.
          1   -1    0    0  501    0 -0.00000000000E+00 -0.00000000000E+00 -0.30933789197E+03  0.30933789197E+03  0.00000000000E+00 0. -1.
         25    2    1    2    0    0 -0.51826498069E+02 -0.46865098288E+02 -0.18955019460E+02  0.14445322856E+03  0.12500047656E+03 0.  0.
          2    1    1    2  501    0 -0.54411451400E+02 -0.19601124358E+03 -0.16973641695E+03  0.26493671866E+03  0.00000000000E+00 0. -1.
          1    1    1    2  502    0  0.10623794947E+03  0.24287634187E+03  0.16958806512E+04  0.17164750515E+04  0.00000000000E+00 0. -1.
         22    1    3    3    0    0 -0.43767605559E+02 -0.49694825989E+02  0.44914216625E+02  0.80015410275E+02  0.00000000000E+00 0.  1.
         22    1    3    3    0    0 -0.80588925100E+01  0.28297277002E+01 -0.63869236085E+02  0.64437818286E+02  0.00000000000E+00 0.  1.
</event>
<event>
 7    1  0.6443388E-006  0.2159906E+03  0.7818608E-02  0.1281093E+00
          2   -1    0    0  502    0  0.00000000000E+00  0.00000000000E+00  0.57632147252E+03  0.57632147252E+03  0.00000000000E+00 0. -1.
          1   -1    0    0  501    0 -0.00000000000E+00 -0.00000000000E+00 -0.91597425002E+03  0.91597425002E+03  0.00000000000E+00 0. -1.
         25    2    1    2    0    0  0.12699983326E+03  0.15839363452E+03 -0.34162513863E+02  0.24083717763E+03  0.12497186752E+03 0.  0.
          2    1    1    2  501    0 -0.27540742295E+02  0.36780548519E+02 -0.75237293029E+03  0.75377471931E+03  0.00000000000E+00 0. -1.
          1    1    1    2  502    0 -0.99459090961E+02 -0.19517418304E+03  0.44688266666E+03  0.49768382560E+03  0.00000000000E+00 0. -1.
         22    1    3    3    0    0  0.10467157300E+03  0.13350461151E+03 -0.77160142549E+02  0.18636873956E+03  0.00000000000E+00 0.  1.
         22    1    3    3    0    0  0.22328260257E+02  0.24889023015E+02  0.42997628686E+02  0.54468438066E+02  0.00000000000E+00 0.  1.
</event>
<event>
 7    1  0.6443388E-006  0.1155424E+03  0.7818608E-02  0.1312253E+00
          2   -1    0    0  502    0  0.00000000000E+00  0.00000000000E+00  0.13893810703E+03  0.13893810703E+03  0.00000000000E+00 0. -1.
          1   -1    0    0  501    0 -0.00000000000E+00 -0.00000000000E+00 -0.80516879467E+03  0.80516879467E+03  0.00000000000E+00 0. -1.
         25    2    1    2    0    0 -0.59692001746E+02  0.96854043920E+02 -0.48361354901E+03  0.51230177389E+03  0.12500880707E+03 0.  0.
          2    1    1    2  501    0  0.19747753113E+01 -0.12530872074E+03 -0.28473945219E+03  0.31109922993E+03  0.00000000000E+00 0. -1.
          1    1    1    2  502    0  0.57717226434E+02  0.28454676820E+02  0.10212231356E+03  0.12070589789E+03  0.00000000000E+00 0. -1.
         22    1    3    3    0    0 -0.13852615923E+02  0.11612391129E+03 -0.37574605424E+03  0.39352478323E+03  0.00000000000E+00 0.  1.
         22    1    3    3    0    0 -0.45839385823E+02 -0.19269867368E+02 -0.10786749477E+03  0.11877699065E+03  0.00000000000E+00 0.  1.
</event>
<event>
 7    1  0.6443388E-006  0.4751556E+02  0.7818608E-02  0.1519972E+00
          2   -1    0    0  502    0  0.00000000000E+00  0.00000000000E+00  0.61353347705E+03  0.61353347705E+03  0.00000000000E+00 0. -1.
          1   -1    0    0  501    0 -0.00000000000E+00 -0.00000000000E+00 -0.17640301737E+04  0.17640301737E+04  0.00000000000E+00 0. -1.
         25    2    1    2    0    0 -0.75362719566E+02 -0.20401071969E+02  0.59404659690E+02  0.15890197320E+03  0.12500072102E+03 0.  0.
          2    1    1    2  501    0  0.44522858210E+02  0.16334246312E+02 -0.17134735030E+04  0.17141296737E+04  0.00000000000E+00 0. -1.
          1    1    1    2  502    0  0.30839861356E+02  0.40668256568E+01  0.50357214665E+03  0.50453200394E+03  0.00000000000E+00 0. -1.
         22    1    3    3    0    0  0.92132708283E+01  0.31220721980E+02 -0.14155194765E+02  0.35496300922E+02  0.00000000000E+00 0. -1.
         22    1    3    3    0    0 -0.84575990394E+02 -0.51621793949E+02  0.73559854456E+02  0.12340567227E+03  0.00000000000E+00 0. -1.
</event>
<event>
 7    1  0.6443388E-006  0.1448650E+03  0.7818608E-02  0.1354371E+00
          2   -1    0    0  502    0  0.00000000000E+00  0.00000000000E+00  0.10606679173E+04  0.10606679173E+04  0.00000000000E+00 0. -1.
          1   -1    0    0  501    0 -0.00000000000E+00 -0.00000000000E+00 -0.68311504029E+03  0.68311504029E+03  0.00000000000E+00 0. -1.
         25    2    1    2    0    0  0.12369476532E+03 -0.58680594456E+02  0.61676858588E+02  0.19537272223E+03  0.12499063394E+03 0.  0.
          2    1    1    2  501    0 -0.11259537009E+03  0.92398585199E+02 -0.60731489385E+03  0.62453710555E+03  0.00000000000E+00 0. -1.
          1    1    1    2  502    0 -0.11099395226E+02 -0.33717990743E+02  0.92319091230E+03  0.92387312983E+03  0.00000000000E+00 0. -1.
         22    1    3    3    0    0  0.31313511952E+02 -0.24564206265E+02 -0.38160892301E+02  0.55137917637E+02  0.00000000000E+00 0.  1.
         22    1    3    3    0    0  0.92381253366E+02 -0.34116388192E+02  0.99837750889E+02  0.14023480459E+03  0.00000000000E+00 0.  1.
</event>
<event>
 7    1  0.6443388E-006  0.1267362E+03  0.7818608E-02  0.1387813E+00
          2   -1    0    0  502    0  0.00000000000E+00  0.00000000000E+00  0.14143158174E+04  0.14143158174E+04  0.00000000000E+00 0. -1.
          1   -1    0    0  501    0 -0.00000000000E+00 -0.00000000000E+00 -0.10588513990E+04  0.10588513990E+04  0.00000000000E+00 0. -1.
         25    2    1    2    0    0  0.95923898215E+02 -0.96593456620E+02  0.10850003471E+03  0.21431419153E+03  0.12500650002E+03 0.  0.
          2    1    1    2  501    0 -0.28916116128E+02 -0.10537713877E+02 -0.10025215626E+04  0.10029938527E+04  0.00000000000E+00 0. -1.
          1    1    1    2  502    0 -0.67007782087E+02  0.10713117050E+03  0.12494859463E+04  0.12558591722E+04  0.00000000000E+00 0. -1.
         22    1    3    3    0    0  0.10867858885E+03 -0.55790564264E+02  0.11873368135E+03  0.17035641996E+03  0.00000000000E+00 0.  1.
         22    1    3    3    0    0 -0.12754690630E+02 -0.40802892356E+02 -0.10233646643E+02  0.43957771569E+02  0.00000000000E+00 0.  1.
</event>
<event>
 7    1  0.6443388E-006  0.9529875E+02  0.7818608E-02  0.1293610E+00
          2   -1    0    0  502    0  0.00000000000E+00  0.00000000000E+00  0.17830629364E+04  0.17830629364E+04  0.00000000000E+00 0. -1.
          1   -1    0    0  501    0 -0.00000000000E+00 -0.00000000000E+00 -0.30008325196E+03  0.30008325196E+03  0.00000000000E+00 0. -1.
         25    2    1    2    0    0 -0.15358149589E+03 -0.99499962335E+02  0.77870627248E+03  0.80962746536E+03  0.12500262190E+03 0.  0.
          2    1    1    2  501    0  0.88117091501E+02  0.34042538117E+02 -0.27453995286E+03  0.29033722106E+03  0.00000000000E+00 0. -1.
          1    1    1    2  502    0  0.65464404388E+02  0.65457424218E+02  0.97881336479E+03  0.98318150192E+03  0.00000000000E+00 0. -1.
         22    1    3    3    0    0 -0.95660676272E+02 -0.10476835488E+03  0.68344980956E+03  0.69801935171E+03  0.00000000000E+00 0.  1.
         22    1    3    3    0    0 -0.57920819618E+02  0.52683925485E+01  0.95256462914E+02  0.11160811365E+03  0.00000000000E+00 0.  1.
</event>
<event>
 7    1  0.6443388E-006  0.8218197E+02  0.7818608E-02  0.1390716E+00
          2   -1    0    0  502    0  0.00000000000E+00  0.00000000000E+00  0.55100016714E+03  0.55100016714E+03  0.00000000000E+00 0. -1.
          1   -1    0    0  501    0 -0.00000000000E+00 -0.00000000000E+00 -0.41093194413E+02  0.41093194413E+02  0.00000000000E+00 0. -1.
         25    2    1    2    0    0 -0.52119274601E+02  0.26730087573E+01  0.24111613575E+03  0.27656105543E+03  0.12500185078E+03 0.  0.
          2    1    1    2  501    0 -0.46266992213E+02 -0.30315241445E+01  0.25087676519E+02  0.52718272166E+02  0.00000000000E+00 0. -1.
          1    1    1    2  502    0  0.98386266814E+02  0.35851538724E+00  0.24370316046E+03  0.26281403396E+03  0.00000000000E+00 0. -1.
         22    1    3    3    0    0 -0.22318677384E+02  0.39432601113E+02  0.22021654867E+03  0.22482967264E+03  0.00000000000E+00 0.  1.
         22    1    3    3    0    0 -0.29800597217E+02 -0.36759592356E+02  0.20899587077E+02  0.51731382783E+02  0.00000000000E+00 0.  1.
</event>
<event>
 7    1  0.6443388E-006  0.2121649E+03  0.7818608E-02  0.1292052E+00
          2   -1    0    0  502    0  0.00000000000E+00  0.00000000000E+00  0.12413984351E+04  0.12413984351E+04  0.00000000000E+00 0. -1.
          1   -1    0    0  501    0 -0.00000000000E+00 -0.00000000000E+00 -0.87896566127E+03  0.87896566127E+03  0.00000000000E+00 0. -1.
         25    2    1    2    0    0 -0.11267059299E+03 -0.13226481220E+03 -0.21465229287E+02  0.21511479640E+03  0.12499990596E+03 0.  0.
          2    1    1    2  501    0 -0.32316295671E+02 -0.27124401865E+02 -0.74993696953E+03  0.75112284908E+03  0.00000000000E+00 0. -1.
          1    1    1    2  502    0  0.14498688866E+03  0.15938921406E+03  0.11338349726E+04  0.11541264509E+04  0.00000000000E+00 0. -1.
         22    1    3    3    0    0 -0.27844186162E+02 -0.10554273657E+03  0.28890661184E+02  0.11291252477E+03  0.00000000000E+00 0. -1.
         22    1    3    3    0    0 -0.84826406830E+02 -0.26722075629E+02 -0.50355890470E+02  0.10220227163E+03  0.00000000000E+00 0. -1.
</event>
<event>
 7    1  0.6443388E-006  0.4414748E+02  0.7818608E-02  0.1564165E+00
          2   -1    0    0  502    0  0.00000000000E+00  0.00000000000E+00  0.36035046941E+02  0.36035046941E+02  0.00000000000E+00 0. -1.
          1   -1    0    0  501    0 -0.00000000000E+00 -0.00000000000E+00 -0.13688291680E+04  0.13688291680E+04  0.00000000000E+00 0. -1.
         25    2    1    2    0    0  0.60935752318E+02  0.24902808491E+02 -0.22059305937E+03  0.26194983099E+03  0.12499240109E+03 0.  0.
          2    1    1    2  501    0 -0.20667042391E+02 -0.14295151977E+02 -0.10989172540E+04  0.10992045347E+04  0.00000000000E+00 0. -1.
          1    1    1    2  502    0 -0.40268709927E+02 -0.10607656514E+02 -0.13283807733E+02  0.43709849277E+02  0.00000000000E+00 0. -1.
         22    1    3    3    0    0  0.57050374853E+02  0.62223728726E+02 -0.79527459659E+02  0.11597911246E+03  0.00000000000E+00 0. -1.
         22    1    3    3    0    0  0.38853774643E+01 -0.37320920235E+02 -0.14106559971E+03  0.14597071853E+03  0.00000000000E+00 0. -1.
</event>
<event>
 7    1  0.6443388E-006  0.1899237E+03  0.7818608E-02  0.1216213E+00
          2   -1    0    0  502    0  0.00000000000E+00  0.00000000000E+00  0.43340399161E+03  0.43340399161E+03  0.00000000000E+00 0. -1.
          1   -1    0    0  501    0 -0.00000000000E+00 -0.00000000000E+00 -0.28081467792E+03  0.28081467792E+03  0.00000000000E+00 0. -1.
         25    2    1    2    0    0 -0.63654239526E+00 -0.13329120445E+03  0.30335449557E+02  0.18523797756E+03  0.12500367379E+03 0.  0.
          2    1    1    2  501    0 -0.47885616638E+02  0.22083927266E+03 -0.12782106507E+03  0.25961749037E+03  0.00000000000E+00 0. -1.
          1    1    1    2  502    0  0.48522159033E+02 -0.87548068206E+02  0.25007492920E+03  0.26936320160E+03  0.00000000000E+00 0. -1.
         22    1    3    3    0    0 -0.19219522188E+02 -0.69048102210E+02  0.75839242561E+02  0.10434855612E+03  0.00000000000E+00 0.  1.
         22    1    3    3    0    0  0.18582979793E+02 -0.64243102242E+02 -0.45503793004E+02  0.80889421443E+02  0.00000000000E+00 0.  1.
</event>
<event>
 7    1  0.6443388E-006  0.9852969E+02  0.7818608E-02  0.1406648E+00
          2   -1    0    0  502    0  0.00000000000E+00  0.00000000000E+00  0.68621319268E+02  0.68621319268E+02  0.00000000000E+00 0. -1.
          1   -1    0    0  501    0 -0.00000000000E+00 -0.00000000000E+00 -0.11096856027E+04  0.11096856027E+04  0.00000000000E+00 0. -1.
         25    2    1    2    0    0  0.99437560275E+01  0.12662639820E+03 -0.44508960800E+03  0.47944391922E+03  0.12501435724E+03 0.  0.
          2    1    1    2  501    0 -0.80229146867E+01 -0.92599035404E+02 -0.63801142677E+03  0.64474609670E+03  0.00000000000E+00 0. -1.
          1    1    1    2  502    0 -0.19208413408E+01 -0.34027362795E+02  0.42036751380E+02  0.54116906016E+02  0.00000000000E+00 0. -1.
         22    1    3    3    0    0  0.66888470964E+02  0.82289443312E+02 -0.26623089036E+03  0.28657373747E+03  0.00000000000E+00 0. -1.
         22    1    3    3    0    0 -0.56944714936E+02  0.44336954887E+02 -0.17885871764E+03  0.19287018174E+03  0.00000000000E+00 0. -1.
</event>
<event>
 7    1  0.6443388E-006  0.8693207E+02  0.7818608E-02  0.1486932E+00
          2   -1    0    0  502    0  0.00000000000E+00  0.00000000000E+00  0.20977779686E+04  0.20977779686E+04  0.00000000000E+00 0. -1.
          1   -1    0    0  501    0 -0.00000000000E+00 -0.00000000000E+00 -0.19975317300E+02  0.19975317300E+02  0.00000000000E+00 0. -1.
         25    2    1    2    0    0 -0.38286640324E+02 -0.58107640967E+02  0.95379831410E+03  0.96446793396E+03  0.12499922759E+03 0.  0.
          2    1    1    2  501    0  0.56260955334E+02  0.69561646851E+02  0.12321810037E+03  0.15227218416E+03  0.00000000000E+00 0. -1.
          1    1    1    2  502    0 -0.17974315009E+02 -0.11454005884E+02  0.10007862369E+04  0.10010131678E+04  0.00000000000E+00 0. -1.
         22    1    3    3    0    0 -0.25880714872E+00  0.30097561542E+02  0.81200586637E+02  0.86599454168E+02  0.00000000000E+00 0. -1.
         22    1    3    3    0    0 -0.38027833176E+02 -0.88205202508E+02  0.87259772746E+03  0.87786847979E+03  0.00000000000E+00 0. -1.
</event>
<event>
 7    1  0.6443388E-006  0.4240180E+02  0.7818608E-02  0.1521400E+00
          2   -1    0    0  502    0  0.00000000000E+00  0.00000000000E+00  0.45807706592E+03  0.45807706592E+03  0.00000000000E+00 0. -1.
          1   -1    0    0  501    0 -0.00000000000E+00 -0.00000000000E+00 -0.92776602055E+03  0.92776602055E+03  0.00000000000E+00 0. -1.
         25    2    1    2    0    0  0.41935536925E+02  0.40982505296E+02 -0.10508036593E+03  0.17350670166E+03  0.12499814887E+03 0.  0.
          2    1    1    2  501    0 -0.34519951532E+02  0.72415835840E+00 -0.78703465804E+03  0.78779166307E+03  0.00000000000E+00 0. -1.
          1    1    1    2  502    0 -0.74155853925E+01 -0.41706663654E+02  0.42242606933E+03  0.42454472173E+03  0.00000000000E+00 0. -1.
         22    1    3    3    0    0  0.17004112483E+01 -0.27452550335E+02 -0.88141140829E+02  0.92333063552E+02  0.00000000000E+00 0. -1.
         22    1    3    3    0    0  0.40235125677E+02  0.68435055631E+02 -0.16939225098E+02  0.81173638112E+02  0.00000000000E+00 0. -1.
</event>
<event>
 7    1  0.6443388E-006  0.8757959E+02  0.7818608E-02  0.1321301E+00
          2   -1    0    0  502    0  0.00000000000E+00  0.00000000000E+00  0.62201198172E+03  0.62201198172E+03  0.00000000000E+00 0. -1.
          1   -1    0    0  501    0 -0.00000000000E+00 -0.00000000000E+00 -0.70027730705E+03  0.70027730705E+03  0.00000000000E+00 0. -1.
         25    2    1    2    0    0  0.11091916843E+03 -0.95943060711E+02  0.28409644548E+03  0.34327939338E+03  0.12498727438E+03 0.  0.
          2    1    1    2  501    0 -0.36947074795E+02  0.69003180285E+02 -0.66332174249E+03  0.66792384243E+03  0.00000000000E+00 0. -1.
          1    1    1    2  502    0 -0.73972093634E+02  0.26939880425E+02  0.30095997168E+03  0.31108605296E+03  0.00000000000E+00 0. -1.
         22    1    3    3    0    0  0.75229408914E+02 -0.12300944828E+03  0.18520094635E+03  0.23471297122E+03  0.00000000000E+00 0.  1.
         22    1    3    3    0    0  0.35689759515E+02  0.27066387568E+02  0.98895499132E+02  0.10856642215E+03  0.00000000000E+00 0.  1.
</event>
<event>
 7    1  0.6443388E-006  0.5432346E+02  0.7818608E-02  0.1441963E+00
          2   -1    0    0  502    0  0.00000000000E+00  0.00000000000E+00  0.15902472766E+04  0.15902472766E+04  0.00000000000E+00 0. -1.
          1   -1    0    0  501    0 -0.00000000000E+00 -0.00000000000E+00 -0.68127018926E+03  0.68127018926E+03  0.00000000000E+00 0. -1.
         25    2    1    2    0    0 -0.19550931746E+01 -0.71984008602E+02 -0.15590697779E+02  0.14510192759E+03  0.12500391854E+03 0.  0.
          2    1    1    2  501    0  0.36427205485E+02  0.30000837228E+02 -0.59951274890E+03  0.60136721530E+03  0.00000000000E+00 0. -1.
          1    1    1    2  502    0 -0.34472112310E+02  0.41983171374E+02  0.15240805340E+04  0.15250483230E+04  0.00000000000E+00 0. -1.
         22    1    3    3    0    0  0.14667626690E+02 -0.93079624235E+02  0.24022624589E+02  0.97242183298E+02  0.00000000000E+00 0.  1.
         22    1    3    3    0    0 -0.16622719864E+02  0.21095615633E+02 -0.39613322368E+02  0.47859744292E+02  0.00000000000E+00 0.  1.
</event>
<event>
 7    1  0.6443388E-006  0.9176440E+02  0.7818608E-02  0.1379257E+00
          2   -1    0    0  502    0  0.00000000000E+00  0.00000000000E+00  0.46528090379E+02  0.46528090379E+02  0.00000000000E+00 0. -1.
          1   -1    0    0  501    0 -0.00000000000E+00 -0.00000000000E+00 -0.13425618906E+04  0.13425618906E+04  0.00000000000E+00 0. -1.
         25    2    1    2    0    0 -0.64958731821E+01  0.63031166843E+02 -0.16032728374E+03  0.21294225958E+03  0.12499777454E+03 0.  0.
          2    1    1    2  501    0 -0.30848602491E+02 -0.89130085233E+02 -0.11255165926E+04  0.11294615570E+04  0.00000000000E+00 0. -1.
          1    1    1    2  502    0  0.37344475673E+02  0.26098918390E+02 -0.10189923879E+02  0.46686164472E+02  0.00000000000E+00 0. -1.
         22    1    3    3    0    0 -0.67205252721E+01 -0.12649464522E+02  0.15750023693E+02  0.21289379018E+02  0.00000000000E+00 0. -1.
         22    1    3    3    0    0  0.22465208992E+00  0.75680631366E+02 -0.17607730744E+03  0.19165288056E+03  0.00000000000E+00 0. -1.
</event>
<event>
 7    1  0.6443388E-006  0.4471056E+02  0.7818608E-02  0.1496467E+00
          2   -1    0    0  502    0  0.00000000000E+00  0.00000000000E+00  0.24750554466E+03  0.24750554466E+03  0.00000000000E+00 0. -1.
          1   -1    0    0  501    0 -0.00000000000E+00 -0.00000000000E+00 -0.33730487900E+03  0.33730487900E+03  0.00000000000E+00 0. -1.
         25    2    1    2    0    0 -0.30743550010E+02 -0.21374383377E+02 -0.43963539193E+02  0.13768119851E+03  0.12498515717E+03 0.  0.
          2    1    1    2  501    0 -0.11869571890E+02  0.36922491141E+02 -0.24235713718E+03  0.24544070370E+03  0.00000000000E+00 0. -1.
          1    1    1    2  502    0  0.42613121900E+02 -0.15548107765E+02  0.19652134203E+03  0.20168852145E+03  0.00000000000E+00 0. -1.
         22    1    3    3    0    0 -0.15386578493E+02  0.49408894210E+02  0.21908231305E+01  0.51795611115E+02  0.00000000000E+00 0.  1.
         22    1    3    3    0    0 -0.15356971517E+02 -0.70783277586E+02 -0.46154362323E+02  0.85885587391E+02  0.00000000000E+00 0.  1.
</event>
<event>
 7    1  0.6443388E-006  0.2169775E+03  0.7818608E-02  0.1253463E+00
          2   -1    0    0  502    0  0.00000000000E+00  0.00000000000E+00  0.66484779106E+03  0.66484779106E+03  0.00000000000E+00 0. -1.
          1   -1    0    0  501    0 -0.00000000000E+00 -0.00000000000E+00 -0.31112076787E+04  0.31112076787E+04  0.00000000000E+00 0. -1.
         25    2    1    2    0    0 -0.13024250381E+03  0.13056209610E+03  0.11505493936E+03  0.25074374396E+03  0.12500086131E+03 0.  0.
          2    1    1    2  501    0 -0.98771948677E+00  0.59812600305E+02 -0.30153163254E+04  0.30159096579E+04  0.00000000000E+00 0. -1.
          1    1    1    2  502    0  0.13123022329E+03 -0.19037469640E+03  0.45390149837E+03  0.50940206788E+03  0.00000000000E+00 0. -1.
         22    1    3    3    0    0 -0.38215268797E+02  0.68840127735E+01 -0.21860980075E+02  0.44561180987E+02  0.00000000000E+00 0.  1.
         22    1    3    3    0    0 -0.92027235009E+02  0.12367808332E+03  0.13691591944E+03  0.20618256297E+03  0.00000000000E+00 0.  1.
</event>
<event>
 7    1  0.6443388E-006  0.3713973E+02  0.7818608E-02  0.1542584E+00
          2   -1    0    0  502    0  0.00000000000E+00  0.00000000000E+00  0.88047618992E+02  0.88047618992E+02  0.00000000000E+00 0. -1.
          1   -1    0    0  501    0 -0.00000000000E+00 -0.00000000000E+00 -0.61602566774E+03  0.61602566774E+03  0.00000000000E+00 0. -1.
         25    2    1    2    0    0  0.57716263222E+01 -0.28080768458E+02 -0.54064830230E+03  0.55565059859E+03  0.12500063883E+03 0.  0.
          2    1    1    2  501    0 -0.34085505453E+02  0.37472748651E+01 -0.58640327463E+02  0.67930492092E+02  0.00000000000E+00 0. -1.
          1    1    1    2  502    0  0.28313879131E+02  0.24333493593E+02  0.71310581009E+02  0.80492196055E+02  0.00000000000E+00 0. -1.
         22    1    3    3    0    0 -0.15311602387E+02  0.45724949647E+02 -0.15095262426E+03  0.15846738137E+03  0.00000000000E+00 0. -1.
         22    1    3    3    0    0  0.21083228709E+02 -0.73805718104E+02 -0.38969567804E+03  0.39718321722E+03  0.00000000000E+00 0. -1.
</event>
<event>
 7    1  0.6443388E-006  0.6946480E+02  0.7818608E-02  0.1501120E+00
          2   -1    0    0  502    0  0.00000000000E+00  0.00000000000E+00  0.92806197848E+03  0.92806197848E+03  0.00000000000E+00 0. -1.
          1   -1    0    0  501    0 -0.00000000000E+00 -0.00000000000E+00 -0.50695277133E+03  0.50695277133E+03  0.00000000000E+00 0. -1.
         25    2    1    2    0    0 -0.56982895292E+02  0.62509161903E+02  0.86989725944E+02  0.17420599050E+03  0.12500427604E+03 0.  0.
          2    1    1    2  501    0 -0.42080048017E+00 -0.24172158184E+02 -0.46153390241E+03  0.46216665109E+03  0.00000000000E+00 0. -1.
          1    1    1    2  502    0  0.57403695772E+02 -0.38337003719E+02  0.79565338362E+03  0.79864210821E+03  0.00000000000E+00 0. -1.
         22    1    3    3    0    0 -0.75799586887E+02  0.72763638195E+02  0.10324563246E+03  0.14730846899E+03  0.00000000000E+00 0.  1.
         22    1    3    3    0    0  0.18816691594E+02 -0.10254476293E+02 -0.16255906515E+02  0.26897521507E+02  0.00000000000E+00 0.  1.
</event>
<event>
 7    1  0.6443388E-006  0.1090998E+03  0.7818608E-02  0.1281693E+00
          2   -1    0    0  502    0  0.00000000000E+00  0.00000000000E+00  0.10470863047E+04  0.10470863047E+04  0.00000000000E+00 0. -1.
          1   -1    0    0  501    0 -0.00000000000E+00 -0.00000000000E+00 -0.88290979797E+03  0.88290979797E+03  0.00000000000E+00 0. -1.
         25    2    1    2    0    0  0.33109596417E+02  0.15090660722E+03  0.18068308994E+03  0.26860040592E+03  0.12502299625E+03 0.  0.
          2    1    1    2  501    0 -0.80120850161E+02 -0.73632744502E+02 -0.83291441655E+03  0.83999259341E+03  0.00000000000E+00 0. -1.
          1    1    1    2  502    0  0.47011253744E+02 -0.77273862722E+02  0.81640783336E+03  0.82140310336E+03  0.00000000000E+00 0. -1.
         22    1    3    3    0    0  0.42428551565E+02  0.60494083897E+02  0.15874459456E+03  0.17509872209E+03  0.00000000000E+00 0. -1.
         22    1    3    3    0    0 -0.93189551479E+01  0.90412523327E+02  0.21938495374E+02  0.93501683828E+02  0.00000000000E+00 0. -1.
</event>
<event>
 7    1  0.6443388E-006  0.7676729E+02  0.7818608E-02  0.1405386E+00
          2   -1    0    0  502    0  0.00000000000E+00  0.00000000000E+00  0.38309754098E+03  0.38309754098E+03  0.00000000000E+00 0. -1.
          1   -1    0    0  501    0 -0.00000000000E+00 -0.00000000000E+00 -0.10328565205E+04  0.10328565205E+04  0.00000000000E+00 0. -1.
         25    2    1    2    0    0 -0.36786824464E+02  0.58023012912E+00 -0.38029243910E+02  0.13573645155E+03  0.12499821505E+03 0.  0.
          2    1    1    2  501    0  0.74488268058E+02 -0.23609133224E+02 -0.94289061166E+03  0.94612293007E+03  0.00000000000E+00 0. -1.
          1    1    1    2  502    0 -0.37701443594E+02  0.23028903095E+02  0.33116087609E+03  0.33409467982E+03  0.00000000000E+00 0. -1.
         22    1    3    3    0    0  0.24465682085E+02 -0.45409873164E+02 -0.34494949544E+01  0.51696471795E+02  0.00000000000E+00 0.  1.
         22    1    3    3    0    0 -0.61252506549E+02  0.45990103293E+02 -0.34579748956E+02  0.84039979755E+02  0.00000000000E+00 0.  1.
</event>
<event>
 7    1  0.6443388E-006  0.2130407E+03  0.7818608E-02  0.1346369E+00
          2   -1    0    0  502    0  0.00000000000E+00  0.00000000000E+00  0.34524941050E+03  0.34524941050E+03  0.00000000000E+00 0. -1.
          1   -1    0    0  501    0 -0.00000000000E+00 -0.00000000000E+00 -0.50416575992E+03  0.50416575992E+03  0.00000000000E+00 0. -1.
         25    2    1    2    0    0 -0.11851789510E+03  0.15203859510E+03  0.10369707776E+03  0.25207127770E+03  0.12499847696E+03 0.  0.
          2    1    1    2  501    0  0.14186088382E+03 -0.16312667816E+03 -0.40153881354E+03  0.45603535200E+03  0.00000000000E+00 0. -1.
          1    1    1    2  502    0 -0.23342988719E+02  0.11088083060E+02  0.13892538636E+03  0.14130854073E+03  0.00000000000E+00 0. -1.
         22    1    3    3    0    0 -0.60102589075E+02  0.13418234935E+01  0.13887663141E+00  0.60117726092E+02  0.00000000000E+00 0.  1.
         22    1    3    3    0    0 -0.58415306030E+02  0.15069677161E+03  0.10355820113E+03  0.19195355161E+03  0.00000000000E+00 0.  1.
</event>
<event>
 7    1  0.6443388E-006  0.7295655E+02  0.7818608E-02  0.1364718E+00
          2   -1    0    0  502    0  0.00000000000E+00  0.00000000000E+00  0.29308203894E+03  0.29308203894E+03  0.00000000000E+00 0. -1.
          1   -1    0    0  501    0 -0.00000000000E+00 -0.00000000000E+00 -0.15245523532E+04  0.15245523532E+04  0.00000000000E+00 0. -1.
         25    2    1    2    0    0 -0.31884229875E+02 -0.98619620702E+02 -0.32983155388E+03  0.36763610351E+03  0.12500006788E+03 0.  0.
          2    1    1    2  501    0 -0.28545061916E+02  0.57964529457E+02 -0.11700747229E+04  0.11718573141E+04  0.00000000000E+00 0. -1.
          1    1    1    2  502    0  0.60429291790E+02  0.40655091245E+02  0.26843596255E+03  0.27814097458E+03  0.00000000000E+00 0. -1.
         22    1    3    3    0    0 -0.12959054759E+02 -0.58821393661E+02 -0.35275153152E+02  0.69801360175E+02  0.00000000000E+00 0. -1.
         22    1    3    3    0    0 -0.18925175116E+02 -0.39798227041E+02 -0.29455640073E+03  0.29783474334E+03  0.00000000000E+00 0. -1.
</event>
<event>
 7    1  0.6443388E-006  0.1698479E+03  0.7818608E-02  0.1381944E+00
          2   -1    0    0  502    0  0.00000000000E+00  0.00000000000E+00  0.11264359490E+04  0.11264359490E+04  0.00000000000E+00 0. -1.
          1   -1    0    0  501    0 -0.00000000000E+00 -0.00000000000E+00 -0.10354162853E+04  0.10354162853E+04  0.00000000000E+00 0. -1.
         25    2    1    2    0    0 -0.16045254380E+03  0.62429435456E+02  0.27579609578E+03  0.34832547611E+03  0.12499879054E+03 0.  0.
          2    1    1    2  501    0  0.14810873336E+03 -0.83107498289E+02 -0.99175378333E+03  0.10061901510E+04  0.00000000000E+00 0. -1.
          1    1    1    2  502    0  0.12343810442E+02  0.20678062833E+02  0.80697735125E+03  0.80733660723E+03  0.00000000000E+00 0. -1.
         22    1    3    3    0    0 -0.17958438751E+03  0.67497487009E+02  0.25932199855E+03  0.32257458350E+03  0.00000000000E+00 0. -1.
         22    1    3    3    0    0  0.19131843714E+02 -0.50680515530E+01  0.16474097231E+02  0.25750892606E+02  0.00000000000E+00 0. -1.
</event>
<event>
 7    1  0.6443388E-006  0.1162098E+03  0.7818608E-02  0.1324988E+00
          2   -1    0    0  502    0  0.00000000000E+00  0.00000000000E+00  0.23985866543E+04  0.23985866543E+04  0.00000000000E+00 0. -1.
          1   -1    0    0  501    0 -0.00000000000E+00 -0.00000000000E+00 -0.20303055377E+03  0.20303055377E+03  0.00000000000E+00 0. -1.
         25    2    1    2    0    0 -0.54118100394E+02  0.10352034387E+03  0.30255920375E+02  0.17373628746E+03  0.12499458579E+03 0.  0.
          2    1    1    2  501    0  0.55597735768E+02  0.12950880852E+02 -0.12353318929E+03  0.13608557011E+03  0.00000000000E+00 0. -1.
          1    1    1    2  502    0 -0.14796353743E+01 -0.11647122472E+03  0.22888333694E+04  0.22917953505E+04  0.00000000000E+00 0. -1.
         22    1    3    3    0    0 -0.16605748104E+02 -0.20151776792E+02 -0.22186782803E+02  0.34265117964E+02  0.00000000000E+00 0.  1.
         22    1    3    3    0    0 -0.37512352290E+02  0.12367212066E+03  0.52442703178E+02  0.13947116949E+03  0.00000000000E+00 0.  1.
</event>
<event>
 7    1  0.6443388E-006  0.9029814E+02  0.7818608E-02  0.1386175E+00
          2   -1    0    0  502    0  0.00000000000E+00  0.00000000000E+00  0.64294472230E+02  0.64294472230E+02  0.00000000000E+00 0. -1.
          1   -1    0    0  501    0 -0.00000000000E+00 -0.00000000000E+00 -0.83018614595E+03  0.83018614595E+03  0.00000000000E+00 0. -1.
         25    2    1    2    0    0  0.16676739949E+02  0.11597321105E+03 -0.52841850500E+03  0.55549919516E+03  0.12500136024E+03 0.  0.
          2    1    1    2  501    0  0.74151601160E+01 -0.79429565531E+02 -0.27185745187E+03  0.28332051570E+03  0.00000000000E+00 0. -1.
          1    1    1    2  502    0 -0.24091900065E+02 -0.36543645514E+02  0.34384283148E+02  0.55660907322E+02  0.00000000000E+00 0. -1.
         22    1    3    3    0    0  0.31777844634E+02  0.34640762569E+02 -0.45072884403E+02  0.65125868511E+02  0.00000000000E+00 0. -1.
         22    1    3    3    0    0 -0.15101104685E+02  0.81332448477E+02 -0.48334562059E+03  0.49037332664E+03  0.00000000000E+00 0. -1.
</event>
<event>
 7    1  0.6443388E-006  0.1555421E+03  0.7818608E-02  0.1394851E+00
          2   -1    0    0  502    0  0.00000000000E+00  0.00000000000E+00  0.12217402621E+04  0.12217402621E+04  0.00000000000E+00 0. -1.
          1   -1    0    0  501    0 -0.00000000000E+00 -0.00000000000E+00 -0.12499107127E+03  0.12499107127E+03  0.00000000000E+00 0. -1.
         25    2    1    2    0    0  0.14948471668E+03  0.43962092152E+01  0.21792797803E+03  0.29237281896E+03  0.12499701789E+03 0.  0.
          2    1    1    2  501    0  0.62303592529E+01 -0.22867037039E+02 -0.79672487752E+02  0.83122945473E+02  0.00000000000E+00 0. -1.
          1    1    1    2  502    0 -0.15571507594E+03  0.18470827824E+02  0.95849370058E+03  0.97123556895E+03  0.00000000000E+00 0. -1.
         22    1    3    3    0    0  0.13695513335E+03 -0.43202920023E+02  0.17980371758E+03  0.23011427098E+03  0.00000000000E+00 0.  1.
         22    1    3    3    0    0  0.12529583329E+02  0.47599129238E+02  0.38124260454E+02  0.62258547989E+02  0.00000000000E+00 0.  1.
</event>
<event>
 7    1  0.6443388E-006  0.1101459E+03  0.7818608E-02  0.1390012E+00
          2   -1    0    0  502    0  0.00000000000E+00  0.00000000000E+00  0.33951579219E+04  0.33951579219E+04  0.00000000000E+00 0. -1.
          1   -1    0    0  501    0 -0.00000000000E+00 -0.00000000000E+00 -0.23714478318E+03  0.23714478318E+03  0.00000000000E+00 0. -1.
         25    2    1    2    0    0 -0.93932965169E+02 -0.36320366503E+00  0.18340146733E+03  0.24100836058E+03  0.12500159114E+03 0.  0.
          2    1    1    2  501    0 -0.11840968348E+02 -0.32713836265E+02 -0.20591701879E+03  0.20883539509E+03  0.00000000000E+00 0. -1.
          1    1    1    2  502    0  0.10577393352E+03  0.33077039930E+02  0.31805286902E+04  0.31824589494E+04  0.00000000000E+00 0. -1.
         22    1    3    3    0    0 -0.56179699231E+02  0.59687544418E+02  0.72878295321E+02  0.10968139082E+03  0.00000000000E+00 0.  1.
         22    1    3    3    0    0 -0.37753265939E+02 -0.60050748083E+02  0.11052317201E+03  0.13132696976E+03  0.00000000000E+00 0.  1.
</event>
<event>
 7    1  0.6443388E-006  0.1375131E+03  0.7818608E-02  0.1234924E+00
          2   -1    0    0  502    0  0.00000000000E+00  0.00000000000E+00  0.41286761253E+03  0.41286761253E+03  0.00000000000E+00 0. -1.
          1   -1    0    0  501    0 -0.00000000000E+00 -0.00000000000E+00 -0.12274984486E+04  0.12274984486E+04  0.00000000000E+00 0. -1.
         25    2    1    2    0    0 -0.55300491230E+01  0.22846190115E+03 -0.12155430871E+03  0.28745211187E+03  0.12501137921E+03 0.  0.
          2    1    1    2  501    0 -0.43914922197E+02 -0.12597027422E+03 -0.10086583861E+04  0.10174422688E+04  0.00000000000E+00 0. -1.
          1    1    1    2  502    0  0.49444971320E+02 -0.10249162694E+03  0.31558185880E+03  0.33547168045E+03  0.00000000000E+00 0. -1.
         22    1    3    3    0    0 -0.42974437806E+02  0.19229474801E+03 -0.12804722984E+03  0.23498971358E+03  0.00000000000E+00 0. -1.
         22    1    3    3    0    0  0.37444388683E+02  0.36167153139E+02  0.64929211264E+01  0.52462398294E+02  0.00000000000E+00 0. -1.
</event>
<event>
 7    1  0.6443388E-006  0.5579355E+02  0.7818608E-02  0.1420949E+00
          2   -1    0    0  502    0  0.00000000000E+00  0.00000000000E+00  0.13957707277E+04  0.13957707277E+04  0.00000000000E+00 0. -1.
          1   -1    0    0  501    0 -0.00000000000E+00 -0.00000000000E+00 -0.23566212586E+02  0.23566212586E+02  0.00000000000E+00 0. -1.
         25    2    1    2    0    0 -0.21270700065E+02  0.78692297663E+02  0.70609177742E+03  0.72168924196E+03  0.12499937373E+03 0.  0.
          2    1    1    2  501    0  0.44942178952E+02 -0.29692189182E+02  0.35097775109E+02  0.64290585352E+02  0.00000000000E+00 0. -1.
          1    1    1    2  502    0 -0.23671478887E+02 -0.49000108482E+02  0.63101496254E+03  0.63335711293E+03  0.00000000000E+00 0. -1.
         22    1    3    3    0    0  0.26160810820E+01  0.98065697793E+02  0.32819438920E+03  0.34254237996E+03  0.00000000000E+00 0. -1.
         22    1    3    3    0    0 -0.23886781147E+02 -0.19373400130E+02  0.37789738822E+03  0.37914686201E+03  0.00000000000E+00 0. -1.
</event>
<event>
 7    1  0.6443388E-006  0.9049910E+02  0.7818608E-02  0.1404439E+00
          2   -1    0    0  502    0  0.00000000000E+00  0.00000000000E+00  0.40282084324E+04  0.40282084324E+04  0.00000000000E+00 0. -1.
          1   -1    0    0  501    0 -0.00000000000E+00 -0.00000000000E+00 -0.73425230092E+03  0.73425230092E+03  0.00000000000E+00 0. -1.
         25    2    1    2    0    0 -0.79739612523E+01 -0.68927926971E+02  0.20419054386E+04  0.20469043780E+04  0.12500027717E+03 0.  0.
          2    1    1    2  501    0 -0.25691983123E+02 -0.27665476740E+02 -0.72994598791E+03  0.73092174812E+03  0.00000000000E+00 0. -1.
          1    1    1    2  502    0  0.33665944375E+02  0.96593403712E+02  0.19819966809E+04  0.19846346073E+04  0.00000000000E+00 0. -1.
         22    1    3    3    0    0 -0.34380482991E+02 -0.45633222498E+02  0.18941285439E+04  0.18949900658E+04  0.00000000000E+00 0. -1.
         22    1    3    3    0    0  0.26406521739E+02 -0.23294704474E+02  0.14777689469E+03  0.15191431220E+03  0.00000000000E+00 0. -1.
</event>
<event>
 7    1  0.6443388E-006  0.8968195E+02  0.7818608E-02  0.1467698E+00
          2   -1    0    0  502    0  0.00000000000E+00  0.00000000000E+00  0.67306721537E+03  0.67306721537E+03  0.00000000000E+00 0. -1.
          1   -1    0    0  501    0 -0.00000000000E+00 -0.00000000000E+00 -0.28958979171E+04  0.28958979171E+04  0.00000000000E+00 0. -1.
         25    2    1    2    0    0  0.98227091478E+01 -0.83872162865E+02  0.28031522345E+03  0.31832828161E+03  0.12500098020E+03 0.  0.
          2    1    1    2  501    0  0.13358354888E+02  0.88700870904E+02 -0.28758163361E+04  0.28772149536E+04  0.00000000000E+00 0. -1.
          1    1    1    2  502    0 -0.23181064036E+02 -0.48287080393E+01  0.37267041095E+03  0.37342189725E+03  0.00000000000E+00 0. -1.
         22    1    3    3    0    0 -0.49550657138E+02 -0.74858359128E+02  0.14941312555E+03  0.17430812844E+03  0.00000000000E+00 0. -1.
         22    1    3    3    0    0  0.59373366286E+02 -0.90138037369E+01  0.13090209790E+03  0.14402015316E+03  0.00000000000E+00 0. -1.
</event>
<event>
 7    1  0.6443388E-006  0.1066412E+03  0.7818608E-02  0.1464827E+00
          2   -1    0    0  502    0  0.00000000000E+00  0.00000000000E+00  0.89491862985E+03  0.89491862985E+03  0.00000000000E+00 0. -1.
          1   -1    0    0  501    0 -0.00000000000E+00 -0.00000000000E+00 -0.50603317836E+03  0.50603317836E+03  0.00000000000E+00 0. -1.
         25    2    1    2    0    0 -0.18357562543E+02 -0.86983604862E+02  0.39190439211E+03  0.42085372807E+03  0.12500264102E+03 0.  0.
          2    1    1    2  501    0  0.11848315994E+02  0.10624231084E+03 -0.48552991997E+03  0.49715904335E+03  0.00000000000E+00 0. -1.
          1    1    1    2  502    0  0.65092465498E+01 -0.19258705975E+02  0.48251097935E+03  0.48293903677E+03  0.00000000000E+00 0. -1.
         22    1    3    3    0    0  0.34724226060E+02 -0.57917401631E+02  0.31916425902E+03  0.32623001321E+03  0.00000000000E+00 0. -1.
         22    1    3    3    0    0 -0.53081788604E+02 -0.29066203231E+02  0.72740133091E+02  0.94623714859E+02  0.00000000000E+00 0. -1.
</event>
<event>
 7    1  0.6443388E-006  0.9582299E+02  0.7818608E-02  0.1388722E+00
          2   -1    0    0  502    0  0.00000000000E+00  0.00000000000E+00  0.32137731078E+03  0.32137731078E+03  0.00000000000E+00 0. -1.
          1   -1    0    0  501    0 -0.00000000000E+00 -0.00000000000E+00 -0.35705681420E+03  0.35705681420E+03  0.00000000000E+00 0. -1.
         25    2    1    2    0    0  0.43029467382E+02  0.44626753340E+02 -0.42579433789E+02  0.14587021369E+03  0.12498811497E+03 0.  0.
          2    1    1    2  501    0 -0.70454709401E+02 -0.74303185576E+02 -0.25122719711E+03  0.27129307774E+03  0.00000000000E+00 0. -1.
          1    1    1    2  502    0  0.27425242020E+02  0.29676432236E+02  0.25812712747E+03  0.26127083356E+03  0.00000000000E+00 0. -1.
         22    1    3    3    0    0  0.57679974295E+02 -0.10780432686E+02 -0.61993047870E+02  0.85360032496E+02  0.00000000000E+00 0. -1.
         22    1    3    3    0    0 -0.14650506913E+02  0.55407186026E+02  0.19413614081E+02  0.60510181191E+02  0.00000000000E+00 0. -1.
</event>
<event>
 7    1  0.6443388E-006  0.7815786E+02  0.7818608E-02  0.1465634E+00
          2   -1    0    0  502    0  0.00000000000E+00  0.00000000000E+00  0.16013767735E+02  0.16013767735E+02  0.00000000000E+00 0. -1.
          1   -1    0    0  501    0 -0.00000000000E+00 -0.00000000000E+00 -0.23227134757E+04  0.23227134757E+04  0.00000000000E+00 0. -1.
         25    2    1    2    0    0  0.38648040090E+02 -0.47265341129E+02 -0.13054989263E+04  0.13128895441E+04  0.12499529948E+03 0.  0.
          2    1    1    2  501    0 -0.46565753178E+02  0.73680805059E+02 -0.99334816008E+03  0.99716487981E+03  0.00000000000E+00 0. -1.
          1    1    1    2  502    0  0.79177130878E+01 -0.26415463930E+02 -0.78526215900E+01  0.28672819551E+02  0.00000000000E+00 0. -1.
         22    1    3    3    0    0  0.38224317267E+02 -0.47517896213E+02 -0.13084636670E+04  0.13098840470E+04  0.00000000000E+00 0. -1.
         22    1    3    3    0    0  0.42372282293E+00  0.25255508398E+00  0.29647406799E+01  0.30054970305E+01  0.00000000000E+00 0. -1.
</event>
<event>
 7    1  0.6443388E-006  0.1231075E+03  0.7818608E-02  0.1311455E+00
          2   -1    0    0  502    0  0.00000000000E+00  0.00000000000E+00  0.33350147918E+03  0.33350147918E+03  0.00000000000E+00 0. -1.
          1   -1    0    0  501    0 -0.00000000000E+00 -0.00000000000E+00 -0.51922461284E+03  0.51922461284E+03  0.00000000000E+00 0. -1.
         25    2    1    2    0    0 -0.12735558934E+03 -0.61813497093E+02 -0.16125380319E+03  0.24833487715E+03  0.12500827014E+03 0.  0.
          2    1    1    2  501    0  0.75848909511E+02  0.94183481025E+02 -0.29935342895E+03  0.32285609890E+03  0.00000000000E+00 0. -1.
          1    1    1    2  502    0  0.51506679834E+02 -0.32369983932E+02  0.27488409848E+03  0.28153511597E+03  0.00000000000E+00 0. -1.
         22    1    3    3    0    0 -0.13230413583E+03 -0.65322484141E+02 -0.17760167068E+03  0.23089773650E+03  0.00000000000E+00 0.  1.
         22    1    3    3    0    0  0.49485464842E+01  0.35089870472E+01  0.16347867492E+02  0.17437140647E+02  0.00000000000E+00 0.  1.
</event>
<event>
 7    1  0.6443388E-006  0.1699970E+03  0.7818608E-02  0.1277228E+00
          2   -1    0    0  502    0  0.00000000000E+00  0.00000000000E+00  0.31364353288E+03  0.31364353288E+03  0.00000000000E+00 0. -1.
          1   -1    0    0  501    0 -0.00000000000E+00 -0.00000000000E+00 -0.14599536354E+04  0.14599536354E+04  0.00000000000E+00 0. -1.
         25    2    1    2    0    0  0.14989794367E+03 -0.15541062232E+03 -0.56891593654E+02  0.25589794288E+03  0.12500099479E+03 0.  0.
          2    1    1    2  501    0 -0.55326177237E+02  0.24654515303E+02 -0.12723339927E+04  0.12737749487E+04  0.00000000000E+00 0. -1.
          1    1    1    2  502    0 -0.94571766428E+02  0.13075610702E+03  0.18291548383E+03  0.24392427668E+03  0.00000000000E+00 0. -1.
         22    1    3    3    0    0  0.57049161021E+02 -0.14173952447E+03 -0.16337127162E+02  0.15366066931E+03  0.00000000000E+00 0.  1.
         22    1    3    3    0    0  0.92848782644E+02 -0.13671097852E+02 -0.40554466492E+02  0.10223727357E+03  0.00000000000E+00 0.  1.
</event>
<event>
 7    1  0.6443388E-006  0.2320798E+03  0.7818608E-02  0.1321355E+00
          2   -1    0    0  502    0  0.00000000000E+00  0.00000000000E+00  0.12267918393E+04  0.12267918393E+04  0.00000000000E+00 0. -1.
          1   -1    0    0  501    0 -0.00000000000E+00 -0.00000000000E+00 -0.46774111242E+03  0.46774111242E+03  0.00000000000E+00 0. -1.
         25    2    1    2    0    0  0.17404159839E+03  0.17848577973E+03  0.27173634965E+03  0.38937318248E+03  0.12499271968E+03 0.  0.
          2    1    1    2  501    0 -0.14453693612E+03 -0.17953678924E+03 -0.37617210594E+03  0.44116871816E+03  0.00000000000E+00 0. -1.
          1    1    1    2  502    0 -0.29504662268E+02  0.10510095104E+01  0.86348648321E+03  0.86399105111E+03  0.00000000000E+00 0. -1.
         22    1    3    3    0    0  0.11195280124E+03  0.49948119556E+02  0.18628640117E+03  0.22300418743E+03  0.00000000000E+00 0.  1.
         22    1    3    3    0    0  0.62088797151E+02  0.12853766018E+03  0.85449948480E+02  0.16636899504E+03  0.00000000000E+00 0.  1.
</event>
<event>
 7    1  0.6443388E-006  0.5271005E+02  0.7818608E-02  0.1520868E+00
          2   -1    0    0  502    0  0.00000000000E+00  0.00000000000E+00  0.71947320320E+03  0.71947320320E+03  0.00000000000E+00 0. -1.
          1   -1    0    0  501    0 -0.00000000000E+00 -0.00000000000E+00 -0.44184015633E+02  0.44184015633E+02  0.00000000000E+00 0. -1.
         25    2    1    2    0    0 -0.27702797820E+02  0.24940134646E+01  0.25698747282E+03  0.28712466146E+03  0.12499737966E+03 0.  0.
          2    1    1    2  501    0  0.53744816673E+02 -0.12432465543E+02 -0.21036575772E+01  0.55204138376E+02  0.00000000000E+00 0. -1.
          1    1    1    2  502    0 -0.26042018853E+02  0.99384520782E+01  0.42040537233E+03  0.42132841900E+03  0.00000000000E+00 0. -1.
         22    1    3    3    0    0 -0.13019207895E+02 -0.49309591503E+01 -0.11546598614E+02  0.18086958614E+02  0.00000000000E+00 0. -1.
         22    1    3    3    0    0 -0.14683589925E+02  0.74249726148E+01  0.26853407143E+03  0.26903770284E+03  0.00000000000E+00 0. -1.
</event>
<event>
 7    1  0.6443388E-006  0.1344678E+03  0.7818608E-02  0.1324814E+00
          2   -1    0    0  502    0  0.00000000000E+00  0.00000000000E+00  0.21731948216E+02  0.21731948216E+02  0.00000000000E+00 0. -1.
          1   -1    0    0  501    0 -0.00000000000E+00 -0.00000000000E+00 -0.32359212117E+04  0.32359212117E+04  0.00000000000E+00 0. -1.
         25    2    1    2    0    0  0.57902444340E+02  0.10165548193E+03 -0.20908190227E+04  0.20978169385E+04  0.12500076685E+03 0.  0.
          2    1    1    2  501    0 -0.76980351838E+02 -0.14723517165E+03 -0.10839981888E+04  0.10966568486E+04  0.00000000000E+00 0. -1.
          1    1    1    2  502    0  0.19077907498E+02  0.45579689720E+02 -0.39372052035E+02  0.63179372827E+02  0.00000000000E+00 0. -1.
         22    1    3    3    0    0  0.89869147385E+02  0.82264809483E+02 -0.18603181795E+04  0.18643035406E+04  0.00000000000E+00 0. -1.
         22    1    3    3    0    0 -0.31966703045E+02  0.19390672449E+02 -0.23050084318E+03  0.23351339788E+03  0.00000000000E+00 0. -1.
</event>
<event>
 7    1  0.6443388E-006  0.1010180E+03  0.7818608E-02  0.1404138E+00
          2   -1    0    0  502    0  0.00000000000E+00  0.00000000000E+00  0.52288259668E+03  0.52288259668E+03  0.00000000000E+00 0. -1.
          1   -1    0    0  501    0 -0.00000000000E+00 -0.00000000000E+00 -0.34798368025E+03  0.34798368025E+03  0.00000000000E+00 0. -1.
         25    2    1    2    0    0 -0.26676724702E+02  0.13085430982E+03  0.15102330835E+03  0.23720794933E+03  0.12500029407E+03 0.  0.
          2    1    1    2  501    0  0.19288898193E+02 -0.97765049448E+02 -0.29582870460E+03  0.31216131880E+03  0.00000000000E+00 0. -1.
          1    1    1    2  502    0  0.73878265088E+01 -0.33089260372E+02  0.31970431267E+03  0.32149700881E+03  0.00000000000E+00 0. -1.
         22    1    3    3    0    0 -0.37328411889E+02  0.13860708417E+03  0.16452525682E+03  0.21834352348E+03  0.00000000000E+00 0. -1.
         22    1    3    3    0    0  0.10651687187E+02 -0.77527743491E+01 -0.13501948465E+02  0.18864425844E+02  0.00000000000E+00 0. -1.
</event>
<event>
 7    1  0.6443388E-006  0.7664452E+02  0.7818608E-02  0.1384648E+00
          2   -1    0    0  502    0  0.00000000000E+00  0.00000000000E+00  0.85052935408E+03  0.85052935408E+03  0.00000000000E+00 0. -1.
          1   -1    0    0  501    0 -0.00000000000E+00 -0.00000000000E+00 -0.12137976346E+04  0.12137976346E+04  0.00000000000E+00 0. -1.
         25    2    1    2    0    0  0.10181916686E+03 -0.23321048717E+02 -0.20345945043E+03  0.26063586942E+03  0.12499717760E+03 0.  0.
          2    1    1    2  501    0 -0.28133063531E+02  0.43980849856E+02 -0.97927179784E+03  0.98066255076E+03  0.00000000000E+00 0. -1.
          1    1    1    2  502    0 -0.73686103333E+02 -0.20659801138E+02  0.81946296770E+03  0.82302856854E+03  0.00000000000E+00 0. -1.
         22    1    3    3    0    0  0.36577387555E+02  0.27979028073E+02 -0.59965188259E+01  0.46440171515E+02  0.00000000000E+00 0.  1.
         22    1    3    3    0    0  0.65241779309E+02 -0.51300076791E+02 -0.19746293160E+03  0.21419569791E+03  0.00000000000E+00 0.  1.
</event>
<event>
 7    1  0.6443388E-006  0.4774591E+02  0.7818608E-02  0.1464426E+00
          2   -1    0    0  502    0  0.00000000000E+00  0.00000000000E+00  0.94118615255E+03  0.94118615255E+03  0.00000000000E+00 0. -1.
          1   -1    0    0  501    0 -0.00000000000E+00 -0.00000000000E+00 -0.94562306495E+03  0.94562306495E+03  0.00000000000E+00 0. -1.
         25    2    1    2    0    0 -0.87772004406E+02  0.10179755808E+02  0.55170794898E+02  0.16271588639E+03  0.12500036355E+03 0.  0.
          2    1    1    2  501    0  0.41334077288E+02 -0.19106643101E+02 -0.89059662593E+03  0.89176001249E+03  0.00000000000E+00 0. -1.
          1    1    1    2  502    0  0.46437927118E+02  0.89268872924E+01  0.83098891864E+03  0.83233331862E+03  0.00000000000E+00 0. -1.
         22    1    3    3    0    0 -0.49255322066E+02  0.66181807311E+02  0.15269421349E+02  0.83900379016E+02  0.00000000000E+00 0.  1.
         22    1    3    3    0    0 -0.38516682340E+02 -0.56002051503E+02  0.39901373550E+02  0.78815507371E+02  0.00000000000E+00 0.  1.
</event>
<event>
 7    1  0.6443388E-006  0.1020538E+03  0.7818608E-02  0.1371383E+00
          2   -1    0    0  502    0  0.00000000000E+00  0.00000000000E+00  0.82453186851E+03  0.82453186851E+03  0.00000000000E+00 0. -1.
          1   -1    0    0  501    0 -0.00000000000E+00 -0.00000000000E+00 -0.10231809157E+03  0.10231809157E+03  0.00000000000E+00 0. -1.
         25    2    1    2    0    0 -0.59019459452E+02 -0.71095952145E+02  0.26075154253E+03  0.30356887137E+03  0.12499904690E+03 0.  0.
          2    1    1    2  501    0  0.93979347763E+02  0.44869655036E+02 -0.46065860524E+02  0.11387478762E+03  0.00000000000E+00 0. -1.
          1    1    1    2  502    0 -0.34959888311E+02  0.26226297109E+02  0.50752809493E+03  0.50940630110E+03  0.00000000000E+00 0. -1.
         22    1    3    3    0    0 -0.81162370696E+01 -0.89536439903E+02  0.10264810832E+03  0.13645248812E+03  0.00000000000E+00 0. -1.
         22    1    3    3    0    0 -0.50903222382E+02  0.18440487757E+02  0.15810343421E+03  0.16711638324E+03  0.00000000000E+00 0. -1.
</event>
<event>
 7    1  0.6443388E-006  0.1226150E+03  0.7818608E-02  0.1302922E+00
          2   -1    0    0  502    0  0.00000000000E+00  0.00000000000E+00  0.90318552289E+03  0.90318552289E+03  0.00000000000E+00 0. -1.
          1   -1    0    0  501    0 -0.00000000000E+00 -0.00000000000E+00 -0.40304857444E+03  0.40304857444E+03  0.00000000000E+00 0. -1.
         25    2    1    2    0    0 -0.14318839627E+03 -0.62008795525E+02  0.67994288144E+02  0.21118242449E+03  0.12500714238E+03 0.  0.
          2    1    1    2  501    0  0.82615969090E+02  0.88264216706E+02 -0.31893410801E+03  0.34107907521E+03  0.00000000000E+00 0. -1.
          1    1    1    2  502    0  0.60572427184E+02 -0.26255421181E+02  0.75107676831E+03  0.75397259762E+03  0.00000000000E+00 0. -1.
         22    1    3    3    0    0 -0.87700980401E+02  0.16065995989E+02 -0.71406425479E+01  0.89445888483E+02  0.00000000000E+00 0.  1.
         22    1    3    3    0    0 -0.55487415872E+02 -0.78074791514E+02  0.75134930692E+02  0.12173653601E+03  0.00000000000E+00 0.  1.
</event>
<event>
 7    1  0.6443388E-006  0.8755304E+02  0.7818608E-02  0.1359095E+00
          2   -1    0    0  502    0  0.00000000000E+00  0.00000000000E+00  0.55602355525E+03  0.55602355525E+03  0.00000000000E+00 0. -1.
          1   -1    0    0  501    0 -0.00000000000E+00 -0.00000000000E+00 -0.33514409380E+03  0.33514409380E+03  0.00000000000E+00 0. -1.
         25    2    1    2    0    0  0.35436563128E+01  0.13771112371E+03 -0.22307597464E+02  0.18733918683E+03  0.12498572287E+03 0.  0.
          2    1    1    2  501    0  0.86427820477E+01 -0.82604779485E+02 -0.22106813512E+03  0.23615538876E+03  0.00000000000E+00 0. -1.
          1    1    1    2  502    0 -0.12186438361E+02 -0.55106344229E+02  0.46425519404E+03  0.46767307346E+03  0.00000000000E+00 0. -1.
         22    1    3    3    0    0 -0.12250949144E+02  0.14150128195E+03 -0.53820879155E+02  0.15188609410E+03  0.00000000000E+00 0. -1.
         22    1    3    3    0    0  0.15794605456E+02 -0.37901582359E+01  0.31513281691E+02  0.35453092727E+02  0.00000000000E+00 0. -1.
</event>
<event>
 7    1  0.6443388E-006  0.5753070E+02  0.7818608E-02  0.1505642E+00
          2   -1    0    0  502    0  0.00000000000E+00  0.00000000000E+00  0.16095996784E+03  0.16095996784E+03  0.00000000000E+00 0. -1.
          1   -1    0    0  501    0 -0.00000000000E+00 -0.00000000000E+00 -0.21858300687E+03  0.21858300687E+03  0.00000000000E+00 0. -1.
         25    2    1    2    0    0 -0.63976147578E+02 -0.52336262847E+02 -0.53251277523E+02  0.15903610116E+03  0.12499900418E+03 0.  0.
          2    1    1    2  501    0  0.42143860412E+02  0.34326478060E+02 -0.10377773364E+03  0.11715045910E+03  0.00000000000E+00 0. -1.
          1    1    1    2  502    0  0.21832287166E+02  0.18009784787E+02  0.99405972141E+02  0.10335641445E+03  0.00000000000E+00 0. -1.
         22    1    3    3    0    0  0.35883842772E+02 -0.18253015893E+02  0.12432230078E+01  0.40278634097E+02  0.00000000000E+00 0. -1.
         22    1    3    3    0    0 -0.99859990350E+02 -0.34083246953E+02 -0.54494500531E+02  0.11875746706E+03  0.00000000000E+00 0. -1.
</event>
<event>
 7    1  0.6443388E-006  0.1565607E+03  0.7818608E-02  0.1324109E+00
          2   -1    0    0  502    0  0.00000000000E+00  0.00000000000E+00  0.11413584439E+04  0.11413584439E+04  0.00000000000E+00 0. -1.
          1   -1    0    0  501    0 -0.00000000000E+00 -0.00000000000E+00 -0.62537537679E+03  0.62537537679E+03  0.00000000000E+00 0. -1.
         25    2    1    2    0    0  0.13042361363E+03  0.12471399912E+03  0.56505009454E+03  0.60619260725E+03  0.12499586862E+03 0.  0.
          2    1    1    2  501    0 -0.87945367089E+02 -0.12910809645E+03 -0.59386730633E+03  0.61406975637E+03  0.00000000000E+00 0. -1.
          1    1    1    2  502    0 -0.42478246538E+02  0.43940973338E+01  0.54480027889E+03  0.54647145708E+03  0.00000000000E+00 0. -1.
         22    1    3    3    0    0  0.14863949230E+03  0.87553811497E+02  0.39229364277E+03  0.42854832952E+03  0.00000000000E+00 0.  1.
         22    1    3    3    0    0 -0.18215878669E+02  0.37160187623E+02  0.17275645178E+03  0.17764427773E+03  0.00000000000E+00 0.  1.
</event>
<event>
 7    1  0.6443388E-006  0.6831357E+02  0.7818608E-02  0.1444649E+00
          2   -1    0    0  502    0  0.00000000000E+00  0.00000000000E+00  0.62493843466E+03  0.62493843466E+03  0.00000000000E+00 0. -1.
          1   -1    0    0  501    0 -0.00000000000E+00 -0.00000000000E+00 -0.16360962810E+03  0.16360962810E+03  0.00000000000E+00 0. -1.
         25    2    1    2    0    0  0.41172784179E+02 -0.86873460003E+02  0.46250796348E+02  0.16433758910E+03  0.12500204325E+03 0.  0.
          2    1    1    2  501    0 -0.30690570797E+02  0.20277961592E+02 -0.99061134502E+02  0.10567031386E+03  0.00000000000E+00 0. -1.
          1    1    1    2  502    0 -0.10482213382E+02  0.66595498411E+02  0.51413914471E+03  0.51854015980E+03  0.00000000000E+00 0. -1.
         22    1    3    3    0    0  0.43312954924E+02 -0.11768884334E+03  0.28119991144E+02  0.12852007553E+03  0.00000000000E+00 0. -1.
         22    1    3    3    0    0 -0.21401707456E+01  0.30815383339E+02  0.18130805204E+02  0.35817513572E+02  0.00000000000E+00 0. -1.
</event>
<event>
 7    1  0.6443388E-006  0.1141509E+03  0.7818608E-02  0.1368742E+00
          2   -1    0    0  502    0  0.00000000000E+00  0.00000000000E+00  0.97207036913E+03  0.97207036913E+03  0.00000000000E+00 0. -1.
          1   -1    0    0  501    0 -0.00000000000E+00 -0.00000000000E+00 -0.87671315840E+02  0.87671315840E+02  0.00000000000E+00 0. -1.
         25    2    1    2    0    0  0.32364791701E+02 -0.11994494537E+03  0.43591430274E+02  0.18155319578E+03  0.12500832149E+03 0.  0.
          2    1    1    2  501    0 -0.39446045556E+02  0.62359164050E+01  0.12160870344E+02  0.41746424169E+02  0.00000000000E+00 0. -1.
          1    1    1    2  502    0  0.70812538546E+01  0.11370902897E+03  0.82864675267E+03  0.83644206502E+03  0.00000000000E+00 0. -1.
         22    1    3    3    0    0  0.64168736764E+02 -0.10111481922E+03 -0.57600191308E+01  0.11989583506E+03  0.00000000000E+00 0.  1.
         22    1    3    3    0    0 -0.31803945063E+02 -0.18830126146E+02  0.49351449405E+02  0.61657360717E+02  0.00000000000E+00 0.  1.
</event>
<event>
 7    1  0.6443388E-006  0.7899487E+02  0.7818608E-02  0.1359887E+00
          2   -1    0    0  502    0  0.00000000000E+00  0.00000000000E+00  0.14725291486E+04  0.14725291486E+04  0.00000000000E+00 0. -1.
          1   -1    0    0  501    0 -0.00000000000E+00 -0.00000000000E+00 -0.42674084785E+02  0.42674084785E+02  0.00000000000E+00 0. -1.
         25    2    1    2    0    0  0.72229062487E+02  0.23657938162E+02  0.42470912310E+03  0.44919904792E+03  0.12500083961E+03 0.  0.
          2    1    1    2  501    0  0.51604863072E+00 -0.62134948836E+02  0.48470549307E+01  0.62325854303E+02  0.00000000000E+00 0. -1.
          1    1    1    2  502    0 -0.72745111118E+02  0.38477010674E+02  0.10002988858E+04  0.10036783312E+04  0.00000000000E+00 0. -1.
         22    1    3    3    0    0  0.36057089475E+02 -0.25283293283E+02  0.35036826246E+03  0.35312501747E+03  0.00000000000E+00 0.  1.
         22    1    3    3    0    0  0.36171973012E+02  0.48941231446E+02  0.74340860637E+02  0.96074030451E+02  0.00000000000E+00 0.  1.
</event>
<event>
 7    1  0.6443388E-006  0.6322638E+02  0.7818608E-02  0.1489184E+00
          2   -1    0    0  502    0  0.00000000000E+00  0.00000000000E+00  0.16646226814E+04  0.16646226814E+04  0.00000000000E+00 0. -1.
          1   -1    0    0  501    0 -0.00000000000E+00 -0.00000000000E+00 -0.11096265068E+04  0.11096265068E+04  0.00000000000E+00 0. -1.
         25    2    1    2    0    0 -0.10830643433E+01  0.59274531360E+02  0.31088027531E+03  0.34027363185E+03  0.12499982345E+03 0.  0.
          2    1    1    2  501    0 -0.27665090979E+02 -0.56884995540E+02 -0.10938606389E+04  0.10956880749E+04  0.00000000000E+00 0. -1.
          1    1    1    2  502    0  0.28748155322E+02 -0.23895358200E+01  0.13379765382E+04  0.13382874815E+04  0.00000000000E+00 0. -1.
         22    1    3    3    0    0 -0.62312174761E+02  0.40211053499E+02  0.16181177766E+03  0.17799659361E+03  0.00000000000E+00 0. -1.
         22    1    3    3    0    0  0.61229110418E+02  0.19063477861E+02  0.14906849765E+03  0.16227703825E+03  0.00000000000E+00 0. -1.
</event>
<event>
 7    1  0.6443388E-006  0.1068754E+03  0.7818608E-02  0.1318690E+00
          2   -1    0    0  502    0  0.00000000000E+00  0.00000000000E+00  0.10164435497E+03  0.10164435497E+03  0.00000000000E+00 0. -1.
          1   -1    0    0  501    0 -0.00000000000E+00 -0.00000000000E+00 -0.92148460171E+03  0.92148460171E+03  0.00000000000E+00 0. -1.
         25    2    1    2    0    0  0.85944043901E+02  0.78547580341E+02 -0.46554824810E+02  0.17705430390E+03  0.12499909502E+03 0.  0.
          2    1    1    2  501    0 -0.25554010101E+02 -0.10430713453E+03 -0.77299525139E+03  0.78041953103E+03  0.00000000000E+00 0. -1.
          1    1    1    2  502    0 -0.60390033800E+02  0.25759554191E+02 -0.29017054649E+00  0.65655121761E+02  0.00000000000E+00 0. -1.
         22    1    3    3    0    0  0.53614210157E+02  0.11183354920E+03 -0.39227834231E+02  0.13007708959E+03  0.00000000000E+00 0.  1.
         22    1    3    3    0    0  0.32329833744E+02 -0.33285968862E+02 -0.73269905793E+01  0.46977214306E+02  0.00000000000E+00 0.  1.
</event>
<event>
 7    1  0.6443388E-006  0.1728326E+03  0.7818608E-02  0.1256412E+00
          2   -1    0    0  502    0  0.00000000000E+00  0.00000000000E+00  0.15710725174E+04  0.15710725174E+04  0.00000000000E+00 0. -1.
          1   -1    0    0  501    0 -0.00000000000E+00 -0.00000000000E+00 -0.19038735519E+04  0.19038735519E+04  0.00000000000E+00 0. -1.
         25    2    1    2    0    0 -0.53475169837E+02 -0.16910714540E+03  0.56519042716E+02  0.22419601885E+03  0.12495051926E+03 0.  0.
          2    1    1    2  501    0  0.11479302498E+03  0.12961020893E+03 -0.18149831471E+04  0.18232224409E+04  0.00000000000E+00 0. -1.
          1    1    1    2  502    0 -0.61317855142E+02  0.39496936472E+02  0.14256630698E+04  0.14275276096E+04  0.00000000000E+00 0. -1.
         22    1    3    3    0    0 -0.57181304889E+02 -0.16382820174E+03  0.86249469065E+02  0.19377397201E+03  0.00000000000E+00 0.  1.
         22    1    3    3    0    0  0.37061350518E+01 -0.52789436601E+01 -0.29730426348E+02  0.30422046842E+02  0.00000000000E+00 0.  1.
</event>
<event>
 7    1  0.6443388E-006  0.9079052E+02  0.7818608E-02  0.1339373E+00
          2   -1    0    0  502    0  0.00000000000E+00  0.00000000000E+00  0.58659122656E+02  0.58659122656E+02  0.00000000000E+00 0. -1.
          1   -1    0    0  501    0 -0.00000000000E+00 -0.00000000000E+00 -0.46869051651E+03  0.46869051651E+03  0.00000000000E+00 0. -1.
         25    2    1    2    0    0 -0.24890174676E+01 -0.58462818697E+02 -0.13625550779E+03  0.19394476461E+03  0.12499964776E+03 0.  0.
          2    1    1    2  501    0  0.59592618437E+02  0.88261719138E+02 -0.23554779166E+03  0.25850372027E+03  0.00000000000E+00 0. -1.
          1    1    1    2  502    0 -0.57103600969E+02 -0.29798900440E+02 -0.38228094401E+02  0.74901154281E+02  0.00000000000E+00 0. -1.
         22    1    3    3    0    0  0.48689789674E+01 -0.92804924149E+02 -0.61753692734E+02  0.11157947602E+03  0.00000000000E+00 0.  1.
         22    1    3    3    0    0 -0.73579964349E+01  0.34342105452E+02 -0.74501815052E+02  0.82365288590E+02  0.00000000000E+00 0.  1.
</event>
<event>
 7    1  0.6443388E-006  0.4032283E+02  0.7818608E-02  0.1602910E+00
          2   -1    0    0  502    0  0.00000000000E+00  0.00000000000E+00  0.19135655352E+03  0.19135655352E+03  0.00000000000E+00 0. -1.
          1   -1    0    0  501    0 -0.00000000000E+00 -0.00000000000E+00 -0.93519119304E+03  0.93519119304E+03  0.00000000000E+00 0. -1.
         25    2    1    2    0    0  0.26754066231E+02 -0.72632853326E+01 -0.13657147184E+03  0.18720004911E+03  0.12499422424E+03 0.  0.
          2    1    1    2  501    0  0.17488056433E+01 -0.21611470007E+02 -0.77067215000E+03  0.77097709223E+03  0.00000000000E+00 0. -1.
          1    1    1    2  502    0 -0.28502871874E+02  0.28874755340E+02  0.16340898232E+03  0.16837060522E+03  0.00000000000E+00 0. -1.
         22    1    3    3    0    0 -0.93001491046E+01  0.39733432845E+02 -0.11841076778E+03  0.12524515314E+03  0.00000000000E+00 0. -1.
         22    1    3    3    0    0  0.36054215335E+02 -0.46996718177E+02 -0.18160704062E+02  0.61954895972E+02  0.00000000000E+00 0. -1.
</event>
<event>
 7    1  0.6443388E-006  0.1611479E+03  0.7818608E-02  0.1258531E+00
          2   -1    0    0  502    0  0.00000000000E+00  0.00000000000E+00  0.29904862247E+03  0.29904862247E+03  0.00000000000E+00 0. -1.
          1   -1    0    0  501    0 -0.00000000000E+00 -0.00000000000E+00 -0.10648975140E+04  0.10648975140E+04  0.00000000000E+00 0. -1.
         25    2    1    2    0    0 -0.76404683823E+02 -0.11364163758E+03 -0.29038143987E+03  0.34452552636E+03  0.12499744074E+03 0.  0.
          2    1    1    2  501    0  0.14917244176E+03  0.89694733925E+02 -0.73162893530E+03  0.75204950744E+03  0.00000000000E+00 0. -1.
          1    1    1    2  502    0 -0.72767757938E+02  0.23946903656E+02  0.25616148369E+03  0.26737110262E+03  0.00000000000E+00 0. -1.
         22    1    3    3    0    0 -0.10219098681E+03 -0.59464165609E+02 -0.23408302674E+03  0.26224768480E+03  0.00000000000E+00 0.  1.
         22    1    3    3    0    0  0.25786302984E+02 -0.54177471973E+02 -0.56298413137E+02  0.82277841566E+02  0.00000000000E+00 0.  1.
</event>
<event>
 7    1  0.6443388E-006  0.4487309E+03  0.7818608E-02  0.1196469E+00
          2   -1    0    0  502    0  0.00000000000E+00  0.00000000000E+00  0.14916113661E+04  0.14916113661E+04  0.00000000000E+00 0. -1.
          1   -1    0    0  501    0 -0.00000000000E+00 -0.00000000000E+00 -0.23082138833E+03  0.23082138833E+03  0.00000000000E+00 0. -1.
         25    2    1    2    0    0  0.38508504821E+03 -0.21083655060E+03  0.16372398966E+03  0.48494703423E+03  0.12500214314E+03 0.  0.
          2    1    1    2  501    0 -0.39566916418E+03  0.26213166798E+03  0.75753438075E+03  0.89393816165E+03  0.00000000000E+00 0. -1.
          1    1    1    2  502    0  0.10584115965E+02 -0.51295117382E+02  0.33953160741E+03  0.34354755858E+03  0.00000000000E+00 0. -1.
         22    1    3    3    0    0  0.23363273131E+03 -0.14523533474E+03  0.16326818599E+03  0.31989694614E+03  0.00000000000E+00 0. -1.
         22    1    3    3    0    0  0.15145231691E+03 -0.65601215862E+02  0.45580366110E+00  0.16505008808E+03  0.00000000000E+00 0. -1.
</event>
<event>
 7    1  0.6443388E-006  0.1320572E+03  0.7818608E-02  0.1348419E+00
          2   -1    0    0  502    0  0.00000000000E+00  0.00000000000E+00  0.16572067447E+04  0.16572067447E+04  0.00000000000E+00 0. -1.
          1   -1    0    0  501    0 -0.00000000000E+00 -0.00000000000E+00 -0.85918858097E+03  0.85918858097E+03  0.00000000000E+00 0. -1.
         25    2    1    2    0    0 -0.19461751106E+02  0.14376233765E+03  0.58335572498E+03  0.61398313114E+03  0.12500005589E+03 0.  0.
          2    1    1    2  501    0  0.53341812043E+02 -0.12073519332E+03 -0.83831276120E+03  0.84864045473E+03  0.00000000000E+00 0. -1.
          1    1    1    2  502    0 -0.33880060937E+02 -0.23027144329E+02  0.10529752000E+04  0.10537717398E+04  0.00000000000E+00 0. -1.
         22    1    3    3    0    0 -0.60001916419E+02  0.43830492826E+02  0.33638192266E+03  0.34449113192E+03  0.00000000000E+00 0.  1.
         22    1    3    3    0    0  0.40540165313E+02  0.99931844821E+02  0.24697380232E+03  0.26949199922E+03  0.00000000000E+00 0.  1.
</event>
<event>
 7    1  0.1323216E-005  0.7665608E+02  0.7818608E-02  0.1415138E+00
          2   -1    0    0  502    0  0.00000000000E+00  0.00000000000E+00  0.96051179593E+03  0.96051179593E+03  0.00000000000E+00 0. -1.
          1   -1    0    0  501    0 -0.00000000000E+00 -0.00000000000E+00 -0.22240841357E+04  0.22240841357E+04  0.00000000000E+00 0. -1.
         25    2    1    2    0    0 -0.99886909886E+02 -0.58880046061E+02 -0.67216016914E+03  0.69344713651E+03  0.12500153422E+03 0.  0.
          2    1    1    2  501    0  0.39112196915E+02  0.12304587841E+02 -0.15394640097E+04  0.15400099363E+04  0.00000000000E+00 0. -1.
          1    1    1    2  502    0  0.60774712971E+02  0.46575458220E+02  0.94805183910E+03  0.95113885877E+03  0.00000000000E+00 0. -1.
         22    1    3    3    0    0 -0.10780446413E+03 -0.86891260335E+02 -0.49885554678E+03  0.51771493137E+03  0.00000000000E+00 0.  1.
         22    1    3    3    0    0  0.79175542448E+01  0.28011214275E+02 -0.17330462236E+03  0.17573220514E+03  0.00000000000E+00 0.  1.
</event>
<event>
 7    1  0.6443388E-006  0.1072563E+03  0.7818608E-02  0.1292414E+00
          2   -1    0    0  502    0  0.00000000000E+00  0.00000000000E+00  0.17662695617E+04  0.17662695617E+04  0.00000000000E+00 0. -1.
          1   -1    0    0  501    0 -0.00000000000E+00 -0.00000000000E+00 -0.39916282541E+03  0.39916282541E+03  0.00000000000E+00 0. -1.
         25    2    1    2    0    0 -0.11985001136E+02 -0.91651397844E+02  0.17318602861E+03  0.23272796279E+03  0.12500114071E+03 0.  0.
          2    1    1    2  501    0  0.82848416638E+02  0.73913386507E+01 -0.36274046276E+03  0.37215471964E+03  0.00000000000E+00 0. -1.
          1    1    1    2  502    0 -0.70863415502E+02  0.84260059193E+02  0.15566611705E+04  0.15605497047E+04  0.00000000000E+00 0. -1.
         22    1    3    3    0    0  0.43447982430E+02 -0.15688993823E+02  0.11035005051E+03  0.11962861427E+03  0.00000000000E+00 0.  1.
         22    1    3    3    0    0 -0.55432983566E+02 -0.75962404021E+02  0.62835978098E+02  0.11309934852E+03  0.00000000000E+00 0.  1.
</event>
<event>
 7    1  0.6443388E-006  0.8593709E+02  0.7818608E-02  0.1346650E+00
          2   -1    0    0  502    0  0.00000000000E+00  0.00000000000E+00  0.91015074222E+02  0.91015074222E+02  0.00000000000E+00 0. -1.
          1   -1    0    0  501    0 -0.00000000000E+00 -0.00000000000E+00 -0.83881486299E+03  0.83881486299E+03  0.00000000000E+00 0. -1.
         25    2    1    2    0    0 -0.47383392065E+02  0.10081878986E+02 -0.10138092250E+03  0.16807769904E+03  0.12500076535E+03 0.  0.
          2    1    1    2  501    0  0.52174704729E+02 -0.73812588551E+02 -0.68243281611E+03  0.68839309013E+03  0.00000000000E+00 0. -1.
          1    1    1    2  502    0 -0.47913126633E+01  0.63730709565E+02  0.36013949839E+02  0.73359148044E+02  0.00000000000E+00 0. -1.
         22    1    3    3    0    0 -0.40908736019E+01 -0.78725441573E+01  0.28579269478E+02  0.29924686168E+02  0.00000000000E+00 0. -1.
         22    1    3    3    0    0 -0.43292518463E+02  0.17954423143E+02 -0.12996019198E+03  0.13815301287E+03  0.00000000000E+00 0. -1.
</event>
<event>
 7    1  0.6443388E-006  0.1191507E+03  0.7818608E-02  0.1266245E+00
          2   -1    0    0  502    0  0.00000000000E+00  0.00000000000E+00  0.85424387053E+03  0.85424387053E+03  0.00000000000E+00 0. -1.
          1   -1    0    0  501    0 -0.00000000000E+00 -0.00000000000E+00 -0.57556699773E+03  0.57556699773E+03  0.00000000000E+00 0. -1.
         25    2    1    2    0    0 -0.20814685063E+02 -0.40451573684E+02  0.59926092707E+02  0.14591128716E+03  0.12501754359E+03 0.  0.
          2    1    1    2  501    0  0.37958369032E+02 -0.88255795277E+02 -0.52255250290E+03  0.53131068263E+03  0.00000000000E+00 0. -1.
          1    1    1    2  502    0 -0.17143683969E+02  0.12870736896E+03  0.74130328300E+03  0.75258889848E+03  0.00000000000E+00 0. -1.
         22    1    3    3    0    0 -0.83613454050E+01 -0.41081478843E+02  0.97602303690E+02  0.10622527800E+03  0.00000000000E+00 0.  1.
         22    1    3    3    0    0 -0.12453339658E+02  0.62990515974E+00 -0.37676210982E+02  0.39686009161E+02  0.00000000000E+00 0.  1.
</event>
<event>
 7    1  0.6443388E-006  0.6244959E+02  0.7818608E-02  0.1395495E+00
          2   -1    0    0  502    0  0.00000000000E+00  0.00000000000E+00  0.74781211115E+02  0.74781211115E+02  0.00000000000E+00 0. -1.
          1   -1    0    0  501    0 -0.00000000000E+00 -0.00000000000E+00 -0.49640983068E+03  0.49640983068E+03  0.00000000000E+00 0. -1.
         25    2    1    2    0    0 -0.39681259555E+02  0.46087895905E+02 -0.20021190335E+02  0.14045661053E+03  0.12501405870E+03 0.  0.
          2    1    1    2  501    0 -0.40568284438E+02 -0.42464625463E+02 -0.27186706612E+03  0.27813797253E+03  0.00000000000E+00 0. -1.
          1    1    1    2  502    0  0.80249543992E+02 -0.36232704421E+01 -0.12974036311E+03  0.15259645874E+03  0.00000000000E+00 0. -1.
         22    1    3    3    0    0  0.21120414782E+02  0.65649595122E+02  0.10344352413E+02  0.69734832667E+02  0.00000000000E+00 0.  1.
         22    1    3    3    0    0 -0.60801674337E+02 -0.19561699217E+02 -0.30365542748E+02  0.70721777868E+02  0.00000000000E+00 0.  1.
</event>
<event>
 7    1  0.6443388E-006  0.6934256E+02  0.7818608E-02  0.1377784E+00
          2   -1    0    0  502    0  0.00000000000E+00  0.00000000000E+00  0.20686173150E+02  0.20686173150E+02  0.00000000000E+00 0. -1.
          1   -1    0    0  501    0 -0.00000000000E+00 -0.00000000000E+00 -0.25791233717E+04  0.25791233717E+04  0.00000000000E+00 0. -1.
         25    2    1    2    0    0  0.45734504171E+02  0.34197499406E+02 -0.17528249138E+04  0.17582040122E+04  0.12500022522E+03 0.  0.
          2    1    1    2  501    0 -0.72672711651E+02  0.29698691135E+02 -0.74612225585E+03  0.75024113187E+03  0.00000000000E+00 0. -1.
          1    1    1    2  502    0  0.26938207480E+02 -0.63896190541E+02 -0.59490028896E+02  0.91364400758E+02  0.00000000000E+00 0. -1.
         22    1    3    3    0    0  0.30469956541E+02  0.81607014806E+02 -0.10405405070E+04  0.10441803819E+04  0.00000000000E+00 0. -1.
         22    1    3    3    0    0  0.15264547630E+02 -0.47409515399E+02 -0.71228440681E+03  0.71402363039E+03  0.00000000000E+00 0. -1.
</event>
<event>
 7    1  0.6443388E-006  0.2496270E+02  0.7818608E-02  0.1695623E+00
          2   -1    0    0  502    0  0.00000000000E+00  0.00000000000E+00  0.16936963976E+04  0.16936963976E+04  0.00000000000E+00 0. -1.
          1   -1    0    0  501    0 -0.00000000000E+00 -0.00000000000E+00 -0.32532734743E+03  0.32532734743E+03  0.00000000000E+00 0. -1.
         25    2    1    2    0    0  0.33593895016E+02  0.30978350661E+01  0.42155809039E+03  0.44099264269E+03  0.12500056385E+03 0.  0.
          2    1    1    2  501    0 -0.18245967150E+02 -0.17032997840E+02 -0.31503128191E+03  0.31601858634E+03  0.00000000000E+00 0. -1.
          1    1    1    2  502    0 -0.15347927866E+02  0.13935162774E+02  0.12618422417E+04  0.12620125160E+04  0.00000000000E+00 0. -1.
         22    1    3    3    0    0  0.18267235316E+02 -0.36158809181E+02  0.39377165208E+02  0.56495243227E+02  0.00000000000E+00 0. -1.
         22    1    3    3    0    0  0.15326659700E+02  0.39256644247E+02  0.38218092518E+03  0.38449739946E+03  0.00000000000E+00 0. -1.
</event>
<event>
 7    1  0.6443388E-006  0.9252355E+02  0.7818608E-02  0.1372131E+00
          2   -1    0    0  502    0  0.00000000000E+00  0.00000000000E+00  0.16301707166E+04  0.16301707166E+04  0.00000000000E+00 0. -1.
          1   -1    0    0  501    0 -0.00000000000E+00 -0.00000000000E+00 -0.22283777869E+03  0.22283777869E+03  0.00000000000E+00 0. -1.
         25    2    1    2    0    0 -0.10950991667E+02 -0.11853871694E+03  0.11605536408E+04  0.11733205739E+04  0.12500025707E+03 0.  0.
          2    1    1    2  501    0  0.25866408419E+02  0.40325899779E+02 -0.21031906180E+03  0.21570664578E+03  0.00000000000E+00 0. -1.
          1    1    1    2  502    0 -0.14915416752E+02  0.78212817156E+02  0.45709835889E+03  0.46398127562E+03  0.00000000000E+00 0. -1.
         22    1    3    3    0    0  0.44270883235E+02 -0.50883897517E+02  0.77834478923E+03  0.78126160347E+03  0.00000000000E+00 0. -1.
         22    1    3    3    0    0 -0.55221874902E+02 -0.67654819418E+02  0.38220885161E+03  0.39205897044E+03  0.00000000000E+00 0. -1.
</event>
<event>
 7    1  0.6443388E-006  0.1243039E+03  0.7818608E-02  0.1399468E+00
          2   -1    0    0  502    0  0.00000000000E+00  0.00000000000E+00  0.22105111028E+04  0.22105111028E+04  0.00000000000E+00 0. -1.
          1   -1    0    0  501    0 -0.00000000000E+00 -0.00000000000E+00 -0.40641872974E+03  0.40641872974E+03  0.00000000000E+00 0. -1.
         25    2    1    2    0    0 -0.13571438180E+03  0.65537868008E+02  0.31635158410E+03  0.37204508671E+03  0.12500246483E+03 0.  0.
          2    1    1    2  501    0  0.11450878346E+03 -0.46365356045E+02 -0.36838030733E+03  0.38854350922E+03  0.00000000000E+00 0. -1.
          1    1    1    2  502    0  0.21205598343E+02 -0.19172511963E+02  0.18561210962E+04  0.18563412366E+04  0.00000000000E+00 0. -1.
         22    1    3    3    0    0 -0.43678292282E+02  0.86566087605E+02  0.19955661318E+03  0.22186555074E+03  0.00000000000E+00 0.  1.
         22    1    3    3    0    0 -0.92036089521E+02 -0.21028219597E+02  0.11679497092E+03  0.15017953597E+03  0.00000000000E+00 0.  1.
</event>
<event>
 7    1  0.6443388E-006  0.3217674E+02  0.7818608E-02  0.1646271E+00
          2   -1    0    0  502    0  0.00000000000E+00  0.00000000000E+00  0.14742789271E+03  0.14742789271E+03  0.00000000000E+00 0. -1.
          1   -1    0    0  501    0 -0.00000000000E+00 -0.00000000000E+00 -0.99572311558E+03  0.99572311558E+03  0.00000000000E+00 0. -1.
         25    2    1    2    0    0  0.36768483150E+01  0.14363488371E+02 -0.63252767902E+02  0.14087577003E+03  0.12500096369E+03 0.  0.
          2    1    1    2  501    0 -0.23099015354E+02 -0.22611035624E+02 -0.89233864835E+03  0.89292389753E+03  0.00000000000E+00 0. -1.
          1    1    1    2  502    0  0.19422167039E+02  0.82475472531E+01  0.10729619337E+03  0.10935134074E+03  0.00000000000E+00 0. -1.
         22    1    3    3    0    0  0.14232698470E+02  0.25670020758E+02 -0.98288425426E+02  0.10257745485E+03  0.00000000000E+00 0. -1.
         22    1    3    3    0    0 -0.10555850155E+02 -0.11306532387E+02  0.35035657525E+02  0.38298315175E+02  0.00000000000E+00 0. -1.
</event>
<event>
 7    1  0.6443388E-006  0.5966197E+02  0.7818608E-02  0.1445679E+00
          2   -1    0    0  502    0  0.00000000000E+00  0.00000000000E+00  0.22305199375E+04  0.22305199375E+04  0.00000000000E+00 0. -1.
          1   -1    0    0  501    0 -0.00000000000E+00 -0.00000000000E+00 -0.24763885540E+03  0.24763885540E+03  0.00000000000E+00 0. -1.
         25    2    1    2    0    0 -0.57996478682E+02  0.22694048292E+02  0.42913125329E+03  0.45128859104E+03  0.12501659285E+03 0.  0.
          2    1    1    2  501    0  0.56635328723E+02  0.19081922987E+02 -0.23253720165E+03  0.24009421150E+03  0.00000000000E+00 0. -1.
          1    1    1    2  502    0  0.13611499584E+01 -0.41775971279E+02  0.17862870304E+04  0.17867759903E+04  0.00000000000E+00 0. -1.
         22    1    3    3    0    0  0.12053035804E+02 -0.18729282749E+02  0.28420626620E+03  0.28507764460E+03  0.00000000000E+00 0. -1.
         22    1    3    3    0    0 -0.70049514485E+02  0.41423331041E+02  0.14492498709E+03  0.16621094644E+03  0.00000000000E+00 0. -1.
</event>
<event>
 7    1  0.6443388E-006  0.1867265E+03  0.7818608E-02  0.1342921E+00
          2   -1    0    0  502    0  0.00000000000E+00  0.00000000000E+00  0.15479119434E+04  0.15479119434E+04  0.00000000000E+00 0. -1.
          1   -1    0    0  501    0 -0.00000000000E+00 -0.00000000000E+00 -0.59328638610E+02  0.59328638610E+02  0.00000000000E+00 0. -1.
         25    2    1    2    0    0  0.17379672970E+03  0.38836488342E+02  0.49631477126E+03  0.54190951287E+03  0.12499596747E+03 0.  0.
          2    1    1    2  501    0  0.39792657135E+01  0.30110073414E+02 -0.19275662574E+02  0.35972242692E+02  0.00000000000E+00 0. -1.
          1    1    1    2  502    0 -0.17777599541E+03 -0.68946561757E+02  0.10115441961E+04  0.10293588265E+04  0.00000000000E+00 0. -1.
         22    1    3    3    0    0  0.12246346286E+03  0.55932506277E+02  0.20260695221E+03  0.24325978310E+03  0.00000000000E+00 0. -1.
         22    1    3    3    0    0  0.51333266841E+02 -0.17096017934E+02  0.29370781906E+03  0.29864972977E+03  0.00000000000E+00 0. -1.
</event>
<event>
 7    1  0.6443388E-006  0.9782774E+02  0.7818608E-02  0.1290999E+00
          2   -1    0    0  502    0  0.00000000000E+00  0.00000000000E+00  0.10271216042E+03  0.10271216042E+03  0.00000000000E+00 0. -1.
          1   -1    0    0  501    0 -0.00000000000E+00 -0.00000000000E+00 -0.89499548204E+03  0.89499548204E+03  0.00000000000E+00 0. -1.
         25    2    1    2    0    0 -0.58088388017E+02 -0.22331068051E+02 -0.42268051434E+02  0.14589409506E+03  0.12500224549E+03 0.  0.
          2    1    1    2  501    0 -0.39019820424E+02 -0.83764627375E+02 -0.68968078485E+03  0.69584383605E+03  0.00000000000E+00 0. -1.
          1    1    1    2  502    0  0.97108208441E+02  0.10609569543E+03 -0.60334485339E+02  0.15596971134E+03  0.00000000000E+00 0. -1.
         22    1    3    3    0    0 -0.58875454104E+02 -0.13088371065E+02 -0.83851044206E+02  0.10328902249E+03  0.00000000000E+00 0.  1.
         22    1    3    3    0    0  0.78706608707E+00 -0.92426969858E+01  0.41582992771E+02  0.42605072567E+02  0.00000000000E+00 0.  1.
</event>
<event>
 7    1  0.6916172E-006  0.9532316E+02  0.7818608E-02  0.1332643E+00
          2   -1    0    0  502    0  0.00000000000E+00  0.00000000000E+00  0.30812589059E+04  0.30812589059E+04  0.00000000000E+00 0. -1.
          1   -1    0    0  501    0 -0.00000000000E+00 -0.00000000000E+00 -0.14187575864E+04  0.14187575864E+04  0.00000000000E+00 0. -1.
         25    2    1    2    0    0  0.27500197964E+02  0.67175404272E+02 -0.14264161965E+03  0.20308815253E+03  0.12501747963E+03 0.  0.
          2    1    1    2  501    0 -0.87916557370E+02 -0.43050632976E+02 -0.12436223130E+04  0.12474690920E+04  0.00000000000E+00 0. -1.
          1    1    1    2  502    0  0.60416359406E+02 -0.24124771296E+02  0.30487652522E+04  0.30494592478E+04  0.00000000000E+00 0. -1.
         22    1    3    3    0    0  0.66529630598E+02  0.61818651991E+02 -0.13539429488E+03  0.16303175325E+03  0.00000000000E+00 0. -1.
         22    1    3    3    0    0 -0.39029432634E+02  0.53567522806E+01 -0.72473247674E+01  0.40056399277E+02  0.00000000000E+00 0. -1.
</event>
<event>
 7    1  0.6443388E-006  0.1776858E+03  0.7818608E-02  0.1310163E+00
          2   -1    0    0  502    0  0.00000000000E+00  0.00000000000E+00  0.14397047022E+04  0.14397047022E+04  0.00000000000E+00 0. -1.
          1   -1    0    0  501    0 -0.00000000000E+00 -0.00000000000E+00 -0.10191750051E+03  0.10191750051E+03  0.00000000000E+00 0. -1.
         25    2    1    2    0    0 -0.76592623499E+02  0.14387232058E+03  0.68736240137E+03  0.71739632600E+03  0.12499897253E+03 0.  0.
          2    1    1    2  501    0  0.11845511513E+03 -0.13574465999E+03  0.79495897166E+01  0.18033697068E+03  0.00000000000E+00 0. -1.
          1    1    1    2  502    0 -0.41862491632E+02 -0.81276605832E+01  0.64247521060E+03  0.64388890603E+03  0.00000000000E+00 0. -1.
         22    1    3    3    0    0 -0.57900703217E+02  0.38057786045E+02  0.46831539872E+03  0.47341334918E+03  0.00000000000E+00 0. -1.
         22    1    3    3    0    0 -0.18691920282E+02  0.10581453453E+03  0.21904700266E+03  0.24398297682E+03  0.00000000000E+00 0. -1.
</event>
<event>
 7    1  0.6443388E-006  0.6681481E+02  0.7818608E-02  0.1405517E+00
          2   -1    0    0  502    0  0.00000000000E+00  0.00000000000E+00  0.80324181443E+03  0.80324181443E+03  0.00000000000E+00 0. -1.
          1   -1    0    0  501    0 -0.00000000000E+00 -0.00000000000E+00 -0.29785166757E+02  0.29785166757E+02  0.00000000000E+00 0. -1.
         25    2    1    2    0    0  0.25594784067E+02 -0.87165823830E+01  0.30075307430E+03  0.32681419640E+03  0.12499614189E+03 0.  0.
          2    1    1    2  501    0  0.50544097424E+02 -0.40607568560E+01  0.34667021663E+02  0.61424733793E+02  0.00000000000E+00 0. -1.
          1    1    1    2  502    0 -0.76138881491E+02  0.12777339239E+02  0.43803655171E+03  0.44478805100E+03  0.00000000000E+00 0. -1.
         22    1    3    3    0    0  0.46696129442E+02 -0.43229462496E+02  0.79193421003E+02  0.10159189369E+03  0.00000000000E+00 0. -1.
         22    1    3    3    0    0 -0.21101345375E+02  0.34512880113E+02  0.22155965330E+03  0.22522230271E+03  0.00000000000E+00 0. -1.
</event>
<event>
 7    1  0.6443388E-006  0.9128876E+02  0.7818608E-02  0.1319451E+00
          2   -1    0    0  502    0  0.00000000000E+00  0.00000000000E+00  0.34877079633E+02  0.34877079633E+02  0.00000000000E+00 0. -1.
          1   -1    0    0  501    0 -0.00000000000E+00 -0.00000000000E+00 -0.91701370091E+03  0.91701370091E+03  0.00000000000E+00 0. -1.
         25    2    1    2    0    0  0.48786945284E+01 -0.37530990165E+02 -0.28813458408E+03  0.31635337028E+03  0.12500215782E+03 0.  0.
          2    1    1    2  501    0 -0.94925394732E+02  0.22523317155E+02 -0.47835001260E+03  0.48819756752E+03  0.00000000000E+00 0. -1.
          1    1    1    2  502    0  0.90046700203E+02  0.15007673010E+02 -0.11565202459E+03  0.14733984274E+03  0.00000000000E+00 0. -1.
         22    1    3    3    0    0  0.16524960506E+02  0.32303919562E+02 -0.20018901041E+03  0.20345087227E+03  0.00000000000E+00 0.  1.
         22    1    3    3    0    0 -0.11646265977E+02 -0.69834909727E+02 -0.87945573677E+02  0.11290249801E+03  0.00000000000E+00 0.  1.
</event>
<event>
 7    1  0.6443388E-006  0.1748517E+03  0.7818608E-02  0.1188919E+00
          2   -1    0    0  502    0  0.00000000000E+00  0.00000000000E+00  0.99592827583E+03  0.99592827583E+03  0.00000000000E+00 0. -1.
          1   -1    0    0  501    0 -0.00000000000E+00 -0.00000000000E+00 -0.25682687765E+03  0.25682687765E+03  0.00000000000E+00 0. -1.
         25    2    1    2    0    0 -0.14064166399E+03  0.10869054489E+03  0.13847365607E+03  0.25767229645E+03  0.12500538682E+03 0.  0.
          2    1    1    2  501    0 -0.40162020935E+02 -0.14041909066E+03 -0.15764855120E+03  0.21490364037E+03  0.00000000000E+00 0. -1.
          1    1    1    2  502    0  0.18080368492E+03  0.31728545764E+02  0.75827629332E+03  0.78017921666E+03  0.00000000000E+00 0. -1.
         22    1    3    3    0    0 -0.37609682623E+02  0.10752080298E+03  0.65349092498E+02  0.13132294237E+03  0.00000000000E+00 0. -1.
         22    1    3    3    0    0 -0.10303198137E+03  0.11697419080E+01  0.73124563573E+02  0.12634935409E+03  0.00000000000E+00 0. -1.
</event>
<event>
 7    1  0.6443388E-006  0.8401463E+02  0.7818608E-02  0.1369715E+00
          2   -1    0    0  502    0  0.00000000000E+00  0.00000000000E+00  0.95751121774E+03  0.95751121774E+03  0.00000000000E+00 0. -1.
          1   -1    0    0  501    0 -0.00000000000E+00 -0.00000000000E+00 -0.32562821948E+04  0.32562821948E+04  0.00000000000E+00 0. -1.
         25    2    1    2    0    0  0.79978045022E+02 -0.87766744913E+02 -0.20341859238E+03  0.26665166999E+03  0.12499800073E+03 0.  0.
          2    1    1    2  501    0 -0.26851320310E+02  0.79125049681E+02 -0.30198864522E+04  0.30210421962E+04  0.00000000000E+00 0. -1.
          1    1    1    2  502    0 -0.53126724712E+02  0.86416952328E+01  0.92453406752E+03  0.92609954637E+03  0.00000000000E+00 0. -1.
         22    1    3    3    0    0  0.45395491880E+02  0.26358599386E+02 -0.73251883228E+02  0.90118615397E+02  0.00000000000E+00 0.  1.
         22    1    3    3    0    0  0.34582553143E+02 -0.11412534430E+03 -0.13016670915E+03  0.17653305459E+03  0.00000000000E+00 0.  1.
</event>
<event>
 7    1  0.6443388E-006  0.3847511E+02  0.7818608E-02  0.1616342E+00
          2   -1    0    0  502    0  0.00000000000E+00  0.00000000000E+00  0.10917923994E+04  0.10917923994E+04  0.00000000000E+00 0. -1.
          1   -1    0    0  501    0 -0.00000000000E+00 -0.00000000000E+00 -0.14764808608E+03  0.14764808608E+03  0.00000000000E+00 0. -1.
         25    2    1    2    0    0 -0.28231358381E+02 -0.49038021915E+02  0.44229379662E+02  0.14416328711E+03  0.12500031255E+03 0.  0.
          2    1    1    2  501    0  0.11873470011E+02  0.35900992584E+02 -0.93906757065E+02  0.10123408310E+03  0.00000000000E+00 0. -1.
          1    1    1    2  502    0  0.16357888370E+02  0.13137029330E+02  0.99382169073E+03  0.99404311527E+03  0.00000000000E+00 0. -1.
         22    1    3    3    0    0  0.37655908906E+02 -0.55026107298E+02  0.40252180718E+02  0.77885030734E+02  0.00000000000E+00 0. -1.
         22    1    3    3    0    0 -0.65887267287E+02  0.59880853833E+01  0.39771989431E+01  0.66278256378E+02  0.00000000000E+00 0. -1.
</event>
<event>
 7    1  0.6443388E-006  0.3449353E+02  0.7818608E-02  0.1618813E+00
          2   -1    0    0  502    0  0.00000000000E+00  0.00000000000E+00  0.13820429106E+04  0.13820429106E+04  0.00000000000E+00 0. -1.
          1   -1    0    0  501    0 -0.00000000000E+00 -0.00000000000E+00 -0.45406160296E+03  0.45406160296E+03  0.00000000000E+00 0. -1.
         25    2    1    2    0    0  0.76118917993E+01  0.23721636159E+02  0.50647003761E+03  0.52226243043E+03  0.12500196125E+03 0.  0.
          2    1    1    2  501    0 -0.29797501036E+02 -0.17416686700E+02 -0.44534430600E+03  0.44667973194E+03  0.00000000000E+00 0. -1.
          1    1    1    2  502    0  0.22185609237E+02 -0.63049494591E+01  0.86685557601E+03  0.86716235118E+03  0.00000000000E+00 0. -1.
         22    1    3    3    0    0  0.77045509926E+01 -0.51491990191E+02  0.19361110692E+03  0.20048951564E+03  0.00000000000E+00 0. -1.
         22    1    3    3    0    0 -0.92659193371E-01  0.75213626350E+02  0.31285893070E+03  0.32177291479E+03  0.00000000000E+00 0. -1.
</event>
<event>
 7    1  0.6443388E-006  0.7706867E+02  0.7818608E-02  0.1463196E+00
          2   -1    0    0  502    0  0.00000000000E+00  0.00000000000E+00  0.29633662717E+04  0.29633662717E+04  0.00000000000E+00 0. -1.
          1   -1    0    0  501    0 -0.00000000000E+00 -0.00000000000E+00 -0.31279477258E+02  0.31279477258E+02  0.00000000000E+00 0. -1.
         25    2    1    2    0    0  0.33714891179E+02 -0.36971974258E+02  0.19050426211E+03  0.23328277947E+03  0.12500144219E+03 0.  0.
          2    1    1    2  501    0  0.24284171596E+02 -0.14846293481E+02  0.12357026745E+02  0.31029494521E+02  0.00000000000E+00 0. -1.
          1    1    1    2  502    0 -0.57999062775E+02  0.51818267739E+02  0.27292255056E+04  0.27303334750E+04  0.00000000000E+00 0. -1.
         22    1    3    3    0    0  0.34042207794E+02  0.42076620422E+02  0.94711357596E+02  0.10908508218E+03  0.00000000000E+00 0. -1.
         22    1    3    3    0    0 -0.32731661479E+00 -0.79048594679E+02  0.95792904512E+02  0.12419769729E+03  0.00000000000E+00 0. -1.
</event>
<event>
 7    1  0.6443388E-006  0.7435394E+02  0.7818608E-02  0.1399422E+00
          2   -1    0    0  502    0  0.00000000000E+00  0.00000000000E+00  0.78476463106E+03  0.78476463106E+03  0.00000000000E+00 0. -1.
          1   -1    0    0  501    0 -0.00000000000E+00 -0.00000000000E+00 -0.47914077050E+03  0.47914077050E+03  0.00000000000E+00 0. -1.
         25    2    1    2    0    0 -0.10478786228E+02  0.35398692212E+02 -0.11787200900E+03  0.17573109479E+03  0.12499893919E+03 0.  0.
          2    1    1    2  501    0 -0.38639097728E+01 -0.81006812197E+02 -0.32661928384E+03  0.33653705590E+03  0.00000000000E+00 0. -1.
          1    1    1    2  502    0  0.14342696000E+02  0.45608119984E+02  0.75011515339E+03  0.75163725087E+03  0.00000000000E+00 0. -1.
         22    1    3    3    0    0  0.12764470639E+02  0.19611076229E+02  0.22567270390E+02  0.32508579090E+02  0.00000000000E+00 0.  1.
         22    1    3    3    0    0 -0.23243256867E+02  0.15787615983E+02 -0.14043927939E+03  0.14322251570E+03  0.00000000000E+00 0.  1.
</event>
<event>
 7    1  0.6443388E-006  0.5892345E+02  0.7818608E-02  0.1446269E+00
          2   -1    0    0  502    0  0.00000000000E+00  0.00000000000E+00  0.98569095034E+03  0.98569095034E+03  0.00000000000E+00 0. -1.
          1   -1    0    0  501    0 -0.00000000000E+00 -0.00000000000E+00 -0.23175825052E+03  0.23175825052E+03  0.00000000000E+00 0. -1.
         25    2    1    2    0    0 -0.23113090095E+01  0.29310453941E+02  0.16540259954E+03  0.20939857731E+03  0.12500119754E+03 0.  0.
          2    1    1    2  501    0 -0.35373949289E+02 -0.48161850200E+02 -0.20493394525E+03  0.21346850358E+03  0.00000000000E+00 0. -1.
          1    1    1    2  502    0  0.37685258299E+02  0.18851396259E+02  0.79346404553E+03  0.79458211997E+03  0.00000000000E+00 0. -1.
         22    1    3    3    0    0 -0.41531227358E+02  0.76868705874E+00  0.15409033378E+03  0.15959092922E+03  0.00000000000E+00 0.  1.
         22    1    3    3    0    0  0.39219918348E+02  0.28541766882E+02  0.11312265768E+02  0.49807648096E+02  0.00000000000E+00 0.  1.
</event>
<event>
 7    1  0.6443388E-006  0.4196511E+02  0.7818608E-02  0.1551485E+00
          2   -1    0    0  502    0  0.00000000000E+00  0.00000000000E+00  0.42804486904E+02  0.42804486904E+02  0.00000000000E+00 0. -1.
          1   -1    0    0  501    0 -0.00000000000E+00 -0.00000000000E+00 -0.15248869847E+04  0.15248869847E+04  0.00000000000E+00 0. -1.
         25    2    1    2    0    0 -0.30234586182E+02 -0.61269796138E+00 -0.34955364643E+03  0.37246224846E+03  0.12500347674E+03 0.  0.
          2    1    1    2  501    0 -0.20981523484E+01  0.28578212939E+02 -0.11490438163E+04  0.11494010651E+04  0.00000000000E+00 0. -1.
          1    1    1    2  502    0  0.32332738530E+02 -0.27965514978E+02  0.16514964943E+02  0.45828158111E+02  0.00000000000E+00 0. -1.
         22    1    3    3    0    0  0.31010056753E+02 -0.99211013690E+01 -0.26839654784E+03  0.27036412255E+03  0.00000000000E+00 0.  1.
         22    1    3    3    0    0 -0.61244642935E+02  0.93084034077E+01 -0.81157098590E+02  0.10209812591E+03  0.00000000000E+00 0.  1.
</event>
<event>
 7    1  0.6443388E-006  0.1600728E+03  0.7818608E-02  0.1357413E+00
          2   -1    0    0  502    0  0.00000000000E+00  0.00000000000E+00  0.17876935049E+04  0.17876935049E+04  0.00000000000E+00 0. -1.
          1   -1    0    0  501    0 -0.00000000000E+00 -0.00000000000E+00 -0.10144626696E+04  0.10144626696E+04  0.00000000000E+00 0. -1.
         25    2    1    2    0    0  0.26964302025E+02  0.17768372712E+03  0.42148030181E+03  0.47494055509E+03  0.12499722233E+03 0.  0.
          2    1    1    2  501    0 -0.46211020346E+02 -0.15298850714E+03 -0.98108295268E+03  0.99401443740E+03  0.00000000000E+00 0. -1.
          1    1    1    2  502    0  0.19246718322E+02 -0.24695219984E+02  0.13328334861E+04  0.13332011820E+04  0.00000000000E+00 0. -1.
         22    1    3    3    0    0  0.32142504675E+02  0.16472758213E+03  0.23964893579E+03  0.29257465602E+03  0.00000000000E+00 0.  1.
         22    1    3    3    0    0 -0.51782026502E+01  0.12956144993E+02  0.18183136602E+03  0.18236589907E+03  0.00000000000E+00 0.  1.
</event>
<event>
 7    1  0.6443388E-006  0.2605668E+03  0.7818608E-02  0.1256793E+00
          2   -1    0    0  502    0  0.00000000000E+00  0.00000000000E+00  0.16373179118E+04  0.16373179118E+04  0.00000000000E+00 0. -1.
          1   -1    0    0  501    0 -0.00000000000E+00 -0.00000000000E+00 -0.88406561256E+03  0.88406561256E+03  0.00000000000E+00 0. -1.
         25    2    1    2    0    0  0.29629114491E+03 -0.41139892140E+02  0.42481977713E+03  0.53439526682E+03  0.12500209949E+03 0.  0.
          2    1    1    2  501    0 -0.25876576999E+03  0.10893939952E+02 -0.80853292455E+03  0.84900170302E+03  0.00000000000E+00 0. -1.
          1    1    1    2  502    0 -0.37525374917E+02  0.30245952188E+02  0.11369654466E+04  0.11379865545E+04  0.00000000000E+00 0. -1.
         22    1    3    3    0    0  0.11737806178E+03  0.16236648260E+02  0.84108838942E+02  0.14531185403E+03  0.00000000000E+00 0.  1.
         22    1    3    3    0    0  0.17891308313E+03 -0.57376540400E+02  0.34071093819E+03  0.38908341279E+03  0.00000000000E+00 0.  1.
</event>
<event>
 7    1  0.6443388E-006  0.1084545E+03  0.7818608E-02  0.1328501E+00
          2   -1    0    0  502    0  0.00000000000E+00  0.00000000000E+00  0.12661043077E+04  0.12661043077E+04  0.00000000000E+00 0. -1.
          1   -1    0    0  501    0 -0.00000000000E+00 -0.00000000000E+00 -0.32215142722E+03  0.32215142722E+03  0.00000000000E+00 0. -1.
         25    2    1    2    0    0  0.16933763572E+02 -0.13654422988E+03  0.72748493960E+02  0.19962037853E+03  0.12499949236E+03 0.  0.
          2    1    1    2  501    0  0.31440612043E+02  0.10224882789E+03 -0.24683826331E+03  0.26902130608E+03  0.00000000000E+00 0. -1.
          1    1    1    2  502    0 -0.48374375615E+02  0.34295401989E+02  0.11180426499E+04  0.11196140503E+04  0.00000000000E+00 0. -1.
         22    1    3    3    0    0  0.79103100539E+01 -0.87629215701E+02 -0.23682253685E+02  0.91116966528E+02  0.00000000000E+00 0. -1.
         22    1    3    3    0    0  0.90234535178E+01 -0.48915014181E+02  0.96430747644E+02  0.10850341201E+03  0.00000000000E+00 0. -1.
</event>
<event>
 7    1  0.6443388E-006  0.1740795E+03  0.7818608E-02  0.1279091E+00
          2   -1    0    0  502    0  0.00000000000E+00  0.00000000000E+00  0.20337867720E+04  0.20337867720E+04  0.00000000000E+00 0. -1.
          1   -1    0    0  501    0 -0.00000000000E+00 -0.00000000000E+00 -0.15481670344E+03  0.15481670344E+03  0.00000000000E+00 0. -1.
         25    2    1    2    0    0  0.19743215812E+03 -0.32844162727E+02  0.11276789960E+04  0.11521038494E+04  0.12500066306E+03 0.  0.
          2    1    1    2  501    0 -0.37339703378E+02  0.44522671207E+02 -0.12911078869E+03  0.14158431218E+03  0.00000000000E+00 0. -1.
          1    1    1    2  502    0 -0.16009245475E+03 -0.11678508480E+02  0.88040186129E+03  0.89491531386E+03  0.00000000000E+00 0. -1.
         22    1    3    3    0    0  0.11005080175E+02  0.27930539723E+02  0.66517374370E+02  0.72977996218E+02  0.00000000000E+00 0.  1.
         22    1    3    3    0    0  0.18642707795E+03 -0.60774702450E+02  0.10611616216E+04  0.10791258532E+04  0.00000000000E+00 0.  1.
</event>
<event>
 7    1  0.6443388E-006  0.6801638E+02  0.7818608E-02  0.1521605E+00
          2   -1    0    0  502    0  0.00000000000E+00  0.00000000000E+00  0.79674185495E+02  0.79674185495E+02  0.00000000000E+00 0. -1.
          1   -1    0    0  501    0 -0.00000000000E+00 -0.00000000000E+00 -0.10448966338E+04  0.10448966338E+04  0.00000000000E+00 0. -1.
         25    2    1    2    0    0  0.32078910595E+02 -0.74787606985E+02 -0.22344914267E+03  0.26864711551E+03  0.12497804067E+03 0.  0.
          2    1    1    2  501    0 -0.39374743899E+02  0.54568322324E+02 -0.79535222664E+03  0.79819373381E+03  0.00000000000E+00 0. -1.
          1    1    1    2  502    0  0.72958333042E+01  0.20219284661E+02  0.53578921015E+02  0.57729969971E+02  0.00000000000E+00 0. -1.
         22    1    3    3    0    0 -0.23547371627E+02  0.17513631438E+02 -0.10265571579E+03  0.10676798200E+03  0.00000000000E+00 0.  1.
         22    1    3    3    0    0  0.55626282222E+02 -0.92301238423E+02 -0.12079342688E+03  0.16187913351E+03  0.00000000000E+00 0.  1.
</event>
<event>
 7    1  0.6443388E-006  0.6538130E+02  0.7818608E-02  0.1435153E+00
          2   -1    0    0  502    0  0.00000000000E+00  0.00000000000E+00  0.27504762964E+04  0.27504762964E+04  0.00000000000E+00 0. -1.
          1   -1    0    0  501    0 -0.00000000000E+00 -0.00000000000E+00 -0.15276965057E+03  0.15276965057E+03  0.00000000000E+00 0. -1.
         25    2    1    2    0    0  0.75651654751E+02  0.68398427251E+02  0.80079765025E+02  0.18012176341E+03  0.12501825135E+03 0.  0.
          2    1    1    2  501    0 -0.38450470417E+02 -0.14967633738E+02 -0.98184894745E+02  0.10650231120E+03  0.00000000000E+00 0. -1.
          1    1    1    2  502    0 -0.37201184333E+02 -0.53430793513E+02  0.26158117756E+04  0.26166218724E+04  0.00000000000E+00 0. -1.
         22    1    3    3    0    0  0.45139573419E+02  0.62955828828E+02 -0.16056622172E+02  0.79112783970E+02  0.00000000000E+00 0. -1.
         22    1    3    3    0    0  0.30512081331E+02  0.54425984231E+01  0.96136387197E+02  0.10100897944E+03  0.00000000000E+00 0. -1.
</event>
<event>
 7    1  0.6443388E-006  0.1091568E+03  0.7818608E-02  0.1286334E+00
          2   -1    0    0  502    0  0.00000000000E+00  0.00000000000E+00  0.14839888377E+04  0.14839888377E+04  0.00000000000E+00 0. -1.
          1   -1    0    0  501    0 -0.00000000000E+00 -0.00000000000E+00 -0.92970414929E+03  0.92970414929E+03  0.00000000000E+00 0. -1.
         25    2    1    2    0    0  0.11446196041E+03  0.14195410124E+03 -0.31441157144E+03  0.38435926395E+03  0.12499960117E+03 0.  0.
          2    1    1    2  501    0 -0.77711453868E+02 -0.63624319044E+02 -0.57466801135E+03  0.58337847689E+03  0.00000000000E+00 0. -1.
          1    1    1    2  502    0 -0.36750506546E+02 -0.78329782194E+02  0.14433642712E+04  0.14459552462E+04  0.00000000000E+00 0. -1.
         22    1    3    3    0    0  0.64586998921E+02  0.34799986739E+02 -0.35634172633E+02  0.81561717526E+02  0.00000000000E+00 0. -1.
         22    1    3    3    0    0  0.49874961493E+02  0.10715411450E+03 -0.27877739880E+03  0.30279754643E+03  0.00000000000E+00 0. -1.
</event>
<event>
 7    1  0.6443388E-006  0.1035874E+03  0.7818608E-02  0.1317354E+00
          2   -1    0    0  502    0  0.00000000000E+00  0.00000000000E+00  0.19245598354E+04  0.19245598354E+04  0.00000000000E+00 0. -1.
          1   -1    0    0  501    0 -0.00000000000E+00 -0.00000000000E+00 -0.74868474603E+03  0.74868474603E+03  0.00000000000E+00 0. -1.
         25    2    1    2    0    0  0.15917199385E+03  0.46461130082E+02  0.42258496100E+01  0.20769002424E+03  0.12499171225E+03 0.  0.
          2    1    1    2  501    0 -0.10080279359E+03 -0.10507048481E+02 -0.64233198941E+03  0.65027839106E+03  0.00000000000E+00 0. -1.
          1    1    1    2  502    0 -0.58369200260E+02 -0.35954081602E+02  0.18139812291E+04  0.18152761661E+04  0.00000000000E+00 0. -1.
         22    1    3    3    0    0  0.60665799116E+02  0.25796059503E+02  0.62958392143E+02  0.91156650934E+02  0.00000000000E+00 0. -1.
         22    1    3    3    0    0  0.98506194731E+02  0.20665070579E+02 -0.58732542533E+02  0.11653337331E+03  0.00000000000E+00 0. -1.
</event>
<event>
 7    1  0.6443388E-006  0.1027869E+03  0.7818608E-02  0.1316087E+00
          2   -1    0    0  502    0  0.00000000000E+00  0.00000000000E+00  0.16655694176E+04  0.16655694176E+04  0.00000000000E+00 0. -1.
          1   -1    0    0  501    0 -0.00000000000E+00 -0.00000000000E+00 -0.47283550843E+03  0.47283550843E+03  0.00000000000E+00 0. -1.
         25    2    1    2    0    0 -0.64888860089E+01 -0.69758944946E+02  0.14756666443E+03  0.20569417345E+03  0.12500302597E+03 0.  0.
          2    1    1    2  501    0 -0.61868318746E+02  0.84259848719E+02 -0.43678103943E+03  0.44911589527E+03  0.00000000000E+00 0. -1.
          1    1    1    2  502    0  0.68357204755E+02 -0.14500903773E+02  0.14819482842E+04  0.14835948573E+04  0.00000000000E+00 0. -1.
         22    1    3    3    0    0 -0.16383029256E+02 -0.75376116898E+02  0.16655972720E+03  0.18355409385E+03  0.00000000000E+00 0.  1.
         22    1    3    3    0    0  0.98941432470E+01  0.56171719518E+01 -0.18993062770E+02  0.22140079600E+02  0.00000000000E+00 0.  1.
</event>
<event>
 7    1  0.6443388E-006  0.7841327E+02  0.7818608E-02  0.1421106E+00
          2   -1    0    0  502    0  0.00000000000E+00  0.00000000000E+00  0.29685745563E+04  0.29685745563E+04  0.00000000000E+00 0. -1.
          1   -1    0    0  501    0 -0.00000000000E+00 -0.00000000000E+00 -0.50912037959E+02  0.50912037959E+02  0.00000000000E+00 0. -1.
         25    2    1    2    0    0 -0.99205452792E+02  0.32342148509E+01  0.43419464725E+03  0.46260385665E+03  0.12500061791E+03 0.  0.
          2    1    1    2  501    0  0.71225729247E+02 -0.29358998770E+02  0.40250035227E+01  0.77144383910E+02  0.00000000000E+00 0. -1.
          1    1    1    2  502    0  0.27979723545E+02  0.26124783919E+02  0.24794428675E+04  0.24797383537E+04  0.00000000000E+00 0. -1.
         22    1    3    3    0    0 -0.87338982494E+02 -0.52556226944E+02  0.25797534611E+03  0.27738337018E+03  0.00000000000E+00 0.  1.
         22    1    3    3    0    0 -0.11866470297E+02  0.55790441795E+02  0.17621930114E+03  0.18522048646E+03  0.00000000000E+00 0.  1.
</event>
<event>
 7    1  0.6443388E-006  0.7230235E+02  0.7818608E-02  0.1450442E+00
          2   -1    0    0  502    0  0.00000000000E+00  0.00000000000E+00  0.12558643256E+03  0.12558643256E+03  0.00000000000E+00 0. -1.
          1   -1    0    0  501    0 -0.00000000000E+00 -0.00000000000E+00 -0.97867290937E+03  0.97867290937E+03  0.00000000000E+00 0. -1.
         25    2    1    2    0    0  0.34862984705E+02  0.78677525027E+02 -0.22086472142E+02  0.15335635417E+03  0.12499911387E+03 0.  0.
          2    1    1    2  501    0 -0.32183768441E+02 -0.85420038380E+01 -0.86998096561E+03  0.87061796519E+03  0.00000000000E+00 0. -1.
          1    1    1    2  502    0 -0.26792162637E+01 -0.70135521189E+02  0.38980960951E+02  0.80285022569E+02  0.00000000000E+00 0. -1.
         22    1    3    3    0    0 -0.69591431847E+01  0.11386737799E+02 -0.62853643531E+02  0.64254711709E+02  0.00000000000E+00 0.  1.
         22    1    3    3    0    0  0.41822127890E+02  0.67290787228E+02  0.40767171390E+02  0.89101642466E+02  0.00000000000E+00 0.  1.
</event>
<event>
 7    1  0.6443388E-006  0.7584108E+02  0.7818608E-02  0.1425400E+00
          2   -1    0    0  502    0  0.00000000000E+00  0.00000000000E+00  0.16148119615E+04  0.16148119615E+04  0.00000000000E+00 0. -1.
          1   -1    0    0  501    0 -0.00000000000E+00 -0.00000000000E+00 -0.11490056553E+03  0.11490056553E+03  0.00000000000E+00 0. -1.
         25    2    1    2    0    0 -0.77820632489E+02  0.23287266810E+02  0.27123744708E+03  0.30950432858E+03  0.12499931630E+03 0.  0.
          2    1    1    2  501    0  0.32445926645E+01 -0.38161232875E+02 -0.90798987325E+02  0.98545741539E+02  0.00000000000E+00 0. -1.
          1    1    1    2  502    0  0.74576039824E+02  0.14873966065E+02  0.13194729362E+04  0.13216624569E+04  0.00000000000E+00 0. -1.
         22    1    3    3    0    0 -0.69336695142E+02  0.50341306825E+02  0.83512054627E+02  0.11964985472E+03  0.00000000000E+00 0.  1.
         22    1    3    3    0    0 -0.84839373470E+01 -0.27054040015E+02  0.18772539245E+03  0.18985447386E+03  0.00000000000E+00 0.  1.
</event>
<event>
 7    1  0.6443388E-006  0.6801224E+02  0.7818608E-02  0.1444703E+00
          2   -1    0    0  502    0  0.00000000000E+00  0.00000000000E+00  0.11157122904E+04  0.11157122904E+04  0.00000000000E+00 0. -1.
          1   -1    0    0  501    0 -0.00000000000E+00 -0.00000000000E+00 -0.19247785100E+02  0.19247785100E+02  0.00000000000E+00 0. -1.
         25    2    1    2    0    0 -0.55970507754E+02  0.15168973799E+02  0.59176926105E+03  0.60760072583E+03  0.12499995281E+03 0.  0.
          2    1    1    2  501    0  0.49568899138E+02 -0.51542539771E+02  0.11168075689E+03  0.13261335011E+03  0.00000000000E+00 0. -1.
          1    1    1    2  502    0  0.64016086164E+01  0.36373565972E+02  0.39301448736E+03  0.39474599956E+03  0.00000000000E+00 0. -1.
         22    1    3    3    0    0 -0.50477048802E+02 -0.50790040924E+02  0.30907169058E+03  0.31725836574E+03  0.00000000000E+00 0.  1.
         22    1    3    3    0    0 -0.54934589528E+01  0.65959014722E+02  0.28269757047E+03  0.29034236009E+03  0.00000000000E+00 0.  1.
</event>
<event>
 7    1  0.6443388E-006  0.8203119E+02  0.7818608E-02  0.1355969E+00
          2   -1    0    0  502    0  0.00000000000E+00  0.00000000000E+00  0.36641620781E+03  0.36641620781E+03  0.00000000000E+00 0. -1.
          1   -1    0    0  501    0 -0.00000000000E+00 -0.00000000000E+00 -0.22502039499E+04  0.22502039499E+04  0.00000000000E+00 0. -1.
         25    2    1    2    0    0  0.65748225397E+02  0.46722546056E+02 -0.71766234058E+01  0.14893823471E+03  0.12500107352E+03 0.  0.
          2    1    1    2  501    0  0.17045443358E+02 -0.59450747550E+02 -0.21657605411E+04  0.21666434085E+04  0.00000000000E+00 0. -1.
          1    1    1    2  502    0 -0.82793668755E+02  0.12728201494E+02  0.28914942240E+03  0.30103851444E+03  0.00000000000E+00 0. -1.
         22    1    3    3    0    0  0.93991224081E+02  0.44770849796E+02 -0.34416801916E+02  0.10965078864E+03  0.00000000000E+00 0.  1.
         22    1    3    3    0    0 -0.28242998684E+02  0.19516962599E+01  0.27240178510E+02  0.39287446064E+02  0.00000000000E+00 0.  1.
</event>
<event>
 7    1  0.6443388E-006  0.2609322E+02  0.7818608E-02  0.1648175E+00
          2   -1    0    0  502    0  0.00000000000E+00  0.00000000000E+00  0.11127922695E+03  0.11127922695E+03  0.00000000000E+00 0. -1.
          1   -1    0    0  501    0 -0.00000000000E+00 -0.00000000000E+00 -0.23431189761E+04  0.23431189761E+04  0.00000000000E+00 0. -1.
         25    2    1    2    0    0 -0.17846051225E+02 -0.25762594295E+02 -0.13995639556E+04  0.14054844796E+04  0.12500065474E+03 0.  0.
          2    1    1    2  501    0  0.26437024090E+02  0.14973687049E+01 -0.93887616058E+03  0.93924948936E+03  0.00000000000E+00 0. -1.
          1    1    1    2  502    0 -0.85909728651E+01  0.24265225590E+02  0.10660036704E+03  0.10966423410E+03  0.00000000000E+00 0. -1.
         22    1    3    3    0    0 -0.37324270421E+02 -0.60596078659E+02 -0.11917428159E+04  0.11938659577E+04  0.00000000000E+00 0.  1.
         22    1    3    3    0    0  0.19478219196E+02  0.34833484364E+02 -0.20782113978E+03  0.21161852186E+03  0.00000000000E+00 0.  1.
</event>
<event>
 7    1  0.6443388E-006  0.1114473E+03  0.7818608E-02  0.1412871E+00
          2   -1    0    0  502    0  0.00000000000E+00  0.00000000000E+00  0.22200039773E+04  0.22200039773E+04  0.00000000000E+00 0. -1.
          1   -1    0    0  501    0 -0.00000000000E+00 -0.00000000000E+00 -0.61823982742E+02  0.61823982742E+02  0.00000000000E+00 0. -1.
         25    2    1    2    0    0 -0.12628728259E+03 -0.51429773170E+02  0.58779966953E+03  0.61621986887E+03  0.12499990390E+03 0.  0.
          2    1    1    2  501    0  0.10342333138E+03  0.34078340100E+02  0.14951904107E+02  0.10991486785E+03  0.00000000000E+00 0. -1.
          1    1    1    2  502    0  0.22863951214E+02  0.17351433069E+02  0.15554284209E+04  0.15556932233E+04  0.00000000000E+00 0. -1.
         22    1    3    3    0    0 -0.72114442537E+01 -0.57791676542E+02  0.11893381530E+03  0.13242784914E+03  0.00000000000E+00 0. -1.
         22    1    3    3    0    0 -0.11907583834E+03  0.63619033725E+01  0.46886585423E+03  0.48379201973E+03  0.00000000000E+00 0. -1.
</event>
<event>
 7    1  0.6443388E-006  0.9039804E+02  0.7818608E-02  0.1381420E+00
          2   -1    0    0  502    0  0.00000000000E+00  0.00000000000E+00  0.69954443832E+03  0.69954443832E+03  0.00000000000E+00 0. -1.
          1   -1    0    0  501    0 -0.00000000000E+00 -0.00000000000E+00 -0.61385668990E+03  0.61385668990E+03  0.00000000000E+00 0. -1.
         25    2    1    2    0    0 -0.27405204459E+02 -0.40373647408E+02 -0.50028005096E+02  0.14320806336E+03  0.12499868592E+03 0.  0.
          2    1    1    2  501    0  0.53192457227E+02  0.77788936505E+02 -0.51214391671E+03  0.52074172828E+03  0.00000000000E+00 0. -1.
          1    1    1    2  502    0 -0.25787252768E+02 -0.37415289098E+02  0.64785967024E+03  0.64945133658E+03  0.00000000000E+00 0. -1.
         22    1    3    3    0    0 -0.74181503054E+02 -0.51587581968E+01 -0.18155415752E+02  0.76544936492E+02  0.00000000000E+00 0. -1.
         22    1    3    3    0    0  0.46776298596E+02 -0.35214889211E+02 -0.31872589344E+02  0.66663126869E+02  0.00000000000E+00 0. -1.
</event>
<event>
 7    1  0.6443388E-006  0.5755711E+02  0.7818608E-02  0.1521937E+00
          2   -1    0    0  502    0  0.00000000000E+00  0.00000000000E+00  0.56715038472E+02  0.56715038472E+02  0.00000000000E+00 0. -1.
          1   -1    0    0  501    0 -0.00000000000E+00 -0.00000000000E+00 -0.54023982622E+03  0.54023982622E+03  0.00000000000E+00 0. -1.
         25    2    1    2    0    0 -0.50078458680E+02 -0.53837111980E+02 -0.28047766951E+03  0.31575143634E+03  0.12499983922E+03 0.  0.
          2    1    1    2  501    0  0.11415827554E+01  0.25319420685E+02 -0.22048735030E+03  0.22193928881E+03  0.00000000000E+00 0. -1.
          1    1    1    2  502    0  0.48936875924E+02  0.28517691295E+02  0.17440232061E+02  0.59264139548E+02  0.00000000000E+00 0. -1.
         22    1    3    3    0    0 -0.81601140349E+01 -0.62747723361E+02 -0.48172430253E+02  0.79526393635E+02  0.00000000000E+00 0.  1.
         22    1    3    3    0    0 -0.41918344645E+02  0.89106113803E+01 -0.23230523926E+03  0.23622504270E+03  0.00000000000E+00 0.  1.
</event>
<event>
 7    1  0.6443388E-006  0.2000933E+03  0.7818608E-02  0.1344055E+00
          2   -1    0    0  502    0  0.00000000000E+00  0.00000000000E+00  0.93346867168E+03  0.93346867168E+03  0.00000000000E+00 0. -1.
          1   -1    0    0  501    0 -0.00000000000E+00 -0.00000000000E+00 -0.69375184547E+03  0.69375184547E+03  0.00000000000E+00 0. -1.
         25    2    1    2    0    0 -0.18923320928E+03 -0.94371006122E+02 -0.11365227831E+03  0.27066024172E+03  0.12500012716E+03 0.  0.
          2    1    1    2  501    0  0.16504267009E+03  0.10860462504E+03 -0.48189577838E+03  0.52082395178E+03  0.00000000000E+00 0. -1.
          1    1    1    2  502    0  0.24190539190E+02 -0.14233618915E+02  0.83526488289E+03  0.83573632366E+03  0.00000000000E+00 0. -1.
         22    1    3    3    0    0 -0.37732735790E+02 -0.44958511627E+02  0.20688904146E+02  0.62233896492E+02  0.00000000000E+00 0.  1.
         22    1    3    3    0    0 -0.15150047349E+03 -0.49412494496E+02 -0.13434118245E+03  0.20842634522E+03  0.00000000000E+00 0.  1.
</event>
<event>
 7    1  0.6862109E-006  0.9956158E+02  0.7818608E-02  0.1328000E+00
          2   -1    0    0  502    0  0.00000000000E+00  0.00000000000E+00  0.23991883258E+04  0.23991883258E+04  0.00000000000E+00 0. -1.
          1   -1    0    0  501    0 -0.00000000000E+00 -0.00000000000E+00 -0.80548265090E+03  0.80548265090E+03  0.00000000000E+00 0. -1.
         25    2    1    2    0    0 -0.99386718884E+02  0.50436192867E+02  0.86373503384E+01  0.16769384031E+03  0.12500036326E+03 0.  0.
          2    1    1    2  501    0  0.98813282383E+02  0.14441875395E+02 -0.72206187998E+03  0.72893483320E+03  0.00000000000E+00 0. -1.
          1    1    1    2  502    0  0.57343650097E+00 -0.64878068261E+02  0.23071302046E+04  0.23080423032E+04  0.00000000000E+00 0. -1.
         22    1    3    3    0    0 -0.36754637329E+02  0.83020479101E+02 -0.17399290783E+02  0.92444786955E+02  0.00000000000E+00 0. -1.
         22    1    3    3    0    0 -0.62632081556E+02 -0.32584286235E+02  0.26036641121E+02  0.75249053351E+02  0.00000000000E+00 0. -1.
</event>
<event>
 7    1  0.6443388E-006  0.7723372E+02  0.7818608E-02  0.1397049E+00
          2   -1    0    0  502    0  0.00000000000E+00  0.00000000000E+00  0.60924048017E+03  0.60924048017E+03  0.00000000000E+00 0. -1.
          1   -1    0    0  501    0 -0.00000000000E+00 -0.00000000000E+00 -0.52593476173E+02  0.52593476173E+02  0.00000000000E+00 0. -1.
         25    2    1    2    0    0  0.74852180590E+02 -0.55543246292E+01  0.13445188774E+03  0.19833348789E+03  0.12500065137E+03 0.  0.
          2    1    1    2  501    0 -0.72158469560E+01  0.46344225587E+02  0.15786843806E+02  0.49488181719E+02  0.00000000000E+00 0. -1.
          1    1    1    2  502    0 -0.67636333634E+02 -0.40789900957E+02  0.40640827245E+03  0.41401228672E+03  0.00000000000E+00 0. -1.
         22    1    3    3    0    0 -0.30883696760E+02  0.19748246173E+02  0.40675407320E+02  0.54756595156E+02  0.00000000000E+00 0. -1.
         22    1    3    3    0    0  0.10573587735E+03 -0.25302570802E+02  0.93776480421E+02  0.14357689274E+03  0.00000000000E+00 0. -1.
</event>
<event>
 7    1  0.6443388E-006  0.1228038E+03  0.7818608E-02  0.1245631E+00
          2   -1    0    0  502    0  0.00000000000E+00  0.00000000000E+00  0.29145537125E+03  0.29145537125E+03  0.00000000000E+00 0. -1.
          1   -1    0    0  501    0 -0.00000000000E+00 -0.00000000000E+00 -0.10055133793E+04  0.10055133793E+04  0.00000000000E+00 0. -1.
         25    2    1    2    0    0 -0.88047462778E+02  0.33724571661E+02 -0.10306179624E+03  0.18745000401E+03  0.12500427082E+03 0.  0.
          2    1    1    2  501    0  0.24772918659E+02 -0.12891552464E+03 -0.84179359675E+03  0.85196793926E+03  0.00000000000E+00 0. -1.
          1    1    1    2  502    0  0.63274544119E+02  0.95190952976E+02  0.23079738492E+03  0.25755080731E+03  0.00000000000E+00 0. -1.
         22    1    3    3    0    0 -0.51003128246E+02 -0.64536192540E+00  0.19711800932E+02  0.54683550350E+02  0.00000000000E+00 0.  1.
         22    1    3    3    0    0 -0.37044334531E+02  0.34369933587E+02 -0.12277359717E+03  0.13276645366E+03  0.00000000000E+00 0.  1.
</event>
<event>
 7    1  0.6443388E-006  0.4858447E+02  0.7818608E-02  0.1468366E+00
          2   -1    0    0  502    0  0.00000000000E+00  0.00000000000E+00  0.18946864837E+04  0.18946864837E+04  0.00000000000E+00 0. -1.
          1   -1    0    0  501    0 -0.00000000000E+00 -0.00000000000E+00 -0.31576507002E+02  0.31576507002E+02  0.00000000000E+00 0. -1.
         25    2    1    2    0    0  0.43310458989E+02  0.19397228289E+02  0.23943363112E+03  0.27423613625E+03  0.12499978558E+03 0.  0.
          2    1    1    2  501    0 -0.62591019098E+00 -0.43494646426E+02  0.20476195257E+02  0.48077547811E+02  0.00000000000E+00 0. -1.
          1    1    1    2  502    0 -0.42684548798E+02  0.24097418138E+02  0.16032001504E+04  0.16039493067E+04  0.00000000000E+00 0. -1.
         22    1    3    3    0    0  0.13386952399E+02  0.70263838493E+02  0.16016722761E+03  0.17541310753E+03  0.00000000000E+00 0. -1.
         22    1    3    3    0    0  0.29923506590E+02 -0.50866610204E+02  0.79266403508E+02  0.98823028720E+02  0.00000000000E+00 0. -1.
</event>
<event>
 7    1  0.6443388E-006  0.4597826E+02  0.7818608E-02  0.1517014E+00
          2   -1    0    0  502    0  0.00000000000E+00  0.00000000000E+00  0.22358597245E+03  0.22358597245E+03  0.00000000000E+00 0. -1.
          1   -1    0    0  501    0 -0.00000000000E+00 -0.00000000000E+00 -0.21566042932E+03  0.21566042932E+03  0.00000000000E+00 0. -1.
         25    2    1    2    0    0  0.74632470423E+01  0.35128420169E+02  0.98350386636E+02  0.16306854024E+03  0.12501537628E+03 0.  0.
          2    1    1    2  501    0  0.25087750087E+02 -0.39083423677E+02 -0.17732032811E+03  0.18330141290E+03  0.00000000000E+00 0. -1.
          1    1    1    2  502    0 -0.32550997129E+02  0.39550035087E+01  0.86895484597E+02  0.92876448630E+02  0.00000000000E+00 0. -1.
         22    1    3    3    0    0  0.39597102293E+02  0.69377853606E+02  0.78767772352E+02  0.11218546716E+03  0.00000000000E+00 0.  1.
         22    1    3    3    0    0 -0.32133855251E+02 -0.34249433438E+02  0.19582614284E+02  0.50883073082E+02  0.00000000000E+00 0.  1.
</event>
<event>
 7    1  0.6443388E-006  0.3268597E+03  0.7818608E-02  0.1138393E+00
          2   -1    0    0  502    0  0.00000000000E+00  0.00000000000E+00  0.79132786187E+03  0.79132786187E+03  0.00000000000E+00 0. -1.
          1   -1    0    0  501    0 -0.00000000000E+00 -0.00000000000E+00 -0.65671315163E+03  0.65671315163E+03  0.00000000000E+00 0. -1.
         25    2    1    2    0    0  0.23508060958E+03 -0.29596542742E+03 -0.28909628854E+02  0.39914840138E+03  0.12500100982E+03 0.  0.
          2    1    1    2  501    0 -0.95028772273E+02  0.30205386890E+03 -0.37593176175E+03  0.49151978268E+03  0.00000000000E+00 0. -1.
          1    1    1    2  502    0 -0.14005183731E+03 -0.60884414776E+01  0.53945610085E+03  0.55737282943E+03  0.00000000000E+00 0. -1.
         22    1    3    3    0    0  0.14292358123E+03 -0.24598306998E+03  0.16344464535E+02  0.28495958013E+03  0.00000000000E+00 0. -1.
         22    1    3    3    0    0  0.92157028354E+02 -0.49982357440E+02 -0.45254093388E+02  0.11418882125E+03  0.00000000000E+00 0. -1.
</event>
<event>
 7    1  0.6443388E-006  0.1073378E+03  0.7818608E-02  0.1405976E+00
          2   -1    0    0  502    0  0.00000000000E+00  0.00000000000E+00  0.42388145588E+03  0.42388145588E+03  0.00000000000E+00 0. -1.
          1   -1    0    0  501    0 -0.00000000000E+00 -0.00000000000E+00 -0.12466690873E+04  0.12466690873E+04  0.00000000000E+00 0. -1.
         25    2    1    2    0    0 -0.18321942678E+01 -0.85553562487E+02 -0.37183837629E+03  0.40151223733E+03  0.12500211860E+03 0.  0.
          2    1    1    2  501    0 -0.25233248778E+02 -0.18772130918E+02 -0.85259910638E+03  0.85317896478E+03  0.00000000000E+00 0. -1.
          1    1    1    2  502    0  0.27065443045E+02  0.10432569340E+03  0.40164985127E+03  0.41585934105E+03  0.00000000000E+00 0. -1.
         22    1    3    3    0    0 -0.33230210352E+02 -0.66079204007E+02 -0.86583385809E+02  0.11387445183E+03  0.00000000000E+00 0.  1.
         22    1    3    3    0    0  0.31398016084E+02 -0.19474358481E+02 -0.28525499048E+03  0.28763778550E+03  0.00000000000E+00 0.  1.
</event>
<event>
 7    1  0.6443388E-006  0.1616068E+03  0.7818608E-02  0.1193066E+00
          2   -1    0    0  502    0  0.00000000000E+00  0.00000000000E+00  0.16907124878E+04  0.16907124878E+04  0.00000000000E+00 0. -1.
          1   -1    0    0  501    0 -0.00000000000E+00 -0.00000000000E+00 -0.26334327058E+03  0.26334327058E+03  0.00000000000E+00 0. -1.
         25    2    1    2    0    0 -0.46240510534E+02  0.23714179447E+02 -0.14912322638E+03  0.20140709962E+03  0.12500614389E+03 0.  0.
          2    1    1    2  501    0  0.53571137573E+02  0.14113054530E+03 -0.15844318845E+02  0.15178517726E+03  0.00000000000E+00 0. -1.
          1    1    1    2  502    0 -0.73306270396E+01 -0.16484472474E+03  0.15923367624E+04  0.16008634815E+04  0.00000000000E+00 0. -1.
         22    1    3    3    0    0 -0.15589920875E+02  0.50735016532E+02 -0.15144923819E+03  0.16048040156E+03  0.00000000000E+00 0.  1.
         22    1    3    3    0    0 -0.30650589659E+02 -0.27020837085E+02  0.23260118127E+01  0.40926698061E+02  0.00000000000E+00 0.  1.
</event>
<event>
 7    1  0.6443388E-006  0.7761624E+02  0.7818608E-02  0.1504848E+00
          2   -1    0    0  502    0  0.00000000000E+00  0.00000000000E+00  0.11979771619E+04  0.11979771619E+04  0.00000000000E+00 0. -1.
          1   -1    0    0  501    0 -0.00000000000E+00 -0.00000000000E+00 -0.10558418276E+03  0.10558418276E+03  0.00000000000E+00 0. -1.
         25    2    1    2    0    0 -0.70595634338E+02 -0.66188222097E+02  0.20717485310E+03  0.26060313942E+03  0.12501180819E+03 0.  0.
          2    1    1    2  501    0  0.11272925589E+02  0.17826666864E+02 -0.75910844708E+02  0.78786580375E+02  0.00000000000E+00 0. -1.
          1    1    1    2  502    0  0.59322708750E+02  0.48361555233E+02  0.96112897072E+03  0.96417162484E+03  0.00000000000E+00 0. -1.
         22    1    3    3    0    0 -0.20850400807E+02 -0.30996010548E+02 -0.69320032030E+01  0.37994006792E+02  0.00000000000E+00 0.  1.
         22    1    3    3    0    0 -0.49745233532E+02 -0.35192211549E+02  0.21410685631E+03  0.22260913263E+03  0.00000000000E+00 0.  1.
</event>
<event>
 7    1  0.6443388E-006  0.1078207E+03  0.7818608E-02  0.1320693E+00
          2   -1    0    0  502    0  0.00000000000E+00  0.00000000000E+00  0.26558616884E+04  0.26558616884E+04  0.00000000000E+00 0. -1.
          1   -1    0    0  501    0 -0.00000000000E+00 -0.00000000000E+00 -0.29148393241E+03  0.29148393241E+03  0.00000000000E+00 0. -1.
         25    2    1    2    0    0  0.13876778942E+03  0.68568556132E+02  0.94758767405E+01  0.19917937594E+03  0.12499794114E+03 0.  0.
          2    1    1    2  501    0 -0.74860453034E+02 -0.70024461116E+02 -0.18284294634E+03  0.20961644881E+03  0.00000000000E+00 0. -1.
          1    1    1    2  502    0 -0.63907336387E+02  0.14559049844E+01  0.25377448256E+04  0.25385497961E+04  0.00000000000E+00 0. -1.
         22    1    3    3    0    0  0.33086312851E+02 -0.34453148848E+02 -0.13908042961E+02  0.49750951977E+02  0.00000000000E+00 0.  1.
         22    1    3    3    0    0  0.10568147657E+03  0.10302170498E+03  0.23383919702E+02  0.14942842396E+03  0.00000000000E+00 0.  1.
</event>
<event>
 7    1  0.6443388E-006  0.1322764E+03  0.7818608E-02  0.1384434E+00
          2   -1    0    0  502    0  0.00000000000E+00  0.00000000000E+00  0.18371917774E+03  0.18371917774E+03  0.00000000000E+00 0. -1.
          1   -1    0    0  501    0 -0.00000000000E+00 -0.00000000000E+00 -0.11440118920E+04  0.11440118920E+04  0.00000000000E+00 0. -1.
         25    2    1    2    0    0 -0.12924462213E+03 -0.67578314242E+02 -0.89958898658E+03  0.91986752948E+03  0.12499970438E+03 0.  0.
          2    1    1    2  501    0  0.26317441275E+02 -0.15023727242E+02 -0.20794050535E+03  0.21013703590E+03  0.00000000000E+00 0. -1.
          1    1    1    2  502    0  0.10292718086E+03  0.82602041484E+02  0.14723677768E+03  0.19772650434E+03  0.00000000000E+00 0. -1.
         22    1    3    3    0    0  0.10383714759E+02 -0.26927138416E+02 -0.35580665111E+03  0.35697516061E+03  0.00000000000E+00 0. -1.
         22    1    3    3    0    0 -0.13962833689E+03 -0.40651175826E+02 -0.54378233547E+03  0.56289236887E+03  0.00000000000E+00 0. -1.
</event>
<event>
 7    1  0.6443388E-006  0.1748203E+03  0.7818608E-02  0.1239653E+00
          2   -1    0    0  502    0  0.00000000000E+00  0.00000000000E+00  0.41286920150E+03  0.41286920150E+03  0.00000000000E+00 0. -1.
          1   -1    0    0  501    0 -0.00000000000E+00 -0.00000000000E+00 -0.12354056716E+04  0.12354056716E+04  0.00000000000E+00 0. -1.
         25    2    1    2    0    0 -0.16599152038E+03 -0.10371333564E+03 -0.25422987858E+02  0.23362363111E+03  0.12499612744E+03 0.  0.
          2    1    1    2  501    0  0.92990812320E+02  0.14782808086E+03 -0.10929237423E+04  0.11067893833E+04  0.00000000000E+00 0. -1.
          1    1    1    2  502    0  0.73000708061E+02 -0.44114745227E+02  0.29581025999E+03  0.30786185869E+03  0.00000000000E+00 0. -1.
         22    1    3    3    0    0 -0.37667267081E+01  0.23847776241E+02 -0.11614536139E+02  0.26791829192E+02  0.00000000000E+00 0. -1.
         22    1    3    3    0    0 -0.16222479367E+03 -0.12756111188E+03 -0.13808451720E+02  0.20683180192E+03  0.00000000000E+00 0. -1.
</event>
<event>
 7    1  0.6443388E-006  0.4786903E+02  0.7818608E-02  0.1465266E+00
          2   -1    0    0  502    0  0.00000000000E+00  0.00000000000E+00  0.17636556263E+04  0.17636556263E+04  0.00000000000E+00 0. -1.
          1   -1    0    0  501    0 -0.00000000000E+00 -0.00000000000E+00 -0.72921981391E+03  0.72921981391E+03  0.00000000000E+00 0. -1.
         25    2    1    2    0    0  0.73269572756E+02  0.55656943850E+02  0.22326148437E+03  0.27191297487E+03  0.12499939923E+03 0.  0.
          2    1    1    2  501    0 -0.38205473674E+02 -0.24050372359E+02 -0.70380320997E+03  0.70524962743E+03  0.00000000000E+00 0. -1.
          1    1    1    2  502    0 -0.35064099083E+02 -0.31606571491E+02  0.15149775379E+04  0.15157128379E+04  0.00000000000E+00 0. -1.
         22    1    3    3    0    0  0.99701636886E+02  0.64689284486E+02  0.20928947947E+03  0.24068071411E+03  0.00000000000E+00 0.  1.
         22    1    3    3    0    0 -0.26432064130E+02 -0.90323406364E+01  0.13972004903E+02  0.31232260766E+02  0.00000000000E+00 0.  1.
</event>
<event>
 7    1  0.6443388E-006  0.3916727E+02  0.7818608E-02  0.1534721E+00
          2   -1    0    0  502    0  0.00000000000E+00  0.00000000000E+00  0.74995706200E+03  0.74995706200E+03  0.00000000000E+00 0. -1.
          1   -1    0    0  501    0 -0.00000000000E+00 -0.00000000000E+00 -0.70478331040E+02  0.70478331040E+02  0.00000000000E+00 0. -1.
         25    2    1    2    0    0 -0.76586756364E+00  0.13064580028E+02  0.86291382282E+02  0.15245584066E+03  0.12500124355E+03 0.  0.
          2    1    1    2  501    0 -0.33458894955E+02  0.72082608160E+01 -0.28793987488E+02  0.44727512686E+02  0.00000000000E+00 0. -1.
          1    1    1    2  502    0  0.34224762519E+02 -0.20272840844E+02  0.62198133617E+03  0.62325203970E+03  0.00000000000E+00 0. -1.
         22    1    3    3    0    0  0.45866311614E+02 -0.14593579242E+02  0.85634720560E+02  0.98234395512E+02  0.00000000000E+00 0. -1.
         22    1    3    3    0    0 -0.46632179178E+02  0.27658159271E+02  0.65666172212E+00  0.54221445146E+02  0.00000000000E+00 0. -1.
</event>
<event>
 7    1  0.6443388E-006  0.5076068E+02  0.7818608E-02  0.1454762E+00
          2   -1    0    0  502    0  0.00000000000E+00  0.00000000000E+00  0.81446203668E+03  0.81446203668E+03  0.00000000000E+00 0. -1.
          1   -1    0    0  501    0 -0.00000000000E+00 -0.00000000000E+00 -0.79912302680E+02  0.79912302680E+02  0.00000000000E+00 0. -1.
         25    2    1    2    0    0  0.17273754598E+02  0.37557915247E+02  0.50622979539E+03  0.52307087196E+03  0.12500220699E+03 0.  0.
          2    1    1    2  501    0  0.35619639037E+02 -0.36164735654E+02 -0.59757766365E+02  0.78406871070E+02  0.00000000000E+00 0. -1.
          1    1    1    2  502    0 -0.52893393635E+02 -0.13931795926E+01  0.28807770497E+03  0.29289659633E+03  0.00000000000E+00 0. -1.
         22    1    3    3    0    0  0.54190507554E+02 -0.20406787440E+02  0.30449271209E+03  0.30994976980E+03  0.00000000000E+00 0. -1.
         22    1    3    3    0    0 -0.36916752956E+02  0.57964702687E+02  0.20173708330E+03  0.21312110216E+03  0.00000000000E+00 0. -1.
</event>
<event>
 7    1  0.6443388E-006  0.5705370E+02  0.7818608E-02  0.1527395E+00
          2   -1    0    0  502    0  0.00000000000E+00  0.00000000000E+00  0.79701930221E+03  0.79701930221E+03  0.00000000000E+00 0. -1.
          1   -1    0    0  501    0 -0.00000000000E+00 -0.00000000000E+00 -0.63396271858E+03  0.63396271858E+03  0.00000000000E+00 0. -1.
         25    2    1    2    0    0 -0.37291202091E+01  0.32949798863E+02  0.13277167376E+02  0.13000167292E+03  0.12499822481E+03 0.  0.
          2    1    1    2  501    0 -0.76885776984E+01  0.23428854871E+02 -0.57419503397E+03  0.57472424910E+03  0.00000000000E+00 0. -1.
          1    1    1    2  502    0  0.11417697907E+02 -0.56378653734E+02  0.72397445022E+03  0.72625609877E+03  0.00000000000E+00 0. -1.
         22    1    3    3    0    0  0.41953124537E+02 -0.24808651527E+02  0.26046170487E+02  0.55262436121E+02  0.00000000000E+00 0.  1.
         22    1    3    3    0    0 -0.45682244746E+02  0.57758450390E+02 -0.12769003111E+02  0.74739236797E+02  0.00000000000E+00 0.  1.
</event>
<event>
 7    1  0.6443388E-006  0.1086021E+03  0.7818608E-02  0.1299483E+00
          2   -1    0    0  502    0  0.00000000000E+00  0.00000000000E+00  0.11365138376E+04  0.11365138376E+04  0.00000000000E+00 0. -1.
          1   -1    0    0  501    0 -0.00000000000E+00 -0.00000000000E+00 -0.23197568513E+03  0.23197568513E+03  0.00000000000E+00 0. -1.
         25    2    1    2    0    0 -0.32732419463E+02 -0.32277568563E+02  0.17807629820E+03  0.22237385498E+03  0.12500284269E+03 0.  0.
          2    1    1    2  501    0 -0.24947118024E+02 -0.72774987250E+02 -0.19877813873E+03  0.21314620781E+03  0.00000000000E+00 0. -1.
          1    1    1    2  502    0  0.57679537487E+02  0.10505255581E+03  0.92523999299E+03  0.93296945993E+03  0.00000000000E+00 0. -1.
         22    1    3    3    0    0 -0.85157677487E+01 -0.14461513795E+02  0.18947831612E+03  0.19022009874E+03  0.00000000000E+00 0. -1.
         22    1    3    3    0    0 -0.24216651714E+02 -0.17816054768E+02 -0.11402017924E+02  0.32153756243E+02  0.00000000000E+00 0. -1.
</event>
<event>
 7    1  0.6443388E-006  0.1173392E+03  0.7818608E-02  0.1335150E+00
          2   -1    0    0  502    0  0.00000000000E+00  0.00000000000E+00  0.36025027751E+04  0.36025027751E+04  0.00000000000E+00 0. -1.
          1   -1    0    0  501    0 -0.00000000000E+00 -0.00000000000E+00 -0.21319118192E+04  0.21319118192E+04  0.00000000000E+00 0. -1.
         25    2    1    2    0    0 -0.61518726760E+01 -0.72727493917E+02  0.13997849460E+03  0.20136058668E+03  0.12499989204E+03 0.  0.
          2    1    1    2  501    0  0.41880694233E+02  0.11009893558E+03 -0.20993748753E+04  0.21026770164E+04  0.00000000000E+00 0. -1.
          1    1    1    2  502    0 -0.35728821557E+02 -0.37371441663E+02  0.34299873366E+04  0.34303769913E+04  0.00000000000E+00 0. -1.
         22    1    3    3    0    0  0.41325869597E+00 -0.29040518155E+02  0.15266059087E+03  0.15539877246E+03  0.00000000000E+00 0. -1.
         22    1    3    3    0    0 -0.65651313720E+01 -0.43686975762E+02 -0.12682096265E+02  0.45961814225E+02  0.00000000000E+00 0. -1.
</event>
<event>
 7    1  0.6443388E-006  0.9853728E+02  0.7818608E-02  0.1403093E+00
          2   -1    0    0  502    0  0.00000000000E+00  0.00000000000E+00  0.50455499844E+03  0.50455499844E+03  0.00000000000E+00 0. -1.
          1   -1    0    0  501    0 -0.00000000000E+00 -0.00000000000E+00 -0.10730216389E+03  0.10730216389E+03  0.00000000000E+00 0. -1.
         25    2    1    2    0    0 -0.25225789066E+02 -0.61838327976E+02  0.32691743357E+03  0.35631481993E+03  0.12499969315E+03 0.  0.
          2    1    1    2  501    0  0.30493092042E+02  0.96484870744E+02 -0.61981778339E+02  0.11866296723E+03  0.00000000000E+00 0. -1.
          1    1    1    2  502    0 -0.52673029759E+01 -0.34646542769E+02  0.13231717931E+03  0.13687937517E+03  0.00000000000E+00 0. -1.
         22    1    3    3    0    0  0.93538156040E+01 -0.32268398533E+02  0.84895196597E+01  0.34652782778E+02  0.00000000000E+00 0. -1.
         22    1    3    3    0    0 -0.34579604670E+02 -0.29569929443E+02  0.31842791391E+03  0.32166203715E+03  0.00000000000E+00 0. -1.
</event>
<event>
 7    1  0.6443388E-006  0.5453643E+02  0.7818608E-02  0.1439950E+00
          2   -1    0    0  502    0  0.00000000000E+00  0.00000000000E+00  0.44581581894E+03  0.44581581894E+03  0.00000000000E+00 0. -1.
          1   -1    0    0  501    0 -0.00000000000E+00 -0.00000000000E+00 -0.93241452131E+03  0.93241452131E+03  0.00000000000E+00 0. -1.
         25    2    1    2    0    0  0.90915962483E+02  0.41202562989E+01 -0.18562493977E+02  0.15573101738E+03  0.12499957938E+03 0.  0.
          2    1    1    2  501    0 -0.48036493385E+02 -0.25058195585E+02 -0.84288547957E+03  0.84462497568E+03  0.00000000000E+00 0. -1.
          1    1    1    2  502    0 -0.42879469099E+02  0.20937939286E+02  0.37484927117E+03  0.37787434720E+03  0.00000000000E+00 0. -1.
         22    1    3    3    0    0 -0.23887605494E+02  0.23349907545E+02  0.11810821162E+02  0.35430655866E+02  0.00000000000E+00 0.  1.
         22    1    3    3    0    0  0.11480356798E+03 -0.19229651246E+02 -0.30373315139E+02  0.12030036151E+03  0.00000000000E+00 0.  1.
</event>
<event>
 7    1  0.6443388E-006  0.1760319E+03  0.7818608E-02  0.1274269E+00
          2   -1    0    0  502    0  0.00000000000E+00  0.00000000000E+00  0.13345545325E+04  0.13345545325E+04  0.00000000000E+00 0. -1.
          1   -1    0    0  501    0 -0.00000000000E+00 -0.00000000000E+00 -0.19240815956E+03  0.19240815956E+03  0.00000000000E+00 0. -1.
         25    2    1    2    0    0 -0.22173878552E+03 -0.30323178126E+02  0.47512042842E+03  0.53986327562E+03  0.12500140292E+03 0.  0.
          2    1    1    2  501    0  0.60117970335E+02  0.26371238725E+01 -0.14588855456E+03  0.15781189794E+03  0.00000000000E+00 0. -1.
          1    1    1    2  502    0  0.16162081519E+03  0.27686054253E+02  0.81291449905E+03  0.82928751846E+03  0.00000000000E+00 0. -1.
         22    1    3    3    0    0 -0.16069328518E+03 -0.14768261556E+02  0.19679171984E+03  0.25449442911E+03  0.00000000000E+00 0. -1.
         22    1    3    3    0    0 -0.61045500343E+02 -0.15554916570E+02  0.27832870858E+03  0.28536884651E+03  0.00000000000E+00 0. -1.
</event>
<event>
 7    1  0.6443388E-006  0.2150218E+03  0.7818608E-02  0.1180393E+00
          2   -1    0    0  502    0  0.00000000000E+00  0.00000000000E+00  0.26844612374E+04  0.26844612374E+04  0.00000000000E+00 0. -1.
          1   -1    0    0  501    0 -0.00000000000E+00 -0.00000000000E+00 -0.10470175677E+04  0.10470175677E+04  0.00000000000E+00 0. -1.
         25    2    1    2    0    0  0.25002397543E+02 -0.10678382205E+03  0.23229995777E+03  0.28568551120E+03  0.12500014557E+03 0.  0.
          2    1    1    2  501    0 -0.29126783722E+01 -0.13057598827E+03 -0.10102533669E+04  0.10186611005E+04  0.00000000000E+00 0. -1.
          1    1    1    2  502    0 -0.22089719171E+02  0.23735981032E+03  0.24153970788E+04  0.24271321933E+04  0.00000000000E+00 0. -1.
         22    1    3    3    0    0 -0.17389454078E+01 -0.43272156893E+02  0.20823810579E+03  0.21269370512E+03  0.00000000000E+00 0.  1.
         22    1    3    3    0    0  0.26741342951E+02 -0.63511665161E+02  0.24061851980E+02  0.72991806081E+02  0.00000000000E+00 0.  1.
</event>
<event>
 7    1  0.6443388E-006  0.2482478E+03  0.7818608E-02  0.1177662E+00
          2   -1    0    0  502    0  0.00000000000E+00  0.00000000000E+00  0.13016637420E+04  0.13016637420E+04  0.00000000000E+00 0. -1.
          1   -1    0    0  501    0 -0.00000000000E+00 -0.00000000000E+00 -0.21285604164E+03  0.21285604164E+03  0.00000000000E+00 0. -1.
         25    2    1    2    0    0  0.61794290686E+02  0.16376573592E+03  0.21097502012E+03  0.30128487414E+03  0.12499746257E+03 0.  0.
          2    1    1    2  501    0 -0.51197102769E+02 -0.27994380203E+03 -0.40559748588E+02  0.28746263902E+03  0.00000000000E+00 0. -1.
          1    1    1    2  502    0 -0.10597187918E+02  0.11617806610E+03  0.91839242882E+03  0.92577227046E+03  0.00000000000E+00 0. -1.
         22    1    3    3    0    0  0.34612283595E+02 -0.93794237916E+01  0.16464495806E+02  0.39459642528E+02  0.00000000000E+00 0. -1.
         22    1    3    3    0    0  0.27182007092E+02  0.17314515972E+03  0.19451052431E+03  0.26182523161E+03  0.00000000000E+00 0. -1.
</event>
<event>
 7    1  0.6443388E-006  0.1008159E+03  0.7818608E-02  0.1282040E+00
          2   -1    0    0  502    0  0.00000000000E+00  0.00000000000E+00  0.19465248055E+04  0.19465248055E+04  0.00000000000E+00 0. -1.
          1   -1    0    0  501    0 -0.00000000000E+00 -0.00000000000E+00 -0.87626932707E+03  0.87626932707E+03  0.00000000000E+00 0. -1.
         25    2    1    2    0    0 -0.10063764697E+03  0.16776356806E+03  0.19456571893E+02  0.23297387174E+03  0.12500286384E+03 0.  0.
          2    1    1    2  501    0  0.45298174855E+02 -0.87415556746E+02 -0.76504659817E+03  0.77135575552E+03  0.00000000000E+00 0. -1.
          1    1    1    2  502    0  0.55339472114E+02 -0.80348011310E+02  0.18158455047E+04  0.18184645053E+04  0.00000000000E+00 0. -1.
         22    1    3    3    0    0 -0.11741628921E+03  0.16832335052E+03 -0.26107679220E+01  0.20524656248E+03  0.00000000000E+00 0.  1.
         22    1    3    3    0    0  0.16778642246E+02 -0.55978246318E+00  0.22067339815E+02  0.27727309255E+02  0.00000000000E+00 0.  1.
</event>
<event>
 7    1  0.6443388E-006  0.1179047E+03  0.7818608E-02  0.1322323E+00
          2   -1    0    0  502    0  0.00000000000E+00  0.00000000000E+00  0.42698109187E+03  0.42698109187E+03  0.00000000000E+00 0. -1.
          1   -1    0    0  501    0 -0.00000000000E+00 -0.00000000000E+00 -0.18090202261E+03  0.18090202261E+03  0.00000000000E+00 0. -1.
         25    2    1    2    0    0 -0.46902221323E+02 -0.64814020414E+02  0.15539512984E+03  0.21487950910E+03  0.12499952578E+03 0.  0.
          2    1    1    2  501    0  0.30707289422E+02  0.12010454332E+03 -0.12123337188E+03  0.17339426001E+03  0.00000000000E+00 0. -1.
          1    1    1    2  502    0  0.16194931900E+02 -0.55290522902E+02  0.21191731130E+03  0.21960934536E+03  0.00000000000E+00 0. -1.
         22    1    3    3    0    0 -0.76607020332E+02 -0.36436428555E+02  0.15147539126E+03  0.17361175953E+03  0.00000000000E+00 0. -1.
         22    1    3    3    0    0  0.29704799009E+02 -0.28377591859E+02  0.39197385819E+01  0.41267749569E+02  0.00000000000E+00 0. -1.
</event>
<event>
 7    1  0.6443388E-006  0.1016281E+03  0.7818608E-02  0.1450341E+00
          2   -1    0    0  502    0  0.00000000000E+00  0.00000000000E+00  0.10252781405E+04  0.10252781405E+04  0.00000000000E+00 0. -1.
          1   -1    0    0  501    0 -0.00000000000E+00 -0.00000000000E+00 -0.64981792713E+02  0.64981792713E+02  0.00000000000E+00 0. -1.
         25    2    1    2    0    0 -0.62874115033E+02  0.53302071608E+02  0.25655351183E+03  0.29705226994E+03  0.12500432579E+03 0.  0.
          2    1    1    2  501    0  0.79057005807E+02 -0.70626908438E+02  0.18569527508E+02  0.10762433607E+03  0.00000000000E+00 0. -1.
          1    1    1    2  502    0 -0.16182890773E+02  0.17324836829E+02  0.68517330842E+03  0.68558332717E+03  0.00000000000E+00 0. -1.
         22    1    3    3    0    0 -0.96067178867E+02  0.52875964488E+02  0.15250390812E+03  0.18783559958E+03  0.00000000000E+00 0. -1.
         22    1    3    3    0    0  0.33193063834E+02  0.42610712079E+00  0.10404960371E+03  0.10921667037E+03  0.00000000000E+00 0. -1.
</event>
<event>
 7    1  0.6443388E-006  0.7530550E+02  0.7818608E-02  0.1378114E+00
          2   -1    0    0  502    0  0.00000000000E+00  0.00000000000E+00  0.43684228154E+02  0.43684228154E+02  0.00000000000E+00 0. -1.
          1   -1    0    0  501    0 -0.00000000000E+00 -0.00000000000E+00 -0.57630813208E+03  0.57630813208E+03  0.00000000000E+00 0. -1.
         25    2    1    2    0    0 -0.41850027885E+02  0.26441338141E+02 -0.19366817514E+03  0.23575858578E+03  0.12499671798E+03 0.  0.
          2    1    1    2  501    0 -0.49251500385E+02 -0.26733600408E+02 -0.25248146641E+03  0.25862576547E+03  0.00000000000E+00 0. -1.
          1    1    1    2  502    0  0.91101528271E+02  0.29226226692E+00 -0.86474262365E+02  0.12560800899E+03  0.00000000000E+00 0. -1.
         22    1    3    3    0    0 -0.18242361495E+02 -0.46973742810E+02 -0.11519789724E+03  0.12573731266E+03  0.00000000000E+00 0.  1.
         22    1    3    3    0    0 -0.23607666391E+02  0.73415080951E+02 -0.78470277902E+02  0.11002127311E+03  0.00000000000E+00 0.  1.
</event>
<event>
 7    1  0.6443388E-006  0.7919169E+02  0.7818608E-02  0.1406875E+00
          2   -1    0    0  502    0  0.00000000000E+00  0.00000000000E+00  0.28879160230E+04  0.28879160230E+04  0.00000000000E+00 0. -1.
          1   -1    0    0  501    0 -0.00000000000E+00 -0.00000000000E+00 -0.27288729691E+03  0.27288729691E+03  0.00000000000E+00 0. -1.
         25    2    1    2    0    0 -0.98708465823E+02 -0.45967771883E+02  0.10774524205E+03  0.19771349347E+03  0.12500076415E+03 0.  0.
          2    1    1    2  501    0  0.57033068384E+02  0.53374995283E+02 -0.22104091952E+03  0.23443708988E+03  0.00000000000E+00 0. -1.
          1    1    1    2  502    0  0.41675397439E+02 -0.74072234003E+01  0.27283244035E+04  0.27286527365E+04  0.00000000000E+00 0. -1.
         22    1    3    3    0    0 -0.86724578965E+02 -0.23396605053E+02  0.29779671973E+01  0.89874479210E+02  0.00000000000E+00 0.  1.
         22    1    3    3    0    0 -0.11983886857E+02 -0.22571166830E+02  0.10476727486E+03  0.10783901426E+03  0.00000000000E+00 0.  1.
</event>
<event>
 7    1  0.6443388E-006  0.1283819E+03  0.7818608E-02  0.1345352E+00
          2   -1    0    0  502    0  0.00000000000E+00  0.00000000000E+00  0.90907769926E+03  0.90907769926E+03  0.00000000000E+00 0. -1.
          1   -1    0    0  501    0 -0.00000000000E+00 -0.00000000000E+00 -0.25540601412E+04  0.25540601412E+04  0.00000000000E+00 0. -1.
         25    2    1    2    0    0  0.14021237296E+03 -0.16687339481E+02  0.22180504572E+03  0.29113674473E+03  0.12500059597E+03 0.  0.
          2    1    1    2  501    0 -0.15374571916E+02  0.40435563550E+02 -0.25130202339E+04  0.25133925496E+04  0.00000000000E+00 0. -1.
          1    1    1    2  502    0 -0.12483780105E+03 -0.23748224070E+02  0.64623274625E+03  0.65860854614E+03  0.00000000000E+00 0. -1.
         22    1    3    3    0    0  0.32126719600E+02 -0.55884141793E+02  0.12578877697E+03  0.14134348173E+03  0.00000000000E+00 0.  1.
         22    1    3    3    0    0  0.10808565336E+03  0.39196802313E+02  0.96016268754E+02  0.14979326300E+03  0.00000000000E+00 0.  1.
</event>
<event>
 7    1  0.6443388E-006  0.8868309E+02  0.7818608E-02  0.1424199E+00
          2   -1    0    0  502    0  0.00000000000E+00  0.00000000000E+00  0.60718322423E+03  0.60718322423E+03  0.00000000000E+00 0. -1.
          1   -1    0    0  501    0 -0.00000000000E+00 -0.00000000000E+00 -0.11087486346E+04  0.11087486346E+04  0.00000000000E+00 0. -1.
         25    2    1    2    0    0  0.57425380899E+01 -0.11584570842E+03 -0.24550875549E+03  0.29891870291E+03  0.12499854810E+03 0.  0.
          2    1    1    2  501    0  0.85990168042E+01  0.86064321216E+02 -0.83382554290E+03  0.83829949688E+03  0.00000000000E+00 0. -1.
          1    1    1    2  502    0 -0.14341554894E+02  0.29781387203E+02  0.57776888801E+03  0.57871365905E+03  0.00000000000E+00 0. -1.
         22    1    3    3    0    0  0.77860726536E+01  0.78212560425E+00  0.13078061218E+02  0.15240417745E+02  0.00000000000E+00 0.  1.
         22    1    3    3    0    0 -0.20435345637E+01 -0.11662783402E+03 -0.25858681671E+03  0.28367828517E+03  0.00000000000E+00 0.  1.
</event>
<event>
 7    1  0.6443388E-006  0.7830599E+02  0.7818608E-02  0.1446240E+00
          2   -1    0    0  502    0  0.00000000000E+00  0.00000000000E+00  0.63565757038E+03  0.63565757038E+03  0.00000000000E+00 0. -1.
          1   -1    0    0  501    0 -0.00000000000E+00 -0.00000000000E+00 -0.13094751137E+04  0.13094751137E+04  0.00000000000E+00 0. -1.
         25    2    1    2    0    0  0.94175677940E+02 -0.51623509323E+02 -0.59747173098E+02  0.17529585141E+03  0.12499946319E+03 0.  0.
          2    1    1    2  501    0 -0.22045051947E+02  0.22799360954E+02 -0.11891309865E+04  0.11895538232E+04  0.00000000000E+00 0. -1.
          1    1    1    2  502    0 -0.72130625993E+02  0.28824148369E+02  0.57506061627E+03  0.58028300951E+03  0.00000000000E+00 0. -1.
         22    1    3    3    0    0  0.54773493790E+02  0.37866121528E+02 -0.18010332183E+02  0.68980800567E+02  0.00000000000E+00 0.  1.
         22    1    3    3    0    0  0.39402184150E+02 -0.89489630851E+02 -0.41736840915E+02  0.10631505084E+03  0.00000000000E+00 0.  1.
</event>
<event>
 7    1  0.6443388E-006  0.1013390E+03  0.7818608E-02  0.1306154E+00
          2   -1    0    0  502    0  0.00000000000E+00  0.00000000000E+00  0.13265994955E+04  0.13265994955E+04  0.00000000000E+00 0. -1.
          1   -1    0    0  501    0 -0.00000000000E+00 -0.00000000000E+00 -0.14130048230E+03  0.14130048230E+03  0.00000000000E+00 0. -1.
         25    2    1    2    0    0 -0.11032500210E+03  0.13553195845E+03  0.35791374745E+03  0.41745642777E+03  0.12500840219E+03 0.  0.
          2    1    1    2  501    0  0.59672236848E+02 -0.76809988541E+02 -0.88367542616E+02  0.13141298558E+03  0.00000000000E+00 0. -1.
          1    1    1    2  502    0  0.50652765247E+02 -0.58721969909E+02  0.91575280835E+03  0.91903056444E+03  0.00000000000E+00 0. -1.
         22    1    3    3    0    0  0.19806309660E+02 -0.77090146739E+01  0.31978759476E+02  0.38397394016E+02  0.00000000000E+00 0.  1.
         22    1    3    3    0    0 -0.13013131175E+03  0.14324097312E+03  0.32593498798E+03  0.37905903375E+03  0.00000000000E+00 0.  1.
</event>
<event>
 7    1  0.6443388E-006  0.7916160E+02  0.7818608E-02  0.1382893E+00
          2   -1    0    0  502    0  0.00000000000E+00  0.00000000000E+00  0.31765904700E+04  0.31765904700E+04  0.00000000000E+00 0. -1.
          1   -1    0    0  501    0 -0.00000000000E+00 -0.00000000000E+00 -0.36146774822E+03  0.36146774822E+03  0.00000000000E+00 0. -1.
         25    2    1    2    0    0  0.11594863628E+03  0.51618221472E+02  0.40653941924E+03  0.44385551491E+03  0.12499956670E+03 0.  0.
          2    1    1    2  501    0 -0.76327014721E+02 -0.19074191789E+02 -0.33805337471E+03  0.34708748483E+03  0.00000000000E+00 0. -1.
          1    1    1    2  502    0 -0.39621621561E+02 -0.32544029683E+02  0.27466366773E+04  0.27471152185E+04  0.00000000000E+00 0. -1.
         22    1    3    3    0    0  0.93085532900E+02  0.86493457440E+01  0.11463960353E+03  0.14792554315E+03  0.00000000000E+00 0. -1.
         22    1    3    3    0    0  0.22863103382E+02  0.42968875728E+02  0.29189981571E+03  0.29592997176E+03  0.00000000000E+00 0. -1.
</event>
<event>
 7    1  0.6443388E-006  0.6809011E+02  0.7818608E-02  0.1385567E+00
          2   -1    0    0  502    0  0.00000000000E+00  0.00000000000E+00  0.14599717283E+02  0.14599717283E+02  0.00000000000E+00 0. -1.
          1   -1    0    0  501    0 -0.00000000000E+00 -0.00000000000E+00 -0.14355895210E+04  0.14355895210E+04  0.00000000000E+00 0. -1.
         25    2    1    2    0    0  0.10672425014E+02 -0.21062036493E+02 -0.75844054636E+03  0.76903493043E+03  0.12500060730E+03 0.  0.
          2    1    1    2  501    0  0.58090765725E+02  0.35520783889E+02 -0.49211733454E+03  0.49680552946E+03  0.00000000000E+00 0. -1.
          1    1    1    2  502    0 -0.68763190739E+02 -0.14458747395E+02 -0.17043192278E+03  0.18434877835E+03  0.00000000000E+00 0. -1.
         22    1    3    3    0    0 -0.45779346965E+01 -0.27878564836E+02 -0.33165091990E+02  0.43567134289E+02  0.00000000000E+00 0. -1.
         22    1    3    3    0    0  0.15250359711E+02  0.68165283426E+01 -0.72527545437E+03  0.72546779614E+03  0.00000000000E+00 0. -1.
</event>
<event>
 7    1  0.6443388E-006  0.2797691E+02  0.7818608E-02  0.1632654E+00
          2   -1    0    0  502    0  0.00000000000E+00  0.00000000000E+00  0.55608870751E+03  0.55608870751E+03  0.00000000000E+00 0. -1.
          1   -1    0    0  501    0 -0.00000000000E+00 -0.00000000000E+00 -0.65518188916E+03  0.65518188916E+03  0.00000000000E+00 0. -1.
         25    2    1    2    0    0 -0.33175506016E+02  0.31587751007E+02  0.97600161938E+02  0.16507102413E+03  0.12499700471E+03 0.  0.
          2    1    1    2  501    0  0.25799281219E+02 -0.47606136520E+01 -0.62071345661E+03  0.62126762476E+03  0.00000000000E+00 0. -1.
          1    1    1    2  502    0  0.73762247970E+01 -0.26827137355E+02  0.42402011302E+03  0.42493194777E+03  0.00000000000E+00 0. -1.
         22    1    3    3    0    0 -0.43511317008E+02 -0.39994573869E+02  0.57104247637E+02  0.82180872135E+02  0.00000000000E+00 0.  1.
         22    1    3    3    0    0  0.10335810992E+02  0.71582324876E+02  0.40495914302E+02  0.82890152000E+02  0.00000000000E+00 0.  1.
</event>
<event>
 7    1  0.6443388E-006  0.9004747E+02  0.7818608E-02  0.1369904E+00
          2   -1    0    0  502    0  0.00000000000E+00  0.00000000000E+00  0.10131299814E+04  0.10131299814E+04  0.00000000000E+00 0. -1.
          1   -1    0    0  501    0 -0.00000000000E+00 -0.00000000000E+00 -0.11685409951E+03  0.11685409951E+03  0.00000000000E+00 0. -1.
         25    2    1    2    0    0 -0.38908683463E+02  0.13086895049E+03  0.16146526181E+03  0.24562947096E+03  0.12498895304E+03 0.  0.
          2    1    1    2  501    0  0.21928523051E+02 -0.45091213878E+02 -0.63702282848E+02  0.81068233805E+02  0.00000000000E+00 0. -1.
          1    1    1    2  502    0  0.16980160412E+02 -0.85777736612E+02  0.79851290297E+03  0.80328637618E+03  0.00000000000E+00 0. -1.
         22    1    3    3    0    0 -0.32706654039E+02  0.12308163734E+03  0.55037224257E+02  0.13873683982E+03  0.00000000000E+00 0. -1.
         22    1    3    3    0    0 -0.62020294238E+01  0.77873131473E+01  0.10642803755E+03  0.10689263114E+03  0.00000000000E+00 0. -1.
</event>
<event>
 7    1  0.6443388E-006  0.1223701E+03  0.7818608E-02  0.1417412E+00
          2   -1    0    0  502    0  0.00000000000E+00  0.00000000000E+00  0.14980771389E+04  0.14980771389E+04  0.00000000000E+00 0. -1.
          1   -1    0    0  501    0 -0.00000000000E+00 -0.00000000000E+00 -0.47786005405E+03  0.47786005405E+03  0.00000000000E+00 0. -1.
         25    2    1    2    0    0 -0.10425598878E+03 -0.61114011321E+02  0.26468002158E+03  0.31667595206E+03  0.12499564478E+03 0.  0.
          2    1    1    2  501    0  0.11615780103E+03  0.38859586493E+02 -0.44342637133E+03  0.46003222604E+03  0.00000000000E+00 0. -1.
          1    1    1    2  502    0 -0.11901812251E+02  0.22254424828E+02  0.11989634347E+04  0.11992290149E+04  0.00000000000E+00 0. -1.
         22    1    3    3    0    0 -0.16938908800E+02 -0.67427238825E+02  0.18747604884E+03  0.19995156427E+03  0.00000000000E+00 0. -1.
         22    1    3    3    0    0 -0.87317079975E+02  0.63132275039E+01  0.77203972738E+02  0.11672438778E+03  0.00000000000E+00 0. -1.
</event>
<event>
 7    1  0.6443388E-006  0.4354170E+02  0.7818608E-02  0.1551795E+00
          2   -1    0    0  502    0  0.00000000000E+00  0.00000000000E+00  0.11411082953E+04  0.11411082953E+04  0.00000000000E+00 0. -1.
          1   -1    0    0  501    0 -0.00000000000E+00 -0.00000000000E+00 -0.43547611102E+03  0.43547611102E+03  0.00000000000E+00 0. -1.
         25    2    1    2    0    0  0.12970047821E+02 -0.46509219026E+02 -0.24597018621E+03  0.28010445233E+03  0.12500336842E+03 0.  0.
          2    1    1    2  501    0  0.20402140032E+02  0.18532526054E+02 -0.17091248446E+03  0.17312070698E+03  0.00000000000E+00 0. -1.
          1    1    1    2  502    0 -0.33372187853E+02  0.27976692972E+02  0.11225148549E+04  0.11233592470E+04  0.00000000000E+00 0. -1.
         22    1    3    3    0    0  0.44969376369E+02 -0.65792564158E+02 -0.92232577370E+02  0.12189238958E+03  0.00000000000E+00 0.  1.
         22    1    3    3    0    0 -0.31999328548E+02  0.19283345132E+02 -0.15373760884E+03  0.15821206275E+03  0.00000000000E+00 0.  1.
</event>
<event>
 7    1  0.6443388E-006  0.6686606E+02  0.7818608E-02  0.1395515E+00
          2   -1    0    0  502    0  0.00000000000E+00  0.00000000000E+00  0.61143679456E+03  0.61143679456E+03  0.00000000000E+00 0. -1.
          1   -1    0    0  501    0 -0.00000000000E+00 -0.00000000000E+00 -0.10454136419E+03  0.10454136419E+03  0.00000000000E+00 0. -1.
         25    2    1    2    0    0 -0.88731106610E+02 -0.32187852251E+02 -0.10402147113E+02  0.15697928452E+03  0.12500009597E+03 0.  0.
          2    1    1    2  501    0  0.35034115560E+02  0.43329805856E+02  0.20792463797E+02  0.59474262327E+02  0.00000000000E+00 0. -1.
          1    1    1    2  502    0  0.53696991050E+02 -0.11141953605E+02  0.49650511369E+03  0.49952461190E+03  0.00000000000E+00 0. -1.
         22    1    3    3    0    0  0.16394708998E+02  0.28575707962E+02  0.86715715704E+01  0.34066900683E+02  0.00000000000E+00 0.  1.
         22    1    3    3    0    0 -0.10512581561E+03 -0.60763560213E+02 -0.19073718683E+02  0.12291238384E+03  0.00000000000E+00 0.  1.
</event>
<event>
 7    1  0.6443388E-006  0.6387239E+02  0.7818608E-02  0.1391347E+00
          2   -1    0    0  502    0  0.00000000000E+00  0.00000000000E+00  0.48916071055E+03  0.48916071055E+03  0.00000000000E+00 0. -1.
          1   -1    0    0  501    0 -0.00000000000E+00 -0.00000000000E+00 -0.80884439634E+03  0.80884439634E+03  0.00000000000E+00 0. -1.
         25    2    1    2    0    0  0.26578942290E+02  0.47321922018E+02 -0.49557493859E+03  0.51396996971E+03  0.12499922210E+03 0.  0.
          2    1    1    2  501    0  0.27523709680E+02 -0.71736142497E+02 -0.29733437761E+03  0.30710154810E+03  0.00000000000E+00 0. -1.
          1    1    1    2  502    0 -0.54102651970E+02  0.24414220480E+02  0.47322563042E+03  0.47693358908E+03  0.00000000000E+00 0. -1.
         22    1    3    3    0    0 -0.31284586278E+02  0.56677971801E+02 -0.36697678864E+03  0.37264337003E+03  0.00000000000E+00 0. -1.
         22    1    3    3    0    0  0.57863528568E+02 -0.93560497833E+01 -0.12859814995E+03  0.14132659968E+03  0.00000000000E+00 0. -1.
</event>
<event>
 7    1  0.6443388E-006  0.1858826E+03  0.7818608E-02  0.1334441E+00
          2   -1    0    0  502    0  0.00000000000E+00  0.00000000000E+00  0.52610727220E+03  0.52610727220E+03  0.00000000000E+00 0. -1.
          1   -1    0    0  501    0 -0.00000000000E+00 -0.00000000000E+00 -0.57294282432E+03  0.57294282432E+03  0.00000000000E+00 0. -1.
         25    2    1    2    0    0 -0.20509376473E+03 -0.42399367439E+02  0.77849032580E+02  0.25602191039E+03  0.12500235212E+03 0.  0.
          2    1    1    2  501    0  0.17495344885E+03  0.55439696385E+02 -0.46563596374E+03  0.50049887105E+03  0.00000000000E+00 0. -1.
          1    1    1    2  502    0  0.30140315884E+02 -0.13040328946E+02  0.34095137904E+03  0.34252931508E+03  0.00000000000E+00 0. -1.
         22    1    3    3    0    0 -0.19929284416E+03 -0.10744709402E+02  0.35310935816E+02  0.20268189041E+03  0.00000000000E+00 0. -1.
         22    1    3    3    0    0 -0.58009205741E+01 -0.31654658038E+02  0.42538096764E+02  0.53340019979E+02  0.00000000000E+00 0. -1.
</event>
<event>
 7    1  0.6443388E-006  0.3336195E+02  0.7818608E-02  0.1569124E+00
          2   -1    0    0  502    0  0.00000000000E+00  0.00000000000E+00  0.92452076761E+03  0.92452076761E+03  0.00000000000E+00 0. -1.
          1   -1    0    0  501    0 -0.00000000000E+00 -0.00000000000E+00 -0.59906804501E+03  0.59906804501E+03  0.00000000000E+00 0. -1.
         25    2    1    2    0    0 -0.48296781320E+02  0.34023915239E+02  0.41970072682E+03  0.44189111774E+03  0.12501541485E+03 0.  0.
          2    1    1    2  501    0  0.16458656836E+02 -0.28994163045E+02 -0.58697321742E+03  0.58791930300E+03  0.00000000000E+00 0. -1.
          1    1    1    2  502    0  0.31838124484E+02 -0.50297521937E+01  0.49272521319E+03  0.49377839189E+03  0.00000000000E+00 0. -1.
         22    1    3    3    0    0  0.37330089206E+02  0.11450943580E+02  0.61041299976E+02  0.72461713834E+02  0.00000000000E+00 0.  1.
         22    1    3    3    0    0 -0.85626870526E+02  0.22572971659E+02  0.35865942685E+03  0.36942940391E+03  0.00000000000E+00 0.  1.
</event>
<event>
 7    1  0.6443388E-006  0.1407164E+03  0.7818608E-02  0.1424478E+00
          2   -1    0    0  502    0  0.00000000000E+00  0.00000000000E+00  0.31549493493E+03  0.31549493493E+03  0.00000000000E+00 0. -1.
          1   -1    0    0  501    0 -0.00000000000E+00 -0.00000000000E+00 -0.72864933536E+03  0.72864933536E+03  0.00000000000E+00 0. -1.
         25    2    1    2    0    0  0.10794724992E+03  0.56155062296E+02 -0.57919362231E+03  0.60489362121E+03  0.12500016429E+03 0.  0.
          2    1    1    2  501    0  0.20665473477E+02  0.22495191823E+01 -0.11917524861E+03  0.12097463375E+03  0.00000000000E+00 0. -1.
          1    1    1    2  502    0 -0.12861272340E+03 -0.58404581478E+02  0.28521447049E+03  0.31827601533E+03  0.00000000000E+00 0. -1.
         22    1    3    3    0    0 -0.14456228731E+01  0.18299569867E+02 -0.48303071110E+01  0.18981463315E+02  0.00000000000E+00 0. -1.
         22    1    3    3    0    0  0.10939287280E+03  0.37855492429E+02 -0.57436331520E+03  0.58591215790E+03  0.00000000000E+00 0. -1.
</event>
<event>
 7    1  0.6443388E-006  0.4682595E+02  0.7818608E-02  0.1586549E+00
          2   -1    0    0  502    0  0.00000000000E+00  0.00000000000E+00  0.37223723393E+03  0.37223723393E+03  0.00000000000E+00 0. -1.
          1   -1    0    0  501    0 -0.00000000000E+00 -0.00000000000E+00 -0.76301824338E+03  0.76301824338E+03  0.00000000000E+00 0. -1.
         25    2    1    2    0    0 -0.27365658000E+02 -0.25711882538E+01  0.70647703681E+01  0.12816624964E+03  0.12498474435E+03 0.  0.
          2    1    1    2  501    0 -0.19995522109E+02  0.50206067350E+01 -0.70046912503E+03  0.70077244703E+03  0.00000000000E+00 0. -1.
          1    1    1    2  502    0  0.47361180109E+02 -0.24494184812E+01  0.30262334521E+03  0.30631678064E+03  0.00000000000E+00 0. -1.
         22    1    3    3    0    0 -0.46762529689E+02 -0.41920701135E+02 -0.31043436286E+02  0.70055508727E+02  0.00000000000E+00 0. -1.
         22    1    3    3    0    0  0.19396871689E+02  0.39349512881E+02  0.38108206654E+02  0.58110740915E+02  0.00000000000E+00 0. -1.
</event>
<event>
 7    1  0.6443388E-006  0.2901616E+02  0.7818608E-02  0.1617043E+00
          2   -1    0    0  502    0  0.00000000000E+00  0.00000000000E+00  0.37128534224E+03  0.37128534224E+03  0.00000000000E+00 0. -1.
          1   -1    0    0  501    0 -0.00000000000E+00 -0.00000000000E+00 -0.26592930600E+03  0.26592930600E+03  0.00000000000E+00 0. -1.
         25    2    1    2    0    0  0.27289212743E+02  0.49415811966E+02  0.29633999271E+03  0.32653893130E+03  0.12499463496E+03 0.  0.
          2    1    1    2  501    0 -0.16008611004E+02 -0.24111677782E+02 -0.24673165828E+03  0.24842334799E+03  0.00000000000E+00 0. -1.
          1    1    1    2  502    0 -0.11280601739E+02 -0.25304134183E+02  0.55747701809E+02  0.62252368946E+02  0.00000000000E+00 0. -1.
         22    1    3    3    0    0  0.72366284591E+02  0.10833599315E+02  0.20452540766E+03  0.21722082864E+03  0.00000000000E+00 0. -1.
         22    1    3    3    0    0 -0.45077071847E+02  0.38582212650E+02  0.91814585052E+02  0.10931810265E+03  0.00000000000E+00 0. -1.
</event>
<event>
 7    1  0.6443388E-006  0.1048502E+03  0.7818608E-02  0.1341588E+00
          2   -1    0    0  502    0  0.00000000000E+00  0.00000000000E+00  0.12851035157E+03  0.12851035157E+03  0.00000000000E+00 0. -1.
          1   -1    0    0  501    0 -0.00000000000E+00 -0.00000000000E+00 -0.14387107791E+04  0.14387107791E+04  0.00000000000E+00 0. -1.
         25    2    1    2    0    0 -0.66333192105E+02 -0.98063984488E+02 -0.48667358682E+03  0.51622962065E+03  0.12500081482E+03 0.  0.
          2    1    1    2  501    0  0.11906362897E+02  0.10367275526E+03 -0.92757897280E+03  0.93343052898E+03  0.00000000000E+00 0. -1.
          1    1    1    2  502    0  0.54426829207E+02 -0.56087707708E+01  0.10405213214E+03  0.11756098098E+03  0.00000000000E+00 0. -1.
         22    1    3    3    0    0 -0.89242415537E+02 -0.85463645242E+02 -0.46816185210E+03  0.48419393134E+03  0.00000000000E+00 0. -1.
         22    1    3    3    0    0  0.22909223433E+02 -0.12600339246E+02 -0.18511734723E+02  0.32035689315E+02  0.00000000000E+00 0. -1.
</event>
<event>
 7    1  0.6443388E-006  0.5439140E+02  0.7818608E-02  0.1428627E+00
          2   -1    0    0  502    0  0.00000000000E+00  0.00000000000E+00  0.10356636432E+04  0.10356636432E+04  0.00000000000E+00 0. -1.
          1   -1    0    0  501    0 -0.00000000000E+00 -0.00000000000E+00 -0.25888261622E+04  0.25888261622E+04  0.00000000000E+00 0. -1.
         25    2    1    2    0    0 -0.73212385045E+01  0.51999775778E+02  0.21538167007E+02  0.13728215099E+03  0.12499967651E+03 0.  0.
          2    1    1    2  501    0  0.49303567914E+02 -0.16858456405E+02 -0.25299020443E+04  0.25304385792E+04  0.00000000000E+00 0. -1.
          1    1    1    2  502    0 -0.41982329409E+02 -0.35141319374E+02  0.95520135832E+03  0.95676907519E+03  0.00000000000E+00 0. -1.
         22    1    3    3    0    0 -0.64825665293E+02  0.40668507105E+02  0.66768115212E+01  0.76817147584E+02  0.00000000000E+00 0. -1.
         22    1    3    3    0    0  0.57504426788E+02  0.11331268673E+02  0.14861355486E+02  0.60465003406E+02  0.00000000000E+00 0. -1.
</event>
<event>
 7    1  0.6443388E-006  0.9562234E+02  0.7818608E-02  0.1321816E+00
          2   -1    0    0  502    0  0.00000000000E+00  0.00000000000E+00  0.82424867606E+03  0.82424867606E+03  0.00000000000E+00 0. -1.
          1   -1    0    0  501    0 -0.00000000000E+00 -0.00000000000E+00 -0.39552367957E+02  0.39552367957E+02  0.00000000000E+00 0. -1.
         25    2    1    2    0    0  0.30422873252E+02 -0.49452813142E+02  0.52315052030E+03  0.54100115563E+03  0.12499860622E+03 0.  0.
          2    1    1    2  501    0 -0.10178266574E+03  0.49817169052E+02  0.19324672192E+03  0.22402177776E+03  0.00000000000E+00 0. -1.
          1    1    1    2  502    0  0.71359792487E+02 -0.36435590960E+00  0.68299065885E+02  0.98778110631E+02  0.00000000000E+00 0. -1.
         22    1    3    3    0    0  0.64320773125E+02 -0.61380843357E+02  0.45844425868E+03  0.46698598277E+03  0.00000000000E+00 0.  1.
         22    1    3    3    0    0 -0.33897899873E+02  0.11928030215E+02  0.64706261611E+02  0.74015172851E+02  0.00000000000E+00 0.  1.
</event>
<event>
 7    1  0.6443388E-006  0.1008878E+03  0.7818608E-02  0.1370998E+00
          2   -1    0    0  502    0  0.00000000000E+00  0.00000000000E+00  0.77337977836E+03  0.77337977836E+03  0.00000000000E+00 0. -1.
          1   -1    0    0  501    0 -0.00000000000E+00 -0.00000000000E+00 -0.17606777895E+04  0.17606777895E+04  0.00000000000E+00 0. -1.
         25    2    1    2    0    0  0.11803373473E+03  0.60792494006E+02  0.44477106404E+03  0.48069989572E+03  0.12499360177E+03 0.  0.
          2    1    1    2  501    0 -0.35009716767E+02 -0.27224965020E+02 -0.17359701373E+04  0.17365365521E+04  0.00000000000E+00 0. -1.
          1    1    1    2  502    0 -0.83024017960E+02 -0.33567528986E+02  0.30390106214E+03  0.31682112008E+03  0.00000000000E+00 0. -1.
         22    1    3    3    0    0  0.31189390088E+02  0.33410433018E+02  0.26925258757E+02  0.53047192646E+02  0.00000000000E+00 0. -1.
         22    1    3    3    0    0  0.86844344639E+02  0.27382060988E+02  0.41784580528E+03  0.42765270308E+03  0.00000000000E+00 0. -1.
</event>
<event>
 7    1  0.6443388E-006  0.1460771E+03  0.7818608E-02  0.1233754E+00
          2   -1    0    0  502    0  0.00000000000E+00  0.00000000000E+00  0.66437442014E+03  0.66437442014E+03  0.00000000000E+00 0. -1.
          1   -1    0    0  501    0 -0.00000000000E+00 -0.00000000000E+00 -0.32124003433E+03  0.32124003433E+03  0.00000000000E+00 0. -1.
         25    2    1    2    0    0 -0.20232308978E+03  0.11133030270E+03  0.15156076484E+03  0.30319052854E+03  0.12499904881E+03 0.  0.
          2    1    1    2  501    0  0.70293400452E+02 -0.82540217957E+02 -0.22214844733E+03  0.24719219725E+03  0.00000000000E+00 0. -1.
          1    1    1    2  502    0  0.13202968933E+03 -0.28790084742E+02  0.41372206831E+03  0.43523172868E+03  0.00000000000E+00 0. -1.
         22    1    3    3    0    0 -0.17598870579E+03  0.81289953531E+02  0.59413267206E+02  0.20275605399E+03  0.00000000000E+00 0.  1.
         22    1    3    3    0    0 -0.26334383993E+02  0.30040349168E+02  0.92147497635E+02  0.10043447455E+03  0.00000000000E+00 0.  1.
</event>
<event>
 7    1  0.6443388E-006  0.4573014E+02  0.7818608E-02  0.1542845E+00
          2   -1    0    0  502    0  0.00000000000E+00  0.00000000000E+00  0.43597425709E+03  0.43597425709E+03  0.00000000000E+00 0. -1.
          1   -1    0    0  501    0 -0.00000000000E+00 -0.00000000000E+00 -0.34415859368E+03  0.34415859368E+03  0.00000000000E+00 0. -1.
         25    2    1    2    0    0  0.19880305883E+02 -0.47324911415E+01 -0.19397644792E+03  0.23166545264E+03  0.12499758623E+03 0.  0.
          2    1    1    2  501    0  0.25599428409E+02  0.10845856997E+02 -0.12858541152E+03  0.13155672314E+03  0.00000000000E+00 0. -1.
          1    1    1    2  502    0 -0.45479734292E+02 -0.61133658559E+01  0.41437752285E+03  0.41691067498E+03  0.00000000000E+00 0. -1.
         22    1    3    3    0    0  0.50517446848E+02 -0.50021152943E+02 -0.12303550405E+03  0.14209807681E+03  0.00000000000E+00 0.  1.
         22    1    3    3    0    0 -0.30637140965E+02  0.45288661801E+02 -0.70940943873E+02  0.89567375823E+02  0.00000000000E+00 0.  1.
</event>
<event>
 7    1  0.6443388E-006  0.1081782E+03  0.7818608E-02  0.1357734E+00
          2   -1    0    0  502    0  0.00000000000E+00  0.00000000000E+00  0.97331575726E+03  0.97331575726E+03  0.00000000000E+00 0. -1.
          1   -1    0    0  501    0 -0.00000000000E+00 -0.00000000000E+00 -0.18025888006E+03  0.18025888006E+03  0.00000000000E+00 0. -1.
         25    2    1    2    0    0  0.11364119652E+03 -0.15244240903E+02  0.18631463433E+02  0.17064178139E+03  0.12499911080E+03 0.  0.
          2    1    1    2  501    0 -0.10422361415E+03 -0.29989849984E+02 -0.75250105093E+02  0.13200201197E+03  0.00000000000E+00 0. -1.
          1    1    1    2  502    0 -0.94175823726E+01  0.45234090887E+02  0.84967551886E+03  0.85093084395E+03  0.00000000000E+00 0. -1.
         22    1    3    3    0    0  0.30042599880E+02  0.45222698520E+02 -0.23547190122E+02  0.59178716035E+02  0.00000000000E+00 0.  1.
         22    1    3    3    0    0  0.83598596639E+02 -0.60466939422E+02  0.42178653554E+02  0.11146306536E+03  0.00000000000E+00 0.  1.
</event>
<event>
 7    1  0.6443388E-006  0.2791382E+03  0.7818608E-02  0.1266195E+00
          2   -1    0    0  502    0  0.00000000000E+00  0.00000000000E+00  0.13278271857E+04  0.13278271857E+04  0.00000000000E+00 0. -1.
          1   -1    0    0  501    0 -0.00000000000E+00 -0.00000000000E+00 -0.10396715553E+04  0.10396715553E+04  0.00000000000E+00 0. -1.
         25    2    1    2    0    0  0.22406036826E+03 -0.22366476962E+03  0.31190406875E+03  0.46166816291E+03  0.12499746699E+03 0.  0.
          2    1    1    2  501    0 -0.20368429636E+03  0.18805329852E+03 -0.94440917705E+03  0.98425607916E+03  0.00000000000E+00 0. -1.
          1    1    1    2  502    0 -0.20376071894E+02  0.35611471104E+02  0.92066073874E+03  0.92157449891E+03  0.00000000000E+00 0. -1.
         22    1    3    3    0    0  0.21971310373E+03 -0.15758013057E+03  0.27585194851E+03  0.38626369619E+03  0.00000000000E+00 0. -1.
         22    1    3    3    0    0  0.43472645293E+01 -0.66084639057E+02  0.36052120237E+02  0.75404466723E+02  0.00000000000E+00 0. -1.
</event>
<event>
 7    1  0.6443388E-006  0.9422905E+02  0.7818608E-02  0.1333810E+00
          2   -1    0    0  502    0  0.00000000000E+00  0.00000000000E+00  0.10560415678E+04  0.10560415678E+04  0.00000000000E+00 0. -1.
          1   -1    0    0  501    0 -0.00000000000E+00 -0.00000000000E+00 -0.18254652846E+03  0.18254652846E+03  0.00000000000E+00 0. -1.
         25    2    1    2    0    0  0.19451145049E+02  0.14516913149E+03  0.11992141256E+03  0.22684367370E+03  0.12499793328E+03 0.  0.
          2    1    1    2  501    0  0.20135486665E+02 -0.61950956471E+02 -0.11828133035E+03  0.13503270693E+03  0.00000000000E+00 0. -1.
          1    1    1    2  502    0 -0.39586631714E+02 -0.83218175017E+02  0.87185495711E+03  0.87671171562E+03  0.00000000000E+00 0. -1.
         22    1    3    3    0    0  0.29254981605E+02  0.16255035855E+03  0.12393245847E+03  0.20648904880E+03  0.00000000000E+00 0.  1.
         22    1    3    3    0    0 -0.98038365555E+01 -0.17381227058E+02 -0.40110459112E+01  0.20354624893E+02  0.00000000000E+00 0.  1.
</event>
<event>
 7    1  0.6443388E-006  0.8565236E+02  0.7818608E-02  0.1376962E+00
          2   -1    0    0  502    0  0.00000000000E+00  0.00000000000E+00  0.14558877283E+04  0.14558877283E+04  0.00000000000E+00 0. -1.
          1   -1    0    0  501    0 -0.00000000000E+00 -0.00000000000E+00 -0.93383390597E+03  0.93383390597E+03  0.00000000000E+00 0. -1.
         25    2    1    2    0    0 -0.65538478323E+02 -0.11601107177E+03 -0.11890175868E+02  0.18308192720E+03  0.12499501938E+03 0.  0.
          2    1    1    2  501    0  0.34598419397E+02  0.77069356705E+02 -0.83376137581E+03  0.83803029072E+03  0.00000000000E+00 0. -1.
          1    1    1    2  502    0  0.30940058927E+02  0.38941715063E+02  0.13677053740E+04  0.13686094163E+04  0.00000000000E+00 0. -1.
         22    1    3    3    0    0 -0.51852176160E+02  0.66965362743E+01 -0.26739168489E+02  0.58723716692E+02  0.00000000000E+00 0. -1.
         22    1    3    3    0    0 -0.13686302163E+02 -0.12270760804E+03  0.14848992621E+02  0.12435821051E+03  0.00000000000E+00 0. -1.
</event>
<event>
 7    1  0.6443388E-006  0.1476959E+03  0.7818608E-02  0.1286449E+00
          2   -1    0    0  502    0  0.00000000000E+00  0.00000000000E+00  0.27365423622E+04  0.27365423622E+04  0.00000000000E+00 0. -1.
          1   -1    0    0  501    0 -0.00000000000E+00 -0.00000000000E+00 -0.19378891855E+03  0.19378891855E+03  0.00000000000E+00 0. -1.
         25    2    1    2    0    0 -0.65397674725E+02  0.19526339238E+03  0.56338871910E+03  0.61272867404E+03  0.12499972369E+03 0.  0.
          2    1    1    2  501    0  0.17633738929E+02 -0.61394309467E+02 -0.16064462792E+03  0.17287829957E+03  0.00000000000E+00 0. -1.
          1    1    1    2  502    0  0.47763935796E+02 -0.13386908291E+03  0.21400093525E+04  0.21447243072E+04  0.00000000000E+00 0. -1.
         22    1    3    3    0    0 -0.77041747548E+02  0.53395994952E+02  0.16631237764E+03  0.19090932428E+03  0.00000000000E+00 0. -1.
         22    1    3    3    0    0  0.11644072823E+02  0.14186739743E+03  0.39707634146E+03  0.42181934976E+03  0.00000000000E+00 0. -1.
</event>
<event>
 7    1  0.6443388E-006  0.9919739E+02  0.7818608E-02  0.1326390E+00
          2   -1    0    0  502    0  0.00000000000E+00  0.00000000000E+00  0.87134265686E+03  0.87134265686E+03  0.00000000000E+00 0. -1.
          1   -1    0    0  501    0 -0.00000000000E+00 -0.00000000000E+00 -0.65924707109E+03  0.65924707109E+03  0.00000000000E+00 0. -1.
         25    2    1    2    0    0  0.10966366066E+03  0.58846972400E+02  0.16737450838E+03  0.24316706384E+03  0.12500764076E+03 0.  0.
          2    1    1    2  501    0 -0.98862731627E+02  0.63152875980E+01 -0.61574445901E+03  0.62366253804E+03  0.00000000000E+00 0. -1.
          1    1    1    2  502    0 -0.10800929037E+02 -0.65162259998E+02  0.66046553639E+03  0.66376012607E+03  0.00000000000E+00 0. -1.
         22    1    3    3    0    0  0.31315302693E+02  0.51818297746E+02  0.26265414008E+01  0.60602663999E+02  0.00000000000E+00 0. -1.
         22    1    3    3    0    0  0.78348357971E+02  0.70286746540E+01  0.16474796698E+03  0.18256439984E+03  0.00000000000E+00 0. -1.
</event>
<event>
 7    1  0.6443388E-006  0.5094219E+02  0.7818608E-02  0.1459772E+00
          2   -1    0    0  502    0  0.00000000000E+00  0.00000000000E+00  0.21075372171E+04  0.21075372171E+04  0.00000000000E+00 0. -1.
          1   -1    0    0  501    0 -0.00000000000E+00 -0.00000000000E+00 -0.24983318335E+02  0.24983318335E+02  0.00000000000E+00 0. -1.
         25    2    1    2    0    0 -0.48196657897E+02 -0.28283560801E+02  0.28494200411E+03  0.31613151335E+03  0.12499724148E+03 0.  0.
          2    1    1    2  501    0  0.51112016259E+02 -0.15762529357E+02  0.69431219520E+02  0.87644679142E+02  0.00000000000E+00 0. -1.
          1    1    1    2  502    0 -0.29153583622E+01  0.44046090158E+02  0.17281806751E+04  0.17287443429E+04  0.00000000000E+00 0. -1.
         22    1    3    3    0    0 -0.23589534423E+02  0.49383351625E+02  0.98909577246E+02  0.11304108113E+03  0.00000000000E+00 0. -1.
         22    1    3    3    0    0 -0.24607123474E+02 -0.77666912426E+02  0.18603242687E+03  0.20309043222E+03  0.00000000000E+00 0. -1.
</event>
<event>
 7    1  0.6443388E-006  0.4289361E+02  0.7818608E-02  0.1502418E+00
          2   -1    0    0  502    0  0.00000000000E+00  0.00000000000E+00  0.28706775374E+03  0.28706775374E+03  0.00000000000E+00 0. -1.
          1   -1    0    0  501    0 -0.00000000000E+00 -0.00000000000E+00 -0.20096358127E+03  0.20096358127E+03  0.00000000000E+00 0. -1.
         25    2    1    2    0    0  0.78943092762E+02  0.15345014188E+02  0.12462677005E+03  0.19397372578E+03  0.12500597236E+03 0.  0.
          2    1    1    2  501    0 -0.40208347354E+02 -0.13005012943E+02 -0.16054485277E+03  0.16601352749E+03  0.00000000000E+00 0. -1.
          1    1    1    2  502    0 -0.38734745408E+02 -0.23400012448E+01  0.12202225519E+03  0.12804408174E+03  0.00000000000E+00 0. -1.
         22    1    3    3    0    0  0.34111469768E+02 -0.54448410204E+02  0.41201014831E+02  0.76326570515E+02  0.00000000000E+00 0.  1.
         22    1    3    3    0    0  0.44831622994E+02  0.69793424391E+02  0.83425755219E+02  0.11764715527E+03  0.00000000000E+00 0.  1.
</event>
<event>
 7    1  0.6443388E-006  0.8164311E+02  0.7818608E-02  0.1375644E+00
          2   -1    0    0  502    0  0.00000000000E+00  0.00000000000E+00  0.21689492643E+04  0.21689492643E+04  0.00000000000E+00 0. -1.
          1   -1    0    0  501    0 -0.00000000000E+00 -0.00000000000E+00 -0.12276094530E+03  0.12276094530E+03  0.00000000000E+00 0. -1.
         25    2    1    2    0    0 -0.70845960322E+02  0.34241489362E+00  0.17398061099E+03  0.22563641781E+03  0.12499309060E+03 0.  0.
          2    1    1    2  501    0  0.65787668493E+02  0.52160608747E+02 -0.78329986340E+02  0.11482305165E+03  0.00000000000E+00 0. -1.
          1    1    1    2  502    0  0.50582918287E+01 -0.52503023641E+02  0.19505376943E+04  0.19512507401E+04  0.00000000000E+00 0. -1.
         22    1    3    3    0    0  0.20907770912E+02  0.27392892672E+02  0.10150509952E+02  0.35924063046E+02  0.00000000000E+00 0.  1.
         22    1    3    3    0    0 -0.91753731234E+02 -0.27050477778E+02  0.16383010104E+03  0.18971235477E+03  0.00000000000E+00 0.  1.
</event>
<event>
 7    1  0.6443388E-006  0.6931701E+02  0.7818608E-02  0.1365811E+00
          2   -1    0    0  502    0  0.00000000000E+00  0.00000000000E+00  0.37787132287E+03  0.37787132287E+03  0.00000000000E+00 0. -1.
          1   -1    0    0  501    0 -0.00000000000E+00 -0.00000000000E+00 -0.12918497515E+03  0.12918497515E+03  0.00000000000E+00 0. -1.
         25    2    1    2    0    0 -0.15445806052E+02  0.25202968756E+02  0.10652161242E+03  0.16686516463E+03  0.12499346661E+03 0.  0.
          2    1    1    2  501    0 -0.46112864417E+02 -0.57067975248E+02 -0.79357185309E+02  0.10807734695E+03  0.00000000000E+00 0. -1.
          1    1    1    2  502    0  0.61558670470E+02  0.31865006493E+02  0.22152192060E+03  0.23211378644E+03  0.00000000000E+00 0. -1.
         22    1    3    3    0    0  0.47818053165E+02 -0.80239227229E+01  0.73723965804E+02  0.88239292145E+02  0.00000000000E+00 0. -1.
         22    1    3    3    0    0 -0.63263859217E+02  0.33226891479E+02  0.32797646614E+02  0.78625872483E+02  0.00000000000E+00 0. -1.
</event>
<event>
 7    1  0.6443388E-006  0.7270990E+02  0.7818608E-02  0.1420500E+00
          2   -1    0    0  502    0  0.00000000000E+00  0.00000000000E+00  0.98438214948E+03  0.98438214948E+03  0.00000000000E+00 0. -1.
          1   -1    0    0  501    0 -0.00000000000E+00 -0.00000000000E+00 -0.27088944591E+02  0.27088944591E+02  0.00000000000E+00 0. -1.
         25    2    1    2    0    0 -0.40917747689E+02 -0.96605882321E+02  0.50769692410E+03  0.53328039142E+03  0.12499940225E+03 0.  0.
          2    1    1    2  501    0  0.39162569432E+02  0.55167378680E+02  0.73820615533E+02  0.10013306044E+03  0.00000000000E+00 0. -1.
          1    1    1    2  502    0  0.17551782565E+01  0.41438503640E+02  0.37577566526E+03  0.37805764221E+03  0.00000000000E+00 0. -1.
         22    1    3    3    0    0 -0.40537023177E+02 -0.32638222142E+02  0.53633912502E+02  0.74733529040E+02  0.00000000000E+00 0. -1.
         22    1    3    3    0    0 -0.38072451191E+00 -0.63967660179E+02  0.45406301160E+03  0.45854686238E+03  0.00000000000E+00 0. -1.
</event>
<event>
 7    1  0.6443388E-006  0.1350843E+03  0.7818608E-02  0.1336317E+00
          2   -1    0    0  502    0  0.00000000000E+00  0.00000000000E+00  0.12208434126E+04  0.12208434126E+04  0.00000000000E+00 0. -1.
          1   -1    0    0  501    0 -0.00000000000E+00 -0.00000000000E+00 -0.43707297911E+03  0.43707297911E+03  0.00000000000E+00 0. -1.
         25    2    1    2    0    0  0.17428437115E+03  0.30613593304E+02  0.52215437503E+02  0.22285392678E+03  0.12500074657E+03 0.  0.
          2    1    1    2  501    0 -0.42270014686E+02 -0.13769143448E+02 -0.34623982589E+03  0.34908216867E+03  0.00000000000E+00 0. -1.
          1    1    1    2  502    0 -0.13201435647E+03 -0.16844449857E+02  0.10777948219E+04  0.10859802963E+04  0.00000000000E+00 0. -1.
         22    1    3    3    0    0  0.11072923142E+03  0.73918848156E+02  0.59052973495E+02  0.14564412958E+03  0.00000000000E+00 0.  1.
         22    1    3    3    0    0  0.63555139738E+02 -0.43305254851E+02 -0.68375359917E+01  0.77209797198E+02  0.00000000000E+00 0.  1.
</event>
<event>
 7    1  0.6443388E-006  0.1541126E+03  0.7818608E-02  0.1287465E+00
          2   -1    0    0  502    0  0.00000000000E+00  0.00000000000E+00  0.74945177317E+03  0.74945177317E+03  0.00000000000E+00 0. -1.
          1   -1    0    0  501    0 -0.00000000000E+00 -0.00000000000E+00 -0.23667192581E+03  0.23667192581E+03  0.00000000000E+00 0. -1.
         25    2    1    2    0    0  0.18607447015E+03 -0.66240753381E+02  0.25494465545E+03  0.34588061746E+03  0.12500031337E+03 0.  0.
          2    1    1    2  501    0 -0.44795800022E+02  0.40863735972E+02 -0.17448312298E+03  0.18471834999E+03  0.00000000000E+00 0. -1.
          1    1    1    2  502    0 -0.14127867013E+03  0.25377017409E+02  0.43231831489E+03  0.45552473153E+03  0.00000000000E+00 0. -1.
         22    1    3    3    0    0  0.35754282322E+02 -0.11944458418E+02  0.15003764475E+03  0.15470078743E+03  0.00000000000E+00 0.  1.
         22    1    3    3    0    0  0.15032018783E+03 -0.54296294963E+02  0.10490701070E+03  0.19117983003E+03  0.00000000000E+00 0.  1.
</event>
<event>
 7    1  0.6443388E-006  0.1029692E+03  0.7818608E-02  0.1349641E+00
          2   -1    0    0  502    0  0.00000000000E+00  0.00000000000E+00  0.18492127704E+04  0.18492127704E+04  0.00000000000E+00 0. -1.
          1   -1    0    0  501    0 -0.00000000000E+00 -0.00000000000E+00 -0.10695424351E+03  0.10695424351E+03  0.00000000000E+00 0. -1.
         25    2    1    2    0    0  0.12372135423E+03 -0.72630592998E+02  0.20197195744E+03  0.27748840937E+03  0.12499987683E+03 0.  0.
          2    1    1    2  501    0 -0.72222920094E+02  0.65487563229E+02 -0.34212639082E+02  0.10332122627E+03  0.00000000000E+00 0. -1.
          1    1    1    2  502    0 -0.51498434137E+02  0.71430297684E+01  0.15744992086E+04  0.15753573783E+04  0.00000000000E+00 0. -1.
         22    1    3    3    0    0  0.14811161594E+03 -0.73848075278E+02  0.16999314517E+03  0.23725146659E+03  0.00000000000E+00 0. -1.
         22    1    3    3    0    0 -0.24390261706E+02  0.12174822802E+01  0.31978812275E+02  0.40236942773E+02  0.00000000000E+00 0. -1.
</event>
<event>
 7    1  0.6443388E-006  0.2265715E+03  0.7818608E-02  0.1310279E+00
          2   -1    0    0  502    0  0.00000000000E+00  0.00000000000E+00  0.69252185432E+02  0.69252185432E+02  0.00000000000E+00 0. -1.
          1   -1    0    0  501    0 -0.00000000000E+00 -0.00000000000E+00 -0.22902659809E+04  0.22902659809E+04  0.00000000000E+00 0. -1.
         25    2    1    2    0    0  0.16148883766E+03 -0.14699413659E+03 -0.44281404006E+03  0.50930822800E+03  0.12499870462E+03 0.  0.
          2    1    1    2  501    0  0.30618259744E+02  0.13365024475E+02 -0.14317038635E+04  0.14320935914E+04  0.00000000000E+00 0. -1.
          1    1    1    2  502    0 -0.19210709740E+03  0.13362911211E+03 -0.34649589190E+03  0.41811634694E+03  0.00000000000E+00 0. -1.
         22    1    3    3    0    0  0.73348353060E+01  0.19135609877E+02 -0.70714717700E+02  0.73624334793E+02  0.00000000000E+00 0. -1.
         22    1    3    3    0    0  0.15415400235E+03 -0.16612974647E+03 -0.37209932236E+03  0.43568389321E+03  0.00000000000E+00 0. -1.
</event>
<event>
 7    1  0.6443388E-006  0.3641765E+02  0.7818608E-02  0.1563161E+00
          2   -1    0    0  502    0  0.00000000000E+00  0.00000000000E+00  0.51056134934E+03  0.51056134934E+03  0.00000000000E+00 0. -1.
          1   -1    0    0  501    0 -0.00000000000E+00 -0.00000000000E+00 -0.78265425329E+02  0.78265425329E+02  0.00000000000E+00 0. -1.
         25    2    1    2    0    0  0.12525533248E+02 -0.26346057336E+02  0.17697036540E+02  0.12957424889E+03  0.12500118861E+03 0.  0.
          2    1    1    2  501    0 -0.38996196164E+02  0.10882313557E+02 -0.29371627760E+01  0.40592548439E+02  0.00000000000E+00 0. -1.
          1    1    1    2  502    0  0.26470662916E+02  0.15463743780E+02  0.41753605024E+03  0.41865997733E+03  0.00000000000E+00 0. -1.
         22    1    3    3    0    0  0.38924537044E+02  0.36074526660E+02 -0.13805783211E+02  0.54836946559E+02  0.00000000000E+00 0.  1.
         22    1    3    3    0    0 -0.26399003796E+02 -0.62420583996E+02  0.31502819751E+02  0.74737302334E+02  0.00000000000E+00 0.  1.
</event>
<event>
 7    1  0.6443388E-006  0.1099977E+03  0.7818608E-02  0.1453455E+00
          2   -1    0    0  502    0  0.00000000000E+00  0.00000000000E+00  0.46178901476E+03  0.46178901476E+03  0.00000000000E+00 0. -1.
          1   -1    0    0  501    0 -0.00000000000E+00 -0.00000000000E+00 -0.76566066410E+03  0.76566066410E+03  0.00000000000E+00 0. -1.
         25    2    1    2    0    0 -0.12430250141E+03  0.16341214915E+02  0.80832903294E+02  0.19461959276E+03  0.12499872186E+03 0.  0.
          2    1    1    2  501    0  0.16672642937E+02 -0.13428361538E+02 -0.69965584905E+03  0.69998328911E+03  0.00000000000E+00 0. -1.
          1    1    1    2  502    0  0.10762985848E+03 -0.29128533767E+01  0.31495129642E+03  0.33284679699E+03  0.00000000000E+00 0. -1.
         22    1    3    3    0    0 -0.44233137698E+02  0.61469309960E+02  0.57663410689E+01  0.75949306955E+02  0.00000000000E+00 0.  1.
         22    1    3    3    0    0 -0.80069363715E+02 -0.45128095046E+02  0.75066562225E+02  0.11867028580E+03  0.00000000000E+00 0.  1.
</event>
<event>
 7    1  0.6443388E-006  0.2262105E+03  0.7818608E-02  0.1253827E+00
          2   -1    0    0  502    0  0.00000000000E+00  0.00000000000E+00  0.27294949463E+03  0.27294949463E+03  0.00000000000E+00 0. -1.
          1   -1    0    0  501    0 -0.00000000000E+00 -0.00000000000E+00 -0.81268898587E+03  0.81268898587E+03  0.00000000000E+00 0. -1.
         25    2    1    2    0    0  0.13884550126E+03  0.11974785155E+03 -0.24747690337E+03  0.33239622323E+03  0.12499924138E+03 0.  0.
          2    1    1    2  501    0  0.55749921634E+02  0.12671214585E+02 -0.46042815319E+03  0.46396411250E+03  0.00000000000E+00 0. -1.
          1    1    1    2  502    0 -0.19459542289E+03 -0.13241906614E+03  0.16816556532E+03  0.28927814478E+03  0.00000000000E+00 0. -1.
         22    1    3    3    0    0  0.12549510852E+03  0.27276573893E+02 -0.13972517359E+03  0.18977923459E+03  0.00000000000E+00 0.  1.
         22    1    3    3    0    0  0.13350392732E+02  0.92471277659E+02 -0.10775172978E+03  0.14261698864E+03  0.00000000000E+00 0.  1.
</event>
<event>
 7    1  0.6443388E-006  0.6265899E+02  0.7818608E-02  0.1431393E+00
          2   -1    0    0  502    0  0.00000000000E+00  0.00000000000E+00  0.85936577075E+02  0.85936577075E+02  0.00000000000E+00 0. -1.
          1   -1    0    0  501    0 -0.00000000000E+00 -0.00000000000E+00 -0.22680262390E+04  0.22680262390E+04  0.00000000000E+00 0. -1.
         25    2    1    2    0    0 -0.81191739413E+02  0.59069715423E+02 -0.12910210701E+04  0.13009382345E+04  0.12499422597E+03 0.  0.
          2    1    1    2  501    0  0.47800726960E+02 -0.29968550719E+02 -0.96510381091E+03  0.96675146204E+03  0.00000000000E+00 0. -1.
          1    1    1    2  502    0  0.33391012452E+02 -0.29101164704E+02  0.74035219090E+02  0.86273119599E+02  0.00000000000E+00 0. -1.
         22    1    3    3    0    0 -0.26866363518E+01  0.11540573211E+02 -0.86782638938E+03  0.86790727900E+03  0.00000000000E+00 0.  1.
         22    1    3    3    0    0 -0.78505103061E+02  0.47529142212E+02 -0.42319468075E+03  0.43303095546E+03  0.00000000000E+00 0.  1.
</event>
<event>
 7    1  0.6443388E-006  0.9210800E+02  0.7818608E-02  0.1343392E+00
          2   -1    0    0  502    0  0.00000000000E+00  0.00000000000E+00  0.72941138671E+03  0.72941138671E+03  0.00000000000E+00 0. -1.
          1   -1    0    0  501    0 -0.00000000000E+00 -0.00000000000E+00 -0.72973280849E+02  0.72973280849E+02  0.00000000000E+00 0. -1.
         25    2    1    2    0    0  0.86326043644E+02 -0.41246553620E+02  0.12602965615E+03  0.20164614412E+03  0.12499691682E+03 0.  0.
          2    1    1    2  501    0 -0.44238478007E+02 -0.42466071073E+02 -0.80257786914E+00  0.61327434807E+02  0.00000000000E+00 0. -1.
          1    1    1    2  502    0 -0.42087565636E+02  0.83712624693E+02  0.53121102758E+03  0.53941108863E+03  0.00000000000E+00 0. -1.
         22    1    3    3    0    0  0.10430562150E+03 -0.17236532606E+02  0.44373650155E+02  0.11465505467E+03  0.00000000000E+00 0. -1.
         22    1    3    3    0    0 -0.17979577859E+02 -0.24010021014E+02  0.81656005995E+02  0.86991089452E+02  0.00000000000E+00 0. -1.
</event>
<event>
 7    1  0.6443388E-006  0.1427602E+03  0.7818608E-02  0.1220018E+00
          2   -1    0    0  502    0  0.00000000000E+00  0.00000000000E+00  0.25392413487E+04  0.25392413487E+04  0.00000000000E+00 0. -1.
          1   -1    0    0  501    0 -0.00000000000E+00 -0.00000000000E+00 -0.25905712168E+03  0.25905712168E+03  0.00000000000E+00 0. -1.
         25    2    1    2    0    0 -0.45025644515E+02 -0.84120798705E+01  0.41137640469E+03  0.43238076283E+03  0.12499802390E+03 0.  0.
          2    1    1    2  501    0  0.10720876141E+03 -0.10339070203E+03 -0.22411272210E+03  0.26909081737E+03  0.00000000000E+00 0. -1.
          1    1    1    2  502    0 -0.62183116897E+02  0.11180278190E+03  0.20929205444E+04  0.20968268901E+04  0.00000000000E+00 0. -1.
         22    1    3    3    0    0  0.18531067392E+02  0.37298842623E+02  0.64487809747E+02  0.76767712781E+02  0.00000000000E+00 0.  1.
         22    1    3    3    0    0 -0.63556711907E+02 -0.45710922493E+02  0.34688859494E+03  0.35561305004E+03  0.00000000000E+00 0.  1.
</event>
<event>
 7    1  0.7062461E-006  0.7207087E+02  0.7818608E-02  0.1375476E+00
          2   -1    0    0  502    0  0.00000000000E+00  0.00000000000E+00  0.24060972181E+04  0.24060972181E+04  0.00000000000E+00 0. -1.
          1   -1    0    0  501    0 -0.00000000000E+00 -0.00000000000E+00 -0.85722604783E+03  0.85722604783E+03  0.00000000000E+00 0. -1.
         25    2    1    2    0    0 -0.15271623278E+02  0.95662886280E+02 -0.41518500116E+02  0.16350747080E+03  0.12500518736E+03 0.  0.
          2    1    1    2  501    0  0.50157172502E+02 -0.32624737074E+02 -0.75297262519E+03  0.75534620519E+03  0.00000000000E+00 0. -1.
          1    1    1    2  502    0 -0.34885549224E+02 -0.63038149206E+02  0.23433622956E+04  0.23444695900E+04  0.00000000000E+00 0. -1.
         22    1    3    3    0    0  0.37997362675E+02  0.97425869073E+02 -0.22904392136E+02  0.10705237370E+03  0.00000000000E+00 0. -1.
         22    1    3    3    0    0 -0.53268985953E+02 -0.17629827928E+01 -0.18614107980E+02  0.56455097101E+02  0.00000000000E+00 0. -1.
</event>
<event>
 7    1  0.6443388E-006  0.6700645E+02  0.7818608E-02  0.1442851E+00
          2   -1    0    0  502    0  0.00000000000E+00  0.00000000000E+00  0.39435347185E+03  0.39435347185E+03  0.00000000000E+00 0. -1.
          1   -1    0    0  501    0 -0.00000000000E+00 -0.00000000000E+00 -0.83810876340E+03  0.83810876340E+03  0.00000000000E+00 0. -1.
         25    2    1    2    0    0  0.90379962694E+02  0.33711963363E+02 -0.12761117665E+02  0.15840926460E+03  0.12500245940E+03 0.  0.
          2    1    1    2  501    0 -0.37556406685E+02  0.58332210596E+01 -0.74865092931E+03  0.74961505062E+03  0.00000000000E+00 0. -1.
          1    1    1    2  502    0 -0.52823556009E+02 -0.39545184422E+02  0.31765675543E+03  0.32443792003E+03  0.00000000000E+00 0. -1.
         22    1    3    3    0    0  0.17310383737E+02  0.49358675645E+02  0.40911389296E+02  0.66405346326E+02  0.00000000000E+00 0. -1.
         22    1    3    3    0    0  0.73069578958E+02 -0.15646712282E+02 -0.53672506961E+02  0.92003918274E+02  0.00000000000E+00 0. -1.
</event>
<event>
 7    1  0.6443388E-006  0.5505415E+02  0.7818608E-02  0.1468610E+00
          2   -1    0    0  502    0  0.00000000000E+00  0.00000000000E+00  0.54921042127E+03  0.54921042127E+03  0.00000000000E+00 0. -1.
          1   -1    0    0  501    0 -0.00000000000E+00 -0.00000000000E+00 -0.41223367651E+03  0.41223367651E+03  0.00000000000E+00 0. -1.
         25    2    1    2    0    0  0.64732303494E+02  0.25158533182E+02 -0.35675284965E+01  0.14304313539E+03  0.12500155365E+03 0.  0.
          2    1    1    2  501    0 -0.32888533240E+02  0.19666527574E+02 -0.33626017191E+03  0.33843659840E+03  0.00000000000E+00 0. -1.
          1    1    1    2  502    0 -0.31843770254E+02 -0.44825060756E+02  0.47680444517E+03  0.47996436400E+03  0.00000000000E+00 0. -1.
         22    1    3    3    0    0  0.59437046586E+02 -0.42307832036E+02  0.11104151540E+02  0.73797136394E+02  0.00000000000E+00 0.  1.
         22    1    3    3    0    0  0.52952569076E+01  0.67466365218E+02 -0.14671680037E+02  0.69245998993E+02  0.00000000000E+00 0.  1.
</event>
<event>
 7    1  0.6443388E-006  0.1428858E+03  0.7818608E-02  0.1309086E+00
          2   -1    0    0  502    0  0.00000000000E+00  0.00000000000E+00  0.10542459306E+04  0.10542459306E+04  0.00000000000E+00 0. -1.
          1   -1    0    0  501    0 -0.00000000000E+00 -0.00000000000E+00 -0.78698017893E+02  0.78698017893E+02  0.00000000000E+00 0. -1.
         25    2    1    2    0    0  0.33733248125E+02 -0.17244759351E+03  0.33803109756E+03  0.40095813779E+03  0.12500520311E+03 0.  0.
          2    1    1    2  501    0 -0.54963003530E+02  0.12328396468E+03  0.52987819924E+02  0.14500888512E+03  0.00000000000E+00 0. -1.
          1    1    1    2  502    0  0.21229755404E+02  0.49163628836E+02  0.58452899526E+03  0.58697692562E+03  0.00000000000E+00 0. -1.
         22    1    3    3    0    0  0.69102419345E+02 -0.16520782227E+03  0.29067489030E+03  0.34140981349E+03  0.00000000000E+00 0.  1.
         22    1    3    3    0    0 -0.35369171220E+02 -0.72397712452E+01  0.47356207264E+02  0.59548324299E+02  0.00000000000E+00 0.  1.
</event>
<event>
 7    1  0.6443388E-006  0.4453155E+02  0.7818608E-02  0.1511573E+00
          2   -1    0    0  502    0  0.00000000000E+00  0.00000000000E+00  0.67964418463E+03  0.67964418463E+03  0.00000000000E+00 0. -1.
          1   -1    0    0  501    0 -0.00000000000E+00 -0.00000000000E+00 -0.12808339607E+03  0.12808339607E+03  0.00000000000E+00 0. -1.
         25    2    1    2    0    0 -0.55863100392E+02 -0.48365189255E+02  0.96202603291E+02  0.17418510096E+03  0.12500252398E+03 0.  0.
          2    1    1    2  501    0  0.15222330206E+02  0.31649696401E+02 -0.84703598262E+02  0.91695813305E+02  0.00000000000E+00 0. -1.
          1    1    1    2  502    0  0.40640770186E+02  0.16715492854E+02  0.54006178352E+03  0.54184666643E+03  0.00000000000E+00 0. -1.
         22    1    3    3    0    0  0.15961633505E+02 -0.15796541580E+02 -0.22424265162E+02  0.31735660354E+02  0.00000000000E+00 0.  1.
         22    1    3    3    0    0 -0.71824733897E+02 -0.32568647676E+02  0.11862686845E+03  0.14244944061E+03  0.00000000000E+00 0.  1.
</event>
<event>
 7    1  0.6443388E-006  0.3599790E+02  0.7818608E-02  0.1600356E+00
          2   -1    0    0  502    0  0.00000000000E+00  0.00000000000E+00  0.19052815028E+04  0.19052815028E+04  0.00000000000E+00 0. -1.
          1   -1    0    0  501    0 -0.00000000000E+00 -0.00000000000E+00 -0.83795474798E+03  0.83795474798E+03  0.00000000000E+00 0. -1.
         25    2    1    2    0    0  0.24954991131E+02 -0.42021292421E+01  0.13815705256E+04  0.13874445414E+04  0.12499931573E+03 0.  0.
          2    1    1    2  501    0 -0.29973894280E+02 -0.19944146372E+02 -0.83433732516E+03  0.83511375001E+03  0.00000000000E+00 0. -1.
          1    1    1    2  502    0  0.50189031493E+01  0.24146275614E+02  0.52009355442E+03  0.52067795936E+03  0.00000000000E+00 0. -1.
         22    1    3    3    0    0  0.67110226490E+02  0.17414091366E+02  0.52406825206E+03  0.52863462419E+03  0.00000000000E+00 0. -1.
         22    1    3    3    0    0 -0.42155235359E+02 -0.21616220608E+02  0.85750227354E+03  0.85880991726E+03  0.00000000000E+00 0. -1.
</event>
<event>
 7    1  0.6443388E-006  0.2189515E+03  0.7818608E-02  0.1242183E+00
          2   -1    0    0  502    0  0.00000000000E+00  0.00000000000E+00  0.19906119622E+04  0.19906119622E+04  0.00000000000E+00 0. -1.
          1   -1    0    0  501    0 -0.00000000000E+00 -0.00000000000E+00 -0.17114052909E+04  0.17114052909E+04  0.00000000000E+00 0. -1.
         25    2    1    2    0    0  0.19723217560E+03 -0.19548743896E+03  0.31656767507E+03  0.43926610308E+03  0.12499498605E+03 0.  0.
          2    1    1    2  501    0 -0.53575760350E+02  0.39188457472E+02 -0.16423965492E+04  0.16437373641E+04  0.00000000000E+00 0. -1.
          1    1    1    2  502    0 -0.14365641525E+03  0.15629898149E+03  0.16050355453E+04  0.16190137859E+04  0.00000000000E+00 0. -1.
         22    1    3    3    0    0  0.26961740660E+02 -0.50201525206E+01  0.10204124863E+03  0.10566245224E+03  0.00000000000E+00 0.  1.
         22    1    3    3    0    0  0.17027043494E+03 -0.19046728644E+03  0.21452642644E+03  0.33360365085E+03  0.00000000000E+00 0.  1.
</event>
<event>
 7    1  0.6443388E-006  0.5712747E+02  0.7818608E-02  0.1473243E+00
          2   -1    0    0  502    0  0.00000000000E+00  0.00000000000E+00  0.11347003561E+04  0.11347003561E+04  0.00000000000E+00 0. -1.
          1   -1    0    0  501    0 -0.00000000000E+00 -0.00000000000E+00 -0.12346089039E+04  0.12346089039E+04  0.00000000000E+00 0. -1.
         25    2    1    2    0    0 -0.46122961856E+02 -0.52104862370E+02  0.54274886523E+02  0.15301931183E+03  0.12500760854E+03 0.  0.
          2    1    1    2  501    0 -0.82596309535E+01  0.34757810434E+02 -0.11841770290E+04  0.11847158152E+04  0.00000000000E+00 0. -1.
          1    1    1    2  502    0  0.54382592809E+02  0.17347051937E+02  0.10299935947E+04  0.10315741329E+04  0.00000000000E+00 0. -1.
         22    1    3    3    0    0  0.17584604126E+02  0.16178112533E+02  0.54634466816E+02  0.59631154539E+02  0.00000000000E+00 0.  1.
         22    1    3    3    0    0 -0.63707565982E+02 -0.68282974903E+02 -0.35958029294E+00  0.93388157295E+02  0.00000000000E+00 0.  1.
</event>
<event>
 7    1  0.6443388E-006  0.6708549E+02  0.7818608E-02  0.1509240E+00
          2   -1    0    0  502    0  0.00000000000E+00  0.00000000000E+00  0.12359975850E+04  0.12359975850E+04  0.00000000000E+00 0. -1.
          1   -1    0    0  501    0 -0.00000000000E+00 -0.00000000000E+00 -0.17354510049E+04  0.17354510049E+04  0.00000000000E+00 0. -1.
         25    2    1    2    0    0 -0.43897412909E+02  0.16009043890E+02  0.30263945221E+02  0.13683532427E+03  0.12499890896E+03 0.  0.
          2    1    1    2  501    0  0.56959863045E+02 -0.35765368715E+02 -0.16813712248E+04  0.16827158950E+04  0.00000000000E+00 0. -1.
          1    1    1    2  502    0 -0.13062450136E+02  0.19756324825E+02  0.11516538597E+04  0.11518973707E+04  0.00000000000E+00 0. -1.
         22    1    3    3    0    0 -0.56320812945E+02  0.58902881324E+02  0.40523791182E+02  0.91015169345E+02  0.00000000000E+00 0. -1.
         22    1    3    3    0    0  0.12423400037E+02 -0.42893837434E+02 -0.10259845962E+02  0.45820154926E+02  0.00000000000E+00 0. -1.
</event>
<event>
 7    1  0.6443388E-006  0.3040167E+03  0.7818608E-02  0.1114195E+00
          2   -1    0    0  502    0  0.00000000000E+00  0.00000000000E+00  0.10897065087E+04  0.10897065087E+04  0.00000000000E+00 0. -1.
          1   -1    0    0  501    0 -0.00000000000E+00 -0.00000000000E+00 -0.69350262701E+03  0.69350262701E+03  0.00000000000E+00 0. -1.
         25    2    1    2    0    0  0.33680177268E+02  0.40442577774E+03  0.78079868561E+03  0.88880094068E+03  0.12500384259E+03 0.  0.
          2    1    1    2  501    0  0.35544259155E+02 -0.20014720121E+03 -0.57301893912E+03  0.60800740218E+03  0.00000000000E+00 0. -1.
          1    1    1    2  502    0 -0.69224436423E+02 -0.20427857653E+03  0.18842413525E+03  0.28640079289E+03  0.00000000000E+00 0. -1.
         22    1    3    3    0    0 -0.11428245511E+02  0.89866437732E+02  0.29248201369E+03  0.30618998964E+03  0.00000000000E+00 0.  1.
         22    1    3    3    0    0  0.45108422779E+02  0.31455934001E+03  0.48831667192E+03  0.58261095104E+03  0.00000000000E+00 0.  1.
</event>
<event>
 7    1  0.6443388E-006  0.7001638E+02  0.7818608E-02  0.1415257E+00
          2   -1    0    0  502    0  0.00000000000E+00  0.00000000000E+00  0.34460991745E+04  0.34460991745E+04  0.00000000000E+00 0. -1.
          1   -1    0    0  501    0 -0.00000000000E+00 -0.00000000000E+00 -0.22732523586E+02  0.22732523586E+02  0.00000000000E+00 0. -1.
         25    2    1    2    0    0 -0.36583622380E+02  0.10524191539E+03  0.22260552364E+04  0.22323409202E+04  0.12493936985E+03 0.  0.
          2    1    1    2  501    0  0.11751210355E+02 -0.67895384739E+02  0.42814538398E+02  0.81123109605E+02  0.00000000000E+00 0. -1.
          1    1    1    2  502    0  0.24832412024E+02 -0.37346530646E+02  0.11544968761E+04  0.11553676683E+04  0.00000000000E+00 0. -1.
         22    1    3    3    0    0 -0.20069613879E+01 -0.24254064715E+02  0.14981012419E+03  0.15177404540E+03  0.00000000000E+00 0. -1.
         22    1    3    3    0    0 -0.34576660992E+02  0.12949598010E+03  0.20762451122E+04  0.20805668748E+04  0.00000000000E+00 0. -1.
</event>
<event>
 7    1  0.6443388E-006  0.7877949E+02  0.7818608E-02  0.1358952E+00
          2   -1    0    0  502    0  0.00000000000E+00  0.00000000000E+00  0.19748962288E+04  0.19748962288E+04  0.00000000000E+00 0. -1.
          1   -1    0    0  501    0 -0.00000000000E+00 -0.00000000000E+00 -0.51033772760E+02  0.51033772760E+02  0.00000000000E+00 0. -1.
         25    2    1    2    0    0  0.13748829678E+03  0.18008131331E+02  0.42055484680E+03  0.46012876000E+03  0.12499908827E+03 0.  0.
          2    1    1    2  501    0 -0.62392585965E+02 -0.71283594316E+01  0.22622608882E+01  0.62839208428E+02  0.00000000000E+00 0. -1.
          1    1    1    2  502    0 -0.75095710816E+02 -0.10879771900E+02  0.15010453484E+04  0.15029620332E+04  0.00000000000E+00 0. -1.
         22    1    3    3    0    0  0.21992659354E+01  0.26203085034E+02  0.10603047189E+02  0.28352478651E+02  0.00000000000E+00 0. -1.
         22    1    3    3    0    0  0.13528903085E+03 -0.81949537030E+01  0.40995179961E+03  0.43177628135E+03  0.00000000000E+00 0. -1.
</event>
<event>
 7    1  0.6443388E-006  0.1219452E+03  0.7818608E-02  0.1334422E+00
          2   -1    0    0  502    0  0.00000000000E+00  0.00000000000E+00  0.98033772338E+03  0.98033772338E+03  0.00000000000E+00 0. -1.
          1   -1    0    0  501    0 -0.00000000000E+00 -0.00000000000E+00 -0.46936360073E+03  0.46936360073E+03  0.00000000000E+00 0. -1.
         25    2    1    2    0    0 -0.12063068468E+03 -0.10885118344E+03  0.13886020542E+03  0.24760657201E+03  0.12500606238E+03 0.  0.
          2    1    1    2  501    0  0.47750812005E+02  0.15052292264E+02 -0.40897356422E+03  0.41202680469E+03  0.00000000000E+00 0. -1.
          1    1    1    2  502    0  0.72879872678E+02  0.93798891175E+02  0.78108748146E+03  0.79006794741E+03  0.00000000000E+00 0. -1.
         22    1    3    3    0    0 -0.59347668515E+02 -0.38086589318E+01  0.10614744897E+03  0.12167141227E+03  0.00000000000E+00 0. -1.
         22    1    3    3    0    0 -0.61283016168E+02 -0.10504252451E+03  0.32712756453E+02  0.12593515975E+03  0.00000000000E+00 0. -1.
</event>
<event>
 7    1  0.6443388E-006  0.1025428E+03  0.7818608E-02  0.1359625E+00
          2   -1    0    0  502    0  0.00000000000E+00  0.00000000000E+00  0.27541218503E+03  0.27541218503E+03  0.00000000000E+00 0. -1.
          1   -1    0    0  501    0 -0.00000000000E+00 -0.00000000000E+00 -0.18275536002E+04  0.18275536002E+04  0.00000000000E+00 0. -1.
         25    2    1    2    0    0  0.62285205666E+02  0.25600772086E+02 -0.16722677680E+03  0.21937475544E+03  0.12500256824E+03 0.  0.
          2    1    1    2  501    0  0.42451099154E+02 -0.22345518583E+02 -0.16228732757E+04  0.16235821775E+04  0.00000000000E+00 0. -1.
          1    1    1    2  502    0 -0.10473630482E+03 -0.32552535026E+01  0.23795863731E+03  0.26000885234E+03  0.00000000000E+00 0. -1.
         22    1    3    3    0    0  0.87863910830E+02 -0.19225621681E+02 -0.97864731650E+02  0.13291800877E+03  0.00000000000E+00 0. -1.
         22    1    3    3    0    0 -0.25578705164E+02  0.44826393767E+02 -0.69362045151E+02  0.86456746663E+02  0.00000000000E+00 0. -1.
</event>
<event>
 7    1  0.8049362E-006  0.8126321E+02  0.7818608E-02  0.1395337E+00
          2   -1    0    0  502    0  0.00000000000E+00  0.00000000000E+00  0.12467261340E+04  0.12467261340E+04  0.00000000000E+00 0. -1.
          1   -1    0    0  501    0 -0.00000000000E+00 -0.00000000000E+00 -0.90930535465E+03  0.90930535465E+03  0.00000000000E+00 0. -1.
         25    2    1    2    0    0 -0.13692927802E+02  0.36392051891E+02 -0.74096232145E+02  0.15042160167E+03  0.12499811565E+03 0.  0.
          2    1    1    2  501    0  0.48414346911E+01  0.44928680053E+02 -0.79501992382E+03  0.79630314896E+03  0.00000000000E+00 0. -1.
          1    1    1    2  502    0  0.88514931113E+01 -0.81320731944E+02  0.12065369353E+04  0.12093067380E+04  0.00000000000E+00 0. -1.
         22    1    3    3    0    0 -0.36572085272E+02 -0.29046746198E+02 -0.65676168277E+02  0.80589018888E+02  0.00000000000E+00 0. -1.
         22    1    3    3    0    0  0.22879157469E+02  0.65438798088E+02 -0.84200638687E+01  0.69832582777E+02  0.00000000000E+00 0. -1.
</event>
<event>
 7    1  0.6443388E-006  0.7635861E+02  0.7818608E-02  0.1436560E+00
          2   -1    0    0  502    0  0.00000000000E+00  0.00000000000E+00  0.12090227574E+04  0.12090227574E+04  0.00000000000E+00 0. -1.
          1   -1    0    0  501    0 -0.00000000000E+00 -0.00000000000E+00 -0.64572331830E+02  0.64572331830E+02  0.00000000000E+00 0. -1.
         25    2    1    2    0    0 -0.40702171173E+02  0.23872623342E+02  0.17997805916E+03  0.22415518144E+03  0.12500749860E+03 0.  0.
          2    1    1    2  501    0  0.71420865648E+02 -0.40557948446E+02 -0.21735405005E+01  0.82162105075E+02  0.00000000000E+00 0. -1.
          1    1    1    2  502    0 -0.30718694475E+02  0.16685325103E+02  0.96664590689E+03  0.96727780268E+03  0.00000000000E+00 0. -1.
         22    1    3    3    0    0 -0.25959183030E+02 -0.27195995004E+02  0.16457429520E+03  0.16881409884E+03  0.00000000000E+00 0. -1.
         22    1    3    3    0    0 -0.14742988143E+02  0.51068618347E+02  0.15403763956E+02  0.55341082599E+02  0.00000000000E+00 0. -1.
</event>
<event>
 7    1  0.6443388E-006  0.1221093E+03  0.7818608E-02  0.1307875E+00
          2   -1    0    0  502    0  0.00000000000E+00  0.00000000000E+00  0.63232815114E+03  0.63232815114E+03  0.00000000000E+00 0. -1.
          1   -1    0    0  501    0 -0.00000000000E+00 -0.00000000000E+00 -0.80182091236E+03  0.80182091236E+03  0.00000000000E+00 0. -1.
         25    2    1    2    0    0 -0.97289714635E+02 -0.64839699738E+02  0.26679737559E+02  0.17322911279E+03  0.12500816728E+03 0.  0.
          2    1    1    2  501    0  0.42860114054E+02 -0.46660172015E+02 -0.71990666317E+03  0.72268925875E+03  0.00000000000E+00 0. -1.
          1    1    1    2  502    0  0.54429600581E+02  0.11149987175E+03  0.52373416439E+03  0.53823069196E+03  0.00000000000E+00 0. -1.
         22    1    3    3    0    0 -0.11612499898E+03 -0.83528157302E+02  0.30947026660E+02  0.14635466138E+03  0.00000000000E+00 0. -1.
         22    1    3    3    0    0  0.18835284341E+02  0.18688457564E+02 -0.42672891014E+01  0.26874451410E+02  0.00000000000E+00 0. -1.
</event>
<event>
 7    1  0.6443388E-006  0.2592584E+03  0.7818608E-02  0.1265942E+00
          2   -1    0    0  502    0  0.00000000000E+00  0.00000000000E+00  0.39346273847E+03  0.39346273847E+03  0.00000000000E+00 0. -1.
          1   -1    0    0  501    0 -0.00000000000E+00 -0.00000000000E+00 -0.71626267525E+03  0.71626267525E+03  0.00000000000E+00 0. -1.
         25    2    1    2    0    0  0.70707244693E+02 -0.24058936085E+03  0.21724656966E+02  0.28102450059E+03  0.12498021525E+03 0.  0.
          2    1    1    2  501    0  0.44256643729E+02  0.15459289295E+01 -0.51271284661E+03  0.51462170911E+03  0.00000000000E+00 0. -1.
          1    1    1    2  502    0 -0.11496388842E+03  0.23904343193E+03  0.16818825287E+03  0.31407920401E+03  0.00000000000E+00 0. -1.
         22    1    3    3    0    0 -0.18152696943E+02 -0.15502895575E+03  0.19954075944E+01  0.15610086220E+03  0.00000000000E+00 0.  1.
         22    1    3    3    0    0  0.88859941635E+02 -0.85560405104E+02  0.19729249372E+02  0.12492363839E+03  0.00000000000E+00 0.  1.
</event>
<event>
 7    1  0.6443388E-006  0.1252170E+03  0.7818608E-02  0.1415049E+00
          2   -1    0    0  502    0  0.00000000000E+00  0.00000000000E+00  0.77086538272E+03  0.77086538272E+03  0.00000000000E+00 0. -1.
          1   -1    0    0  501    0 -0.00000000000E+00 -0.00000000000E+00 -0.75055751513E+03  0.75055751513E+03  0.00000000000E+00 0. -1.
         25    2    1    2    0    0 -0.10529936889E+03 -0.28372894563E+02  0.46094247360E+03  0.48988134045E+03  0.12499114177E+03 0.  0.
          2    1    1    2  501    0  0.11418754454E+03  0.51866016069E+02 -0.73019838182E+03  0.74089038040E+03  0.00000000000E+00 0. -1.
          1    1    1    2  502    0 -0.88881756403E+01 -0.23493121506E+02  0.28956377581E+03  0.29065117699E+03  0.00000000000E+00 0. -1.
         22    1    3    3    0    0 -0.53771500943E+02 -0.77134101353E+02  0.23699875571E+03  0.25496951605E+03  0.00000000000E+00 0.  1.
         22    1    3    3    0    0 -0.51527867952E+02  0.48761206790E+02  0.22394371789E+03  0.23491182440E+03  0.00000000000E+00 0.  1.
</event>
<event>
 7    1  0.6443388E-006  0.7292293E+02  0.7818608E-02  0.1484093E+00
          2   -1    0    0  502    0  0.00000000000E+00  0.00000000000E+00  0.13138598931E+04  0.13138598931E+04  0.00000000000E+00 0. -1.
          1   -1    0    0  501    0 -0.00000000000E+00 -0.00000000000E+00 -0.48323504819E+02  0.48323504819E+02  0.00000000000E+00 0. -1.
         25    2    1    2    0    0 -0.30921584496E+02  0.48439237604E+02  0.21560217164E+03  0.25575770975E+03  0.12500082221E+03 0.  0.
          2    1    1    2  501    0  0.56623045828E+02 -0.51788476865E+02  0.24337816497E+02  0.80501832071E+02  0.00000000000E+00 0. -1.
          1    1    1    2  502    0 -0.25701461332E+02  0.33492392613E+01  0.10255964002E+04  0.10259238561E+04  0.00000000000E+00 0. -1.
         22    1    3    3    0    0  0.29259789402E+02 -0.17831816045E+02  0.11995833558E+03  0.12475620712E+03  0.00000000000E+00 0. -1.
         22    1    3    3    0    0 -0.60181373897E+02  0.66271053649E+02  0.95643836055E+02  0.13100150263E+03  0.00000000000E+00 0. -1.
</event>
<event>
 7    1  0.6443388E-006  0.9820052E+02  0.7818608E-02  0.1382310E+00
          2   -1    0    0  502    0  0.00000000000E+00  0.00000000000E+00  0.32482222235E+04  0.32482222235E+04  0.00000000000E+00 0. -1.
          1   -1    0    0  501    0 -0.00000000000E+00 -0.00000000000E+00 -0.96448014062E+01  0.96448014062E+01  0.00000000000E+00 0. -1.
         25    2    1    2    0    0  0.31384156160E+02  0.61643362420E+02  0.13025439994E+04  0.13103558838E+04  0.12500720926E+03 0.  0.
          2    1    1    2  501    0  0.22169248378E+02  0.35116685075E+02  0.10177478554E+03  0.10992162715E+03  0.00000000000E+00 0. -1.
          1    1    1    2  502    0 -0.53553404538E+02 -0.96760047495E+02  0.18342586372E+04  0.18375895140E+04  0.00000000000E+00 0. -1.
         22    1    3    3    0    0  0.59672936096E+02  0.73063203745E+02  0.62049788517E+03  0.62762784876E+03  0.00000000000E+00 0.  1.
         22    1    3    3    0    0 -0.28288779936E+02 -0.11419841325E+02  0.68204611422E+03  0.68272803500E+03  0.00000000000E+00 0.  1.
</event>
<event>
 7    1  0.6443388E-006  0.1009500E+03  0.7818608E-02  0.1326451E+00
          2   -1    0    0  502    0  0.00000000000E+00  0.00000000000E+00  0.51091733720E+03  0.51091733720E+03  0.00000000000E+00 0. -1.
          1   -1    0    0  501    0 -0.00000000000E+00 -0.00000000000E+00 -0.41690634639E+03  0.41690634639E+03  0.00000000000E+00 0. -1.
         25    2    1    2    0    0  0.16603152833E+02  0.56539229673E+02  0.60061661861E+01  0.13832315689E+03  0.12499949009E+03 0.  0.
          2    1    1    2  501    0  0.63635617737E+02  0.12593962701E+02 -0.34125579000E+03  0.34736668514E+03  0.00000000000E+00 0. -1.
          1    1    1    2  502    0 -0.80238770570E+02 -0.69133192374E+02  0.42926061462E+03  0.44213384156E+03  0.00000000000E+00 0. -1.
         22    1    3    3    0    0 -0.39611920385E+02  0.65868690186E+02 -0.13609096307E+02  0.78057645914E+02  0.00000000000E+00 0. -1.
         22    1    3    3    0    0  0.56215073218E+02 -0.93294605131E+01  0.19615262494E+02  0.60265510975E+02  0.00000000000E+00 0. -1.
</event>
<event>
 7    1  0.6443388E-006  0.5726281E+02  0.7818608E-02  0.1410694E+00
          2   -1    0    0  502    0  0.00000000000E+00  0.00000000000E+00  0.12825892678E+04  0.12825892678E+04  0.00000000000E+00 0. -1.
          1   -1    0    0  501    0 -0.00000000000E+00 -0.00000000000E+00 -0.17051150122E+03  0.17051150122E+03  0.00000000000E+00 0. -1.
         25    2    1    2    0    0  0.12777932258E+02 -0.27982971024E+02  0.29556696718E+02  0.13208759517E+03  0.12500884871E+03 0.  0.
          2    1    1    2  501    0  0.44039642110E+02  0.36599714851E+02 -0.11164050055E+03  0.12546964003E+03  0.00000000000E+00 0. -1.
          1    1    1    2  502    0 -0.56817574368E+02 -0.86167438274E+01  0.11941615705E+04  0.11955435339E+04  0.00000000000E+00 0. -1.
         22    1    3    3    0    0  0.50181606914E+02  0.28939405494E+02  0.27042771929E+02  0.63929604851E+02  0.00000000000E+00 0. -1.
         22    1    3    3    0    0 -0.37403674656E+02 -0.56922376518E+02  0.25139247885E+01  0.68157990317E+02  0.00000000000E+00 0. -1.
</event>
<event>
 7    1  0.6443388E-006  0.6698390E+02  0.7818608E-02  0.1443808E+00
          2   -1    0    0  502    0  0.00000000000E+00  0.00000000000E+00  0.13099214747E+04  0.13099214747E+04  0.00000000000E+00 0. -1.
          1   -1    0    0  501    0 -0.00000000000E+00 -0.00000000000E+00 -0.43659967697E+03  0.43659967697E+03  0.00000000000E+00 0. -1.
         25    2    1    2    0    0 -0.18142747817E+02  0.25540610206E+02 -0.55343404605E+01  0.12899038858E+03  0.12500563729E+03 0.  0.
          2    1    1    2  501    0  0.44766420784E+02 -0.52302888448E+02 -0.36584047333E+03  0.37226183862E+03  0.00000000000E+00 0. -1.
          1    1    1    2  502    0 -0.26623672967E+02  0.26762278242E+02  0.12446966115E+04  0.12452689244E+04  0.00000000000E+00 0. -1.
         22    1    3    3    0    0 -0.14063985989E+02  0.30789779509E+02 -0.62799161846E+02  0.71341018724E+02  0.00000000000E+00 0. -1.
         22    1    3    3    0    0 -0.40787618285E+01 -0.52491693024E+01  0.57264821385E+02  0.57649369855E+02  0.00000000000E+00 0. -1.
</event>
<event>
 7    1  0.6443388E-006  0.5065718E+02  0.7818608E-02  0.1472541E+00
          2   -1    0    0  502    0  0.00000000000E+00  0.00000000000E+00  0.30955781873E+03  0.30955781873E+03  0.00000000000E+00 0. -1.
          1   -1    0    0  501    0 -0.00000000000E+00 -0.00000000000E+00 -0.31491088951E+03  0.31491088951E+03  0.00000000000E+00 0. -1.
         25    2    1    2    0    0  0.74821008474E+02 -0.48399587906E+02 -0.86197556477E+01  0.15375438435E+03  0.12500162839E+03 0.  0.
          2    1    1    2  501    0 -0.44087394549E+02  0.22037206692E+02 -0.22935686560E+03  0.23459307030E+03  0.00000000000E+00 0. -1.
          1    1    1    2  502    0 -0.30733613926E+02  0.26362381214E+02  0.23262355046E+03  0.23612125359E+03  0.00000000000E+00 0. -1.
         22    1    3    3    0    0  0.99142432028E+01  0.33729815116E+02  0.25746961462E+02  0.43576354490E+02  0.00000000000E+00 0.  1.
         22    1    3    3    0    0  0.64906765271E+02 -0.82129403022E+02 -0.34366717110E+02  0.11017802986E+03  0.00000000000E+00 0.  1.
</event>
<event>
 7    1  0.6443388E-006  0.8881859E+02  0.7818608E-02  0.1329876E+00
          2   -1    0    0  502    0  0.00000000000E+00  0.00000000000E+00  0.25111439826E+03  0.25111439826E+03  0.00000000000E+00 0. -1.
          1   -1    0    0  501    0 -0.00000000000E+00 -0.00000000000E+00 -0.28306237935E+03  0.28306237935E+03  0.00000000000E+00 0. -1.
         25    2    1    2    0    0 -0.29818267670E+02  0.11693728489E+02  0.10557262801E+03  0.16672268518E+03  0.12500000638E+03 0.  0.
          2    1    1    2  501    0  0.88222061606E+02  0.29614956571E+02 -0.23140807125E+03  0.24941907154E+03  0.00000000000E+00 0. -1.
          1    1    1    2  502    0 -0.58403793936E+02 -0.41308685060E+02  0.93887462155E+02  0.11803502089E+03  0.00000000000E+00 0. -1.
         22    1    3    3    0    0  0.33646259702E+02  0.42488536478E+02  0.25155139631E+02  0.59750544548E+02  0.00000000000E+00 0.  1.
         22    1    3    3    0    0 -0.63464527371E+02 -0.30794807989E+02  0.80417488381E+02  0.10697214063E+03  0.00000000000E+00 0.  1.
</event>
<event>
 7    1  0.6443388E-006  0.1903342E+03  0.7818608E-02  0.1273812E+00
          2   -1    0    0  502    0  0.00000000000E+00  0.00000000000E+00  0.91405228215E+03  0.91405228215E+03  0.00000000000E+00 0. -1.
          1   -1    0    0  501    0 -0.00000000000E+00 -0.00000000000E+00 -0.12439379916E+04  0.12439379916E+04  0.00000000000E+00 0. -1.
         25    2    1    2    0    0  0.13257345506E+03  0.85359479979E+02 -0.35785076319E+03  0.41054138599E+03  0.12500039633E+03 0.  0.
          2    1    1    2  501    0 -0.15446846257E+03 -0.13679242515E+03 -0.84645709908E+03  0.87124181149E+03  0.00000000000E+00 0. -1.
          1    1    1    2  502    0  0.21895007504E+02  0.51432945173E+02  0.87442215281E+03  0.87620707628E+03  0.00000000000E+00 0. -1.
         22    1    3    3    0    0 -0.22173336648E+02  0.22363860534E+01 -0.68612273512E+02  0.72140850821E+02  0.00000000000E+00 0.  1.
         22    1    3    3    0    0  0.15474679171E+03  0.83123093926E+02 -0.28923848968E+03  0.33840053517E+03  0.00000000000E+00 0.  1.
</event>
<event>
 7    1  0.6443388E-006  0.5819673E+02  0.7818608E-02  0.1410176E+00
          2   -1    0    0  502    0  0.00000000000E+00  0.00000000000E+00  0.12303832032E+04  0.12303832032E+04  0.00000000000E+00 0. -1.
          1   -1    0    0  501    0 -0.00000000000E+00 -0.00000000000E+00 -0.48860417558E+03  0.48860417558E+03  0.00000000000E+00 0. -1.
         25    2    1    2    0    0  0.32012320271E+02  0.11442514149E+02  0.66874155680E+02  0.14578324308E+03  0.12499952595E+03 0.  0.
          2    1    1    2  501    0 -0.21746727023E+01 -0.58986516565E+02 -0.44650533784E+03  0.45039000328E+03  0.00000000000E+00 0. -1.
          1    1    1    2  502    0 -0.29837647569E+02  0.47544002416E+02  0.11214102098E+04  0.11228141325E+04  0.00000000000E+00 0. -1.
         22    1    3    3    0    0 -0.17391687402E+02 -0.39422753397E+01 -0.30605244398E+02  0.35421650303E+02  0.00000000000E+00 0. -1.
         22    1    3    3    0    0  0.49404007673E+02  0.15384789488E+02  0.97479400078E+02  0.11036159278E+03  0.00000000000E+00 0. -1.
</event>
<event>
 7    1  0.6443388E-006  0.6429025E+02  0.7818608E-02  0.1444628E+00
          2   -1    0    0  502    0  0.00000000000E+00  0.00000000000E+00  0.25607939564E+04  0.25607939564E+04  0.00000000000E+00 0. -1.
          1   -1    0    0  501    0 -0.00000000000E+00 -0.00000000000E+00 -0.16388813994E+03  0.16388813994E+03  0.00000000000E+00 0. -1.
         25    2    1    2    0    0 -0.85286285249E+02  0.84787687082E+01  0.23170298605E+03  0.27687010730E+03  0.12500057039E+03 0.  0.
          2    1    1    2  501    0  0.60185266490E+02  0.21490782415E+02 -0.13390416830E+03  0.14837266029E+03  0.00000000000E+00 0. -1.
          1    1    1    2  502    0  0.25101018759E+02 -0.29969551123E+02  0.22991069987E+04  0.22994393287E+04  0.00000000000E+00 0. -1.
         22    1    3    3    0    0 -0.54407128756E+02 -0.14070609150E+02  0.16889569291E+02  0.58680279926E+02  0.00000000000E+00 0. -1.
         22    1    3    3    0    0 -0.30879156493E+02  0.22549377858E+02  0.21481341676E+03  0.21818982737E+03  0.00000000000E+00 0. -1.
</event>
<event>
 7    1  0.6443388E-006  0.1133822E+03  0.7818608E-02  0.1294819E+00
          2   -1    0    0  502    0  0.00000000000E+00  0.00000000000E+00  0.13179997158E+03  0.13179997158E+03  0.00000000000E+00 0. -1.
          1   -1    0    0  501    0 -0.00000000000E+00 -0.00000000000E+00 -0.99509296808E+03  0.99509296808E+03  0.00000000000E+00 0. -1.
         25    2    1    2    0    0  0.46385987726E+02  0.64057219349E+02 -0.12800618182E+03  0.19561573516E+03  0.12499978421E+03 0.  0.
          2    1    1    2  501    0 -0.11589691881E+03 -0.31070097572E+02 -0.81306587376E+03  0.82187198627E+03  0.00000000000E+00 0. -1.
          1    1    1    2  502    0  0.69510931088E+02 -0.32987121777E+02  0.77779059076E+02  0.10940521822E+03  0.00000000000E+00 0. -1.
         22    1    3    3    0    0  0.53286044483E+02  0.47016614628E+02 -0.49951357687E+01  0.71238444460E+02  0.00000000000E+00 0.  1.
         22    1    3    3    0    0 -0.69000567569E+01  0.17040604721E+02 -0.12301104605E+03  0.12437729070E+03  0.00000000000E+00 0.  1.
</event>
<event>
 7    1  0.6443388E-006  0.2611808E+02  0.7818608E-02  0.1656724E+00
          2   -1    0    0  502    0  0.00000000000E+00  0.00000000000E+00  0.10394478045E+04  0.10394478045E+04  0.00000000000E+00 0. -1.
          1   -1    0    0  501    0 -0.00000000000E+00 -0.00000000000E+00 -0.49659443038E+02  0.49659443038E+02  0.00000000000E+00 0. -1.
         25    2    1    2    0    0 -0.37400762138E+02  0.69144990530E+01  0.50714895549E+02  0.14015703131E+03  0.12500146195E+03 0.  0.
          2    1    1    2  501    0  0.20688466741E+02  0.13139402524E+02  0.26850834644E+02  0.36354145236E+02  0.00000000000E+00 0. -1.
          1    1    1    2  502    0  0.16712295398E+02 -0.20053901577E+02  0.91222263129E+03  0.91259607101E+03  0.00000000000E+00 0. -1.
         22    1    3    3    0    0 -0.32335466366E+01  0.12371807614E+02 -0.40568514035E+02  0.42536123218E+02  0.00000000000E+00 0. -1.
         22    1    3    3    0    0 -0.34167215502E+02 -0.54573085609E+01  0.91283409584E+02  0.97620908094E+02  0.00000000000E+00 0. -1.
</event>
<event>
 7    1  0.6443388E-006  0.1129712E+03  0.7818608E-02  0.1358476E+00
          2   -1    0    0  502    0  0.00000000000E+00  0.00000000000E+00  0.13772711123E+03  0.13772711123E+03  0.00000000000E+00 0. -1.
          1   -1    0    0  501    0 -0.00000000000E+00 -0.00000000000E+00 -0.14476079029E+04  0.14476079029E+04  0.00000000000E+00 0. -1.
         25    2    1    2    0    0 -0.78418910381E+02  0.10689769007E+03 -0.29279566884E+03  0.34486358947E+03  0.12499980000E+03 0.  0.
          2    1    1    2  501    0  0.90822279321E+02 -0.64715394057E+02 -0.11215760686E+04  0.11271067590E+04  0.00000000000E+00 0. -1.
          1    1    1    2  502    0 -0.12403368940E+02 -0.42182296012E+02  0.10449094577E+03  0.11336466560E+03  0.00000000000E+00 0. -1.
         22    1    3    3    0    0 -0.32965251486E+02  0.10006321869E+03 -0.27683907883E+03  0.29620808751E+03  0.00000000000E+00 0.  1.
         22    1    3    3    0    0 -0.45453658895E+02  0.68344713825E+01 -0.15956590014E+02  0.48655501959E+02  0.00000000000E+00 0.  1.
</event>
<event>
 7    1  0.6443388E-006  0.1042688E+03  0.7818608E-02  0.1421340E+00
          2   -1    0    0  502    0  0.00000000000E+00  0.00000000000E+00  0.11706757468E+04  0.11706757468E+04  0.00000000000E+00 0. -1.
          1   -1    0    0  501    0 -0.00000000000E+00 -0.00000000000E+00 -0.11422635257E+04  0.11422635257E+04  0.00000000000E+00 0. -1.
         25    2    1    2    0    0  0.10110078724E+03  0.59432549430E+02 -0.13817846402E+03  0.22016276943E+03  0.12499904004E+03 0.  0.
          2    1    1    2  501    0 -0.74995723156E+02 -0.71444724688E+02 -0.96012422291E+03  0.96569520585E+03  0.00000000000E+00 0. -1.
          1    1    1    2  502    0 -0.26105064086E+02  0.12012175258E+02  0.11267149080E+04  0.11270812973E+04  0.00000000000E+00 0. -1.
         22    1    3    3    0    0  0.90722289671E+01  0.60293685285E+02 -0.10670611915E+03  0.12289763906E+03  0.00000000000E+00 0.  1.
         22    1    3    3    0    0  0.92028558275E+02 -0.86113585486E+00 -0.31472344873E+02  0.97265130365E+02  0.00000000000E+00 0.  1.
</event>
<event>
 7    1  0.6443388E-006  0.4825469E+02  0.7818608E-02  0.1460545E+00
          2   -1    0    0  502    0  0.00000000000E+00  0.00000000000E+00  0.20670511886E+03  0.20670511886E+03  0.00000000000E+00 0. -1.
          1   -1    0    0  501    0 -0.00000000000E+00 -0.00000000000E+00 -0.92900369911E+03  0.92900369911E+03  0.00000000000E+00 0. -1.
         25    2    1    2    0    0  0.15114504948E+01 -0.29316395969E+02 -0.39415373954E+03  0.41454061752E+03  0.12500007050E+03 0.  0.
          2    1    1    2  501    0 -0.47392227031E+02  0.22807719300E+02 -0.52058101088E+03  0.52323111923E+03  0.00000000000E+00 0. -1.
          1    1    1    2  502    0  0.45880776536E+02  0.65086766684E+01  0.19243617018E+03  0.19793708122E+03  0.00000000000E+00 0. -1.
         22    1    3    3    0    0 -0.52392082614E+02 -0.40035547651E+02 -0.28250670755E+03  0.29009966427E+03  0.00000000000E+00 0.  1.
         22    1    3    3    0    0  0.53903533109E+02  0.10719151682E+02 -0.11164703199E+03  0.12444095325E+03  0.00000000000E+00 0.  1.
</event>
<event>
 7    1  0.6443388E-006  0.1090083E+03  0.7818608E-02  0.1291840E+00
          2   -1    0    0  502    0  0.00000000000E+00  0.00000000000E+00  0.12221309077E+04  0.12221309077E+04  0.00000000000E+00 0. -1.
          1   -1    0    0  501    0 -0.00000000000E+00 -0.00000000000E+00 -0.40097498345E+03  0.40097498345E+03  0.00000000000E+00 0. -1.
         25    2    1    2    0    0  0.34188356909E+01  0.11694928710E+03 -0.13419836824E+02  0.17173659305E+03  0.12499816470E+03 0.  0.
          2    1    1    2  501    0 -0.74975764871E+02 -0.33890806351E+02 -0.30021962335E+03  0.31129049827E+03  0.00000000000E+00 0. -1.
          1    1    1    2  502    0  0.71556929180E+02 -0.83058480751E+02  0.11347953845E+04  0.11400787999E+04  0.00000000000E+00 0. -1.
         22    1    3    3    0    0  0.39523355231E+02  0.54571478489E+02 -0.56357727032E+02  0.87842673396E+02  0.00000000000E+00 0. -1.
         22    1    3    3    0    0 -0.36104519540E+02  0.62377808614E+02  0.42937890208E+02  0.83893919650E+02  0.00000000000E+00 0. -1.
</event>
<event>
 7    1  0.6443388E-006  0.9015991E+02  0.7818608E-02  0.1384645E+00
          2   -1    0    0  502    0  0.00000000000E+00  0.00000000000E+00  0.17122546114E+04  0.17122546114E+04  0.00000000000E+00 0. -1.
          1   -1    0    0  501    0 -0.00000000000E+00 -0.00000000000E+00 -0.11264691886E+03  0.11264691886E+03  0.00000000000E+00 0. -1.
         25    2    1    2    0    0 -0.10613480544E+03 -0.11836435443E+02  0.12472857115E+03  0.20636653723E+03  0.12500093240E+03 0.  0.
          2    1    1    2  501    0  0.84502391336E+02 -0.26918452996E+02 -0.44004320018E+02  0.99003219309E+02  0.00000000000E+00 0. -1.
          1    1    1    2  502    0  0.21632414103E+02  0.38754888439E+02  0.15188834414E+04  0.15195317737E+04  0.00000000000E+00 0. -1.
         22    1    3    3    0    0 -0.55748804638E+02  0.11568957364E+02  0.13796745565E+03  0.14925410819E+03  0.00000000000E+00 0.  1.
         22    1    3    3    0    0 -0.50386000801E+02 -0.23405392807E+02 -0.13238884499E+02  0.57112429049E+02  0.00000000000E+00 0.  1.
</event>
<event>
 7    1  0.6443388E-006  0.7471892E+02  0.7818608E-02  0.1345030E+00
          2   -1    0    0  502    0  0.00000000000E+00  0.00000000000E+00  0.38311837232E+03  0.38311837232E+03  0.00000000000E+00 0. -1.
          1   -1    0    0  501    0 -0.00000000000E+00 -0.00000000000E+00 -0.29350023334E+03  0.29350023334E+03  0.00000000000E+00 0. -1.
         25    2    1    2    0    0 -0.43233401928E+02  0.97300224766E+02 -0.88929567753E+02  0.18673406303E+03  0.12499872597E+03 0.  0.
          2    1    1    2  501    0  0.69329001737E+02 -0.27367610035E+02 -0.14220859572E+03  0.16055771940E+03  0.00000000000E+00 0. -1.
          1    1    1    2  502    0 -0.26095599809E+02 -0.69932614730E+02  0.32075630246E+03  0.32932682323E+03  0.00000000000E+00 0. -1.
         22    1    3    3    0    0 -0.74902901836E+02  0.28668570246E+02 -0.75137693369E+02  0.10989997538E+03  0.00000000000E+00 0.  1.
         22    1    3    3    0    0  0.31669499909E+02  0.68631654520E+02 -0.13791874383E+02  0.76834087654E+02  0.00000000000E+00 0.  1.
</event>
<event>
 7    1  0.6443388E-006  0.1254472E+03  0.7818608E-02  0.1301162E+00
          2   -1    0    0  502    0  0.00000000000E+00  0.00000000000E+00  0.11252413660E+04  0.11252413660E+04  0.00000000000E+00 0. -1.
          1   -1    0    0  501    0 -0.00000000000E+00 -0.00000000000E+00 -0.32039101832E+03  0.32039101832E+03  0.00000000000E+00 0. -1.
         25    2    1    2    0    0  0.10373515014E+03  0.33307051963E+02 -0.47496885081E+02  0.17248350246E+03  0.12499705374E+03 0.  0.
          2    1    1    2  501    0 -0.13240467722E+03  0.25673554346E+02 -0.18764775345E+03  0.23108831498E+03  0.00000000000E+00 0. -1.
          1    1    1    2  502    0  0.28669527081E+02 -0.58980606310E+02  0.10399949862E+04  0.10420605668E+04  0.00000000000E+00 0. -1.
         22    1    3    3    0    0  0.99272827427E+02  0.10287180308E+01 -0.79216085226E+02  0.12700921496E+03  0.00000000000E+00 0. -1.
         22    1    3    3    0    0  0.44623227081E+01  0.32278333933E+02  0.31719200145E+02  0.45474287496E+02  0.00000000000E+00 0. -1.
</event>
<event>
 7    1  0.6443388E-006  0.7105453E+02  0.7818608E-02  0.1495158E+00
          2   -1    0    0  502    0  0.00000000000E+00  0.00000000000E+00  0.36565603974E+03  0.36565603974E+03  0.00000000000E+00 0. -1.
          1   -1    0    0  501    0 -0.00000000000E+00 -0.00000000000E+00 -0.33101896092E+03  0.33101896092E+03  0.00000000000E+00 0. -1.
         25    2    1    2    0    0  0.58084896361E+01 -0.78030690527E+02 -0.89323514050E+02  0.17241131408E+03  0.12499777536E+03 0.  0.
          2    1    1    2  501    0  0.21252382898E+02  0.12440800061E+02 -0.19548660811E+03  0.19703159958E+03  0.00000000000E+00 0. -1.
          1    1    1    2  502    0 -0.27060872534E+02  0.65589890466E+02  0.31944720097E+03  0.32723208700E+03  0.00000000000E+00 0. -1.
         22    1    3    3    0    0 -0.18660393848E+02  0.10820203474E+02  0.20006993992E+02  0.29420518527E+02  0.00000000000E+00 0. -1.
         22    1    3    3    0    0  0.24468883484E+02 -0.88850894002E+02 -0.10933050804E+03  0.14299079555E+03  0.00000000000E+00 0. -1.
</event>
<event>
 7    1  0.6443388E-006  0.1222453E+03  0.7818608E-02  0.1321127E+00
          2   -1    0    0  502    0  0.00000000000E+00  0.00000000000E+00  0.22139812830E+04  0.22139812830E+04  0.00000000000E+00 0. -1.
          1   -1    0    0  501    0 -0.00000000000E+00 -0.00000000000E+00 -0.14415698361E+04  0.14415698361E+04  0.00000000000E+00 0. -1.
         25    2    1    2    0    0  0.11105578045E+03 -0.10350290813E+03 -0.28794685242E+02  0.19874704407E+03  0.12500006106E+03 0.  0.
          2    1    1    2  501    0 -0.55103158169E+02  0.10836153097E+03 -0.13246447796E+04  0.13302114011E+04  0.00000000000E+00 0. -1.
          1    1    1    2  502    0 -0.55952622279E+02 -0.48586228451E+01  0.21258509118E+04  0.21265926740E+04  0.00000000000E+00 0. -1.
         22    1    3    3    0    0 -0.15526984426E+02 -0.17498020743E+02  0.27120398506E+02  0.35815973956E+02  0.00000000000E+00 0. -1.
         22    1    3    3    0    0  0.12658276487E+03 -0.86004887382E+02 -0.55915083747E+02  0.16293107011E+03  0.00000000000E+00 0. -1.
</event>
<event>
 7    1  0.6443388E-006  0.1175895E+03  0.7818608E-02  0.1350871E+00
          2   -1    0    0  502    0  0.00000000000E+00  0.00000000000E+00  0.12627895006E+03  0.12627895006E+03  0.00000000000E+00 0. -1.
          1   -1    0    0  501    0 -0.00000000000E+00 -0.00000000000E+00 -0.78300905817E+03  0.78300905817E+03  0.00000000000E+00 0. -1.
         25    2    1    2    0    0 -0.92218206202E+02  0.71054806007E+02 -0.15486207019E+03  0.23056442065E+03  0.12499883310E+03 0.  0.
          2    1    1    2  501    0  0.11458801076E+03 -0.31948825101E+02 -0.57807919766E+03  0.59019208602E+03  0.00000000000E+00 0. -1.
          1    1    1    2  502    0 -0.22369804554E+02 -0.39105980906E+02  0.76211159746E+02  0.88531501559E+02  0.00000000000E+00 0. -1.
         22    1    3    3    0    0  0.30032029785E+02  0.24612898897E+02 -0.47595592169E+02  0.61425222824E+02  0.00000000000E+00 0. -1.
         22    1    3    3    0    0 -0.12225023599E+03  0.46441907110E+02 -0.10726647802E+03  0.16913919783E+03  0.00000000000E+00 0. -1.
</event>
<event>
 7    1  0.6443388E-006  0.1187418E+03  0.7818608E-02  0.1424694E+00
          2   -1    0    0  502    0  0.00000000000E+00  0.00000000000E+00  0.80913928222E+03  0.80913928222E+03  0.00000000000E+00 0. -1.
          1   -1    0    0  501    0 -0.00000000000E+00 -0.00000000000E+00 -0.10470961455E+03  0.10470961455E+03  0.00000000000E+00 0. -1.
         25    2    1    2    0    0 -0.13258943373E+03 -0.49782544242E+02  0.43437766404E+02  0.19382838195E+03  0.12499736978E+03 0.  0.
          2    1    1    2  501    0  0.23840980607E+02  0.60389577443E+01 -0.18321584331E+02  0.30668254260E+02  0.00000000000E+00 0. -1.
          1    1    1    2  502    0  0.10874845312E+03  0.43743586498E+02  0.67931348560E+03  0.68935226056E+03  0.00000000000E+00 0. -1.
         22    1    3    3    0    0 -0.12925708204E+03  0.66389614491E+01  0.14228936882E+02  0.13020726444E+03  0.00000000000E+00 0. -1.
         22    1    3    3    0    0 -0.33323516895E+01 -0.56421505692E+02  0.29208829522E+02  0.63621117519E+02  0.00000000000E+00 0. -1.
</event>
<event>
 7    1  0.6443388E-006  0.1556577E+03  0.7818608E-02  0.1257524E+00
          2   -1    0    0  502    0  0.00000000000E+00  0.00000000000E+00  0.30316286478E+04  0.30316286478E+04  0.00000000000E+00 0. -1.
          1   -1    0    0  501    0 -0.00000000000E+00 -0.00000000000E+00 -0.60916326867E+03  0.60916326867E+03  0.00000000000E+00 0. -1.
         25    2    1    2    0    0  0.63377416084E+02 -0.62599588483E+02  0.22729861544E+03  0.27426945900E+03  0.12499468073E+03 0.  0.
          2    1    1    2  501    0  0.18697597918E+02 -0.77887779163E+02 -0.58054560994E+03  0.58604548589E+03  0.00000000000E+00 0. -1.
          1    1    1    2  502    0 -0.82075014002E+02  0.14048736765E+03  0.27757123736E+04  0.27804769715E+04  0.00000000000E+00 0. -1.
         22    1    3    3    0    0 -0.16313121861E+02 -0.26265386931E+02  0.16225789361E+03  0.16517751825E+03  0.00000000000E+00 0.  1.
         22    1    3    3    0    0  0.79690537945E+02 -0.36334201552E+02  0.65040721824E+02  0.10909194075E+03  0.00000000000E+00 0.  1.
</event>
<event>
 7    1  0.6443388E-006  0.5478613E+02  0.7818608E-02  0.1499568E+00
          2   -1    0    0  502    0  0.00000000000E+00  0.00000000000E+00  0.16269694085E+03  0.16269694085E+03  0.00000000000E+00 0. -1.
          1   -1    0    0  501    0 -0.00000000000E+00 -0.00000000000E+00 -0.73151409460E+03  0.73151409460E+03  0.00000000000E+00 0. -1.
         25    2    1    2    0    0  0.28267991491E+02 -0.79351245003E+02  0.77303249326E+02  0.16940676155E+03  0.12500863601E+03 0.  0.
          2    1    1    2  501    0 -0.11487890852E+02  0.53307244597E+02 -0.67809374849E+03  0.68028285713E+03  0.00000000000E+00 0. -1.
          1    1    1    2  502    0 -0.16780100639E+02  0.26044000406E+02  0.31973345418E+02  0.44521416777E+02  0.00000000000E+00 0. -1.
         22    1    3    3    0    0 -0.37940117843E+02 -0.14081639894E+02  0.63667929257E+02  0.75441038831E+02  0.00000000000E+00 0. -1.
         22    1    3    3    0    0  0.66208109333E+02 -0.65269605109E+02  0.13635320069E+02  0.93965722719E+02  0.00000000000E+00 0. -1.
</event>
<event>
 7    1  0.6443388E-006  0.1060285E+03  0.7818608E-02  0.1333439E+00
          2   -1    0    0  502    0  0.00000000000E+00  0.00000000000E+00  0.10582494155E+04  0.10582494155E+04  0.00000000000E+00 0. -1.
          1   -1    0    0  501    0 -0.00000000000E+00 -0.00000000000E+00 -0.10902890645E+03  0.10902890645E+03  0.00000000000E+00 0. -1.
         25    2    1    2    0    0 -0.84487531939E+02  0.56055857372E+02  0.31311857178E+03  0.35206392756E+03  0.12500146758E+03 0.  0.
          2    1    1    2  501    0 -0.25218450861E+02 -0.52319544626E+02 -0.75466677237E+02  0.95228800197E+02  0.00000000000E+00 0. -1.
          1    1    1    2  502    0  0.10970598280E+03 -0.37363127455E+01  0.71156861447E+03  0.71998559415E+03  0.00000000000E+00 0. -1.
         22    1    3    3    0    0 -0.11423922561E+03  0.62845950895E+02  0.25019128434E+03  0.28212744101E+03  0.00000000000E+00 0.  1.
         22    1    3    3    0    0  0.29751693671E+02 -0.67900935229E+01  0.62927287438E+02  0.69936486548E+02  0.00000000000E+00 0.  1.
</event>
<event>
 7    1  0.6443388E-006  0.9915412E+02  0.7818608E-02  0.1360549E+00
          2   -1    0    0  502    0  0.00000000000E+00  0.00000000000E+00  0.29706706779E+04  0.29706706779E+04  0.00000000000E+00 0. -1.
          1   -1    0    0  501    0 -0.00000000000E+00 -0.00000000000E+00 -0.21578961155E+02  0.21578961155E+02  0.00000000000E+00 0. -1.
         25    2    1    2    0    0 -0.63757510762E+02 -0.84507885720E+02  0.23108642986E+04  0.23166625321E+04  0.12499951198E+03 0.  0.
          2    1    1    2  501    0  0.89787313935E+02  0.42723020525E+02  0.12369793256E+03  0.15870789755E+03  0.00000000000E+00 0. -1.
          1    1    1    2  502    0 -0.26029803173E+02  0.41784865196E+02  0.51452948562E+03  0.51687920947E+03  0.00000000000E+00 0. -1.
         22    1    3    3    0    0  0.20404066924E+02 -0.39832980908E+02  0.27912950951E+03  0.28269466814E+03  0.00000000000E+00 0. -1.
         22    1    3    3    0    0 -0.84161577685E+02 -0.44674904812E+02  0.20317347891E+04  0.20339678639E+04  0.00000000000E+00 0. -1.
</event>
<event>
 7    1  0.6443388E-006  0.1099578E+03  0.7818608E-02  0.1297319E+00
          2   -1    0    0  502    0  0.00000000000E+00  0.00000000000E+00  0.72582211467E+03  0.72582211467E+03  0.00000000000E+00 0. -1.
          1   -1    0    0  501    0 -0.00000000000E+00 -0.00000000000E+00 -0.13156226727E+04  0.13156226727E+04  0.00000000000E+00 0. -1.
         25    2    1    2    0    0 -0.12598521186E+02 -0.44255009097E+02 -0.23305069014E+03  0.26842943044E+03  0.12499802554E+03 0.  0.
          2    1    1    2  501    0  0.49148348571E+02  0.11261599359E+03 -0.10591988390E+04  0.10663020691E+04  0.00000000000E+00 0. -1.
          1    1    1    2  502    0 -0.36549827385E+02 -0.68360984490E+02  0.70244897111E+03  0.70671328776E+03  0.00000000000E+00 0. -1.
         22    1    3    3    0    0 -0.32928942271E+02  0.36095649533E+02 -0.10622140909E+03  0.11691962583E+03  0.00000000000E+00 0.  1.
         22    1    3    3    0    0  0.20330421085E+02 -0.80350658630E+02 -0.12682928105E+03  0.15150980462E+03  0.00000000000E+00 0.  1.
</event>
<event>
 7    1  0.6443388E-006  0.1389123E+03  0.7818608E-02  0.1347031E+00
          2   -1    0    0  502    0  0.00000000000E+00  0.00000000000E+00  0.20562599452E+04  0.20562599452E+04  0.00000000000E+00 0. -1.
          1   -1    0    0  501    0 -0.00000000000E+00 -0.00000000000E+00 -0.61408185902E+03  0.61408185902E+03  0.00000000000E+00 0. -1.
         25    2    1    2    0    0 -0.11159257561E+03  0.39209973756E+02  0.14304856992E+01  0.17209774135E+03  0.12500104525E+03 0.  0.
          2    1    1    2  501    0 -0.27589989440E+02 -0.28139728455E+02 -0.52553501008E+03  0.52701052993E+03  0.00000000000E+00 0. -1.
          1    1    1    2  502    0  0.13918256506E+03 -0.11070245302E+02  0.19662826105E+04  0.19712335329E+04  0.00000000000E+00 0. -1.
         22    1    3    3    0    0 -0.32650492221E+00 -0.17326438293E+02 -0.37541861942E+02  0.41348560645E+02  0.00000000000E+00 0. -1.
         22    1    3    3    0    0 -0.11126607069E+03  0.56536412049E+02  0.38972347641E+02  0.13074918071E+03  0.00000000000E+00 0. -1.
</event>
<event>
 7    1  0.6443388E-006  0.6687673E+02  0.7818608E-02  0.1409870E+00
          2   -1    0    0  502    0  0.00000000000E+00  0.00000000000E+00  0.11352526185E+04  0.11352526185E+04  0.00000000000E+00 0. -1.
          1   -1    0    0  501    0 -0.00000000000E+00 -0.00000000000E+00 -0.41448147661E+03  0.41448147661E+03  0.00000000000E+00 0. -1.
         25    2    1    2    0    0  0.30903468966E+02 -0.55472508709E+02  0.99855689892E+02  0.17212450463E+03  0.12499385055E+03 0.  0.
          2    1    1    2  501    0  0.17097820188E+02  0.65127816099E+02 -0.37474480680E+03  0.38074615968E+03  0.00000000000E+00 0. -1.
          1    1    1    2  502    0 -0.48001289154E+02 -0.96553073904E+01  0.99566025882E+03  0.99686343083E+03  0.00000000000E+00 0. -1.
         22    1    3    3    0    0 -0.34747346546E+02  0.48853381093E+01 -0.39050027816E+01  0.35305717202E+02  0.00000000000E+00 0. -1.
         22    1    3    3    0    0  0.65650815512E+02 -0.60357846818E+02  0.10376069267E+03  0.13681878743E+03  0.00000000000E+00 0. -1.
</event>
<event>
 7    1  0.6443388E-006  0.1037890E+03  0.7818608E-02  0.1277624E+00
          2   -1    0    0  502    0  0.00000000000E+00  0.00000000000E+00  0.36297992126E+03  0.36297992126E+03  0.00000000000E+00 0. -1.
          1   -1    0    0  501    0 -0.00000000000E+00 -0.00000000000E+00 -0.14566084320E+04  0.14566084320E+04  0.00000000000E+00 0. -1.
         25    2    1    2    0    0  0.89614099892E+02  0.38066515540E+01 -0.23744830892E+02  0.15567518399E+03  0.12500307365E+03 0.  0.
          2    1    1    2  501    0 -0.27944441054E+02 -0.94802191456E+02 -0.13548656915E+04  0.13584658219E+04  0.00000000000E+00 0. -1.
          1    1    1    2  502    0 -0.61669658838E+02  0.90995539902E+02  0.28498201160E+03  0.30544734741E+03  0.00000000000E+00 0. -1.
         22    1    3    3    0    0  0.11722299991E+03  0.23677581989E+02 -0.14801219811E+02  0.12050284521E+03  0.00000000000E+00 0.  1.
         22    1    3    3    0    0 -0.27608900015E+02 -0.19870930434E+02 -0.89436110813E+01  0.35172338784E+02  0.00000000000E+00 0.  1.
</event>
<event>
 7    1  0.6443388E-006  0.7761593E+02  0.7818608E-02  0.1434244E+00
          2   -1    0    0  502    0  0.00000000000E+00  0.00000000000E+00  0.22245573877E+04  0.22245573877E+04  0.00000000000E+00 0. -1.
          1   -1    0    0  501    0 -0.00000000000E+00 -0.00000000000E+00 -0.42361031932E+03  0.42361031932E+03  0.00000000000E+00 0. -1.
         25    2    1    2    0    0 -0.53250713323E+02  0.95338026901E+02  0.27898490080E+02  0.16831385336E+03  0.12500499847E+03 0.  0.
          2    1    1    2  501    0  0.54565959240E+01 -0.34567882542E+02 -0.35183152109E+03  0.35356771936E+03  0.00000000000E+00 0. -1.
          1    1    1    2  502    0  0.47794117399E+02 -0.60770144359E+02  0.21248800994E+04  0.21262861343E+04  0.00000000000E+00 0. -1.
         22    1    3    3    0    0 -0.61186694499E+02  0.41134949805E+02 -0.37734021649E+02  0.82823620236E+02  0.00000000000E+00 0.  1.
         22    1    3    3    0    0  0.79359811765E+01  0.54203077096E+02  0.65632511729E+02  0.85490233125E+02  0.00000000000E+00 0.  1.
</event>
<event>
 7    1  0.6443388E-006  0.1375683E+03  0.7818608E-02  0.1345121E+00
          2   -1    0    0  502    0  0.00000000000E+00  0.00000000000E+00  0.77188122391E+02  0.77188122391E+02  0.00000000000E+00 0. -1.
          1   -1    0    0  501    0 -0.00000000000E+00 -0.00000000000E+00 -0.62244699776E+03  0.62244699776E+03  0.00000000000E+00 0. -1.
         25    2    1    2    0    0  0.92962496462E+02 -0.71158921145E+02 -0.17390180833E+03  0.24407708084E+03  0.12500465850E+03 0.  0.
          2    1    1    2  501    0 -0.13236736330E+03  0.62016894650E+02 -0.38583284303E+03  0.41259447021E+03  0.00000000000E+00 0. -1.
          1    1    1    2  502    0  0.39404866840E+02  0.91420264946E+01  0.14475775986E+02  0.42963569096E+02  0.00000000000E+00 0. -1.
         22    1    3    3    0    0  0.11095582342E+03 -0.86034208309E+02 -0.16987334750E+03  0.22038610197E+03  0.00000000000E+00 0.  1.
         22    1    3    3    0    0 -0.17993326961E+02  0.14875287164E+02 -0.40284608244E+01  0.23690978873E+02  0.00000000000E+00 0.  1.
</event>
<event>
 7    1  0.6443388E-006  0.1222669E+03  0.7818608E-02  0.1303035E+00
          2   -1    0    0  502    0  0.00000000000E+00  0.00000000000E+00  0.22794936073E+04  0.22794936073E+04  0.00000000000E+00 0. -1.
          1   -1    0    0  501    0 -0.00000000000E+00 -0.00000000000E+00 -0.82851625804E+03  0.82851625804E+03  0.00000000000E+00 0. -1.
         25    2    1    2    0    0  0.76276513523E+02  0.16210145805E+03 -0.80967044809E+01  0.21859820086E+03  0.12499851031E+03 0.  0.
          2    1    1    2  501    0 -0.49775734751E+02 -0.43549293536E+02 -0.71193811527E+03  0.71500352777E+03  0.00000000000E+00 0. -1.
          1    1    1    2  502    0 -0.26500778772E+02 -0.11855216451E+03  0.21710121690E+04  0.21744081367E+04  0.00000000000E+00 0. -1.
         22    1    3    3    0    0 -0.30367627138E+01  0.11892027447E+03 -0.35643219677E+02  0.12418410815E+03  0.00000000000E+00 0. -1.
         22    1    3    3    0    0  0.79313276237E+02  0.43181183577E+02  0.27546515197E+02  0.94414092709E+02  0.00000000000E+00 0. -1.
</event>
<event>
 7    1  0.6443388E-006  0.9779866E+02  0.7818608E-02  0.1351817E+00
          2   -1    0    0  502    0  0.00000000000E+00  0.00000000000E+00  0.88960793278E+02  0.88960793278E+02  0.00000000000E+00 0. -1.
          1   -1    0    0  501    0 -0.00000000000E+00 -0.00000000000E+00 -0.82648042161E+03  0.82648042161E+03  0.00000000000E+00 0. -1.
         25    2    1    2    0    0  0.81483856457E+02 -0.24901579271E+02 -0.36522112265E+03  0.39531173558E+03  0.12500076937E+03 0.  0.
          2    1    1    2  501    0 -0.10433682619E+03 -0.23731018004E+02 -0.42892241670E+03  0.44206761255E+03  0.00000000000E+00 0. -1.
          1    1    1    2  502    0  0.22852969737E+02  0.48632597275E+02  0.56623911018E+02  0.78061866763E+02  0.00000000000E+00 0. -1.
         22    1    3    3    0    0  0.83302762946E+02 -0.68331855713E+02 -0.25487825650E+03  0.27671559128E+03  0.00000000000E+00 0.  1.
         22    1    3    3    0    0 -0.18189064885E+01  0.43430276442E+02 -0.11034286615E+03  0.11859614430E+03  0.00000000000E+00 0.  1.
</event>
<event>
 7    1  0.6443388E-006  0.9793481E+02  0.7818608E-02  0.1366918E+00
          2   -1    0    0  502    0  0.00000000000E+00  0.00000000000E+00  0.58449159622E+03  0.58449159622E+03  0.00000000000E+00 0. -1.
          1   -1    0    0  501    0 -0.00000000000E+00 -0.00000000000E+00 -0.88701298262E+02  0.88701298262E+02  0.00000000000E+00 0. -1.
         25    2    1    2    0    0  0.94985354774E+02  0.42464027538E+02  0.22503104404E+03  0.27764844021E+03  0.12499709723E+03 0.  0.
          2    1    1    2  501    0 -0.62127728177E+02 -0.76431417738E+02 -0.20389583752E+02  0.10058504537E+03  0.00000000000E+00 0. -1.
          1    1    1    2  502    0 -0.32857626597E+02  0.33967390201E+02  0.29114883767E+03  0.29495940891E+03  0.00000000000E+00 0. -1.
         22    1    3    3    0    0  0.15523785168E+02  0.75095198677E+02  0.10957368715E+03  0.13374105460E+03  0.00000000000E+00 0. -1.
         22    1    3    3    0    0  0.79461569605E+02 -0.32631171139E+02  0.11545735689E+03  0.14390738561E+03  0.00000000000E+00 0. -1.
</event>
<event>
 7    1  0.6443388E-006  0.4766051E+02  0.7818608E-02  0.1480324E+00
          2   -1    0    0  502    0  0.00000000000E+00  0.00000000000E+00  0.11375323338E+04  0.11375323338E+04  0.00000000000E+00 0. -1.
          1   -1    0    0  501    0 -0.00000000000E+00 -0.00000000000E+00 -0.34793764293E+03  0.34793764293E+03  0.00000000000E+00 0. -1.
         25    2    1    2    0    0 -0.49406357990E+02 -0.70078573337E+02  0.51047670585E+02  0.15994798710E+03  0.12500199701E+03 0.  0.
          2    1    1    2  501    0  0.14649069317E+02  0.37997666286E+02 -0.29152948917E+03  0.29436008719E+03  0.00000000000E+00 0. -1.
          1    1    1    2  502    0  0.34757288672E+02  0.32080907051E+02  0.10300765094E+04  0.10311619024E+04  0.00000000000E+00 0. -1.
         22    1    3    3    0    0 -0.87084652770E+02 -0.63021834144E+02  0.17307447859E+02  0.10888083430E+03  0.00000000000E+00 0.  1.
         22    1    3    3    0    0  0.37678294781E+02 -0.70567391930E+01  0.33740222726E+02  0.51067152801E+02  0.00000000000E+00 0.  1.
</event>
<event>
 7    1  0.6443388E-006  0.5903207E+02  0.7818608E-02  0.1504964E+00
          2   -1    0    0  502    0  0.00000000000E+00  0.00000000000E+00  0.16641119980E+04  0.16641119980E+04  0.00000000000E+00 0. -1.
          1   -1    0    0  501    0 -0.00000000000E+00 -0.00000000000E+00 -0.44784196857E+02  0.44784196857E+02  0.00000000000E+00 0. -1.
         25    2    1    2    0    0  0.32626905690E+02  0.75283334262E+02  0.72623725091E+03  0.74147177535E+03  0.12501101407E+03 0.  0.
          2    1    1    2  501    0 -0.33774369706E+02 -0.47597150143E+02 -0.13912686534E+02  0.59997996611E+02  0.00000000000E+00 0. -1.
          1    1    1    2  502    0  0.11474640153E+01 -0.27686184119E+02  0.90700323673E+03  0.90742642286E+03  0.00000000000E+00 0. -1.
         22    1    3    3    0    0 -0.41534483167E+02  0.38817124919E+02  0.17313350544E+03  0.18222813500E+03  0.00000000000E+00 0.  1.
         22    1    3    3    0    0  0.74161388857E+02  0.36466209343E+02  0.55310374547E+03  0.55924364035E+03  0.00000000000E+00 0.  1.
</event>
<event>
 7    1  0.6443388E-006  0.8471937E+02  0.7818608E-02  0.1411050E+00
          2   -1    0    0  502    0  0.00000000000E+00  0.00000000000E+00  0.59889072242E+02  0.59889072242E+02  0.00000000000E+00 0. -1.
          1   -1    0    0  501    0 -0.00000000000E+00 -0.00000000000E+00 -0.12409706605E+04  0.12409706605E+04  0.00000000000E+00 0. -1.
         25    2    1    2    0    0  0.59853939847E+02 -0.42455732966E+01 -0.29216561551E+03  0.32339760502E+03  0.12499898014E+03 0.  0.
          2    1    1    2  501    0 -0.85047716677E+02 -0.24597317676E+02 -0.92237126276E+03  0.92661042975E+03  0.00000000000E+00 0. -1.
          1    1    1    2  502    0  0.25193776830E+02  0.28842890973E+02  0.33455290055E+02  0.50851697939E+02  0.00000000000E+00 0. -1.
         22    1    3    3    0    0 -0.36528753107E+01 -0.58810128806E+01  0.11355469647E+02  0.13299492526E+02  0.00000000000E+00 0. -1.
         22    1    3    3    0    0  0.63506815158E+02  0.16354395840E+01 -0.30352108516E+03  0.31009811249E+03  0.00000000000E+00 0. -1.
</event>
<event>
 7    1  0.1339487E-005  0.5137961E+02  0.7818608E-02  0.1472797E+00
          2   -1    0    0  502    0  0.00000000000E+00  0.00000000000E+00  0.15734522144E+04  0.15734522144E+04  0.00000000000E+00 0. -1.
          1   -1    0    0  501    0 -0.00000000000E+00 -0.00000000000E+00 -0.14347595251E+04  0.14347595251E+04  0.00000000000E+00 0. -1.
         25    2    1    2    0    0  0.50038988445E+02  0.77813005274E+01 -0.64892758646E+03  0.66279412661E+03  0.12499837114E+03 0.  0.
          2    1    1    2  501    0 -0.42963589932E+02  0.31434221863E+02 -0.77773519853E+03  0.77955501371E+03  0.00000000000E+00 0. -1.
          1    1    1    2  502    0 -0.70753985135E+01 -0.39215522390E+02  0.15653554743E+04  0.15658625991E+04  0.00000000000E+00 0. -1.
         22    1    3    3    0    0  0.65455732762E+02 -0.93296509651E+01 -0.15734169212E+03  0.17066898786E+03  0.00000000000E+00 0. -1.
         22    1    3    3    0    0 -0.15416744317E+02  0.17110951493E+02 -0.49158589435E+03  0.49212513875E+03  0.00000000000E+00 0. -1.
</event>
<event>
 7    1  0.6443388E-006  0.1267388E+03  0.7818608E-02  0.1260018E+00
          2   -1    0    0  502    0  0.00000000000E+00  0.00000000000E+00  0.14575985706E+04  0.14575985706E+04  0.00000000000E+00 0. -1.
          1   -1    0    0  501    0 -0.00000000000E+00 -0.00000000000E+00 -0.21234226447E+03  0.21234226447E+03  0.00000000000E+00 0. -1.
         25    2    1    2    0    0  0.35913775082E+02 -0.19843970451E+02  0.11342519010E+03  0.17370410691E+03  0.12499704238E+03 0.  0.
          2    1    1    2  501    0  0.85938729577E+02 -0.42763682842E+02 -0.16569872766E+03  0.19149482019E+03  0.00000000000E+00 0. -1.
          1    1    1    2  502    0 -0.12185250466E+03  0.62607653293E+02  0.12975298437E+04  0.13047419080E+04  0.00000000000E+00 0. -1.
         22    1    3    3    0    0 -0.51667404918E+01  0.41413693364E+02  0.42517851610E+01  0.41950767364E+02  0.00000000000E+00 0. -1.
         22    1    3    3    0    0  0.41080515573E+02 -0.61257663815E+02  0.10917340494E+03  0.13175333955E+03  0.00000000000E+00 0. -1.
</event>
<event>
 7    1  0.6443388E-006  0.5947276E+02  0.7818608E-02  0.1456125E+00
          2   -1    0    0  502    0  0.00000000000E+00  0.00000000000E+00  0.24439624820E+03  0.24439624820E+03  0.00000000000E+00 0. -1.
          1   -1    0    0  501    0 -0.00000000000E+00 -0.00000000000E+00 -0.65357084795E+03  0.65357084795E+03  0.00000000000E+00 0. -1.
         25    2    1    2    0    0  0.10572210265E+02 -0.25241673938E+02 -0.53215028449E+02  0.13858589729E+03  0.12500119176E+03 0.  0.
          2    1    1    2  501    0 -0.15127347535E+02 -0.35761036040E+02 -0.55233515935E+03  0.55369830828E+03  0.00000000000E+00 0. -1.
          1    1    1    2  502    0  0.45551372700E+01  0.61002709978E+02  0.19637558804E+03  0.20568289058E+03  0.00000000000E+00 0. -1.
         22    1    3    3    0    0  0.36305478556E+02  0.21548430978E+02  0.21002417870E+02  0.47154259693E+02  0.00000000000E+00 0. -1.
         22    1    3    3    0    0 -0.25733268291E+02 -0.46790104917E+02 -0.74217446319E+02  0.91431637594E+02  0.00000000000E+00 0. -1.
</event>
<event>
 7    1  0.6443388E-006  0.1230017E+03  0.7818608E-02  0.1302882E+00
          2   -1    0    0  502    0  0.00000000000E+00  0.00000000000E+00  0.20517531624E+04  0.20517531624E+04  0.00000000000E+00 0. -1.
          1   -1    0    0  501    0 -0.00000000000E+00 -0.00000000000E+00 -0.21363387171E+04  0.21363387171E+04  0.00000000000E+00 0. -1.
         25    2    1    2    0    0 -0.14491555213E+03 -0.66931228629E+01 -0.13474594741E+03  0.23415110581E+03  0.12499981946E+03 0.  0.
          2    1    1    2  501    0  0.11194832711E+03 -0.50291999097E+02 -0.19494188011E+04  0.19532781100E+04  0.00000000000E+00 0. -1.
          1    1    1    2  502    0  0.32967225013E+02  0.56985121960E+02  0.19995791938E+04  0.20006626638E+04  0.00000000000E+00 0. -1.
         22    1    3    3    0    0 -0.10087954697E+03  0.42822795460E+02 -0.36235397843E+02  0.11542737485E+03  0.00000000000E+00 0. -1.
         22    1    3    3    0    0 -0.44036005163E+02 -0.49515918323E+02 -0.98510549565E+02  0.11872373096E+03  0.00000000000E+00 0. -1.
</event>
<event>
 7    1  0.6443388E-006  0.4138538E+02  0.7818608E-02  0.1510528E+00
          2   -1    0    0  502    0  0.00000000000E+00  0.00000000000E+00  0.81820516280E+03  0.81820516280E+03  0.00000000000E+00 0. -1.
          1   -1    0    0  501    0 -0.00000000000E+00 -0.00000000000E+00 -0.75550915818E+03  0.75550915818E+03  0.00000000000E+00 0. -1.
         25    2    1    2    0    0  0.10314843173E+02 -0.75225748013E+02 -0.10173326067E+03  0.17815709515E+03  0.12499994029E+03 0.  0.
          2    1    1    2  501    0  0.64251265953E+01  0.37511839693E+02 -0.61442909760E+03  0.61560664092E+03  0.00000000000E+00 0. -1.
          1    1    1    2  502    0 -0.16739969768E+02  0.37713908321E+02  0.77885836288E+03  0.77995058491E+03  0.00000000000E+00 0. -1.
         22    1    3    3    0    0  0.24434376575E+02 -0.10610556665E+03 -0.59878063265E+02  0.12426106587E+03  0.00000000000E+00 0.  1.
         22    1    3    3    0    0 -0.14119533403E+02  0.30879818633E+02 -0.41855197400E+02  0.53896029276E+02  0.00000000000E+00 0.  1.
</event>
<event>
 7    1  0.6443388E-006  0.6435304E+02  0.7818608E-02  0.1397397E+00
          2   -1    0    0  502    0  0.00000000000E+00  0.00000000000E+00  0.70419992092E+03  0.70419992092E+03  0.00000000000E+00 0. -1.
          1   -1    0    0  501    0 -0.00000000000E+00 -0.00000000000E+00 -0.62598110781E+02  0.62598110781E+02  0.00000000000E+00 0. -1.
         25    2    1    2    0    0 -0.49006894004E+02 -0.28289139174E+02  0.21992288451E+03  0.25921378809E+03  0.12499504690E+03 0.  0.
          2    1    1    2  501    0  0.84780547623E+01  0.67128924919E+02 -0.13334757836E+02  0.68963655210E+02  0.00000000000E+00 0. -1.
          1    1    1    2  502    0  0.40528839241E+02 -0.38839785745E+02  0.43501368347E+03  0.43862058840E+03  0.00000000000E+00 0. -1.
         22    1    3    3    0    0 -0.14640763389E+02  0.42708528028E+02  0.13925451009E+03  0.14639053555E+03  0.00000000000E+00 0.  1.
         22    1    3    3    0    0 -0.34366130615E+02 -0.70997667202E+02  0.80668374418E+02  0.11282325254E+03  0.00000000000E+00 0.  1.
</event>
<event>
 7    1  0.6443388E-006  0.5530120E+02  0.7818608E-02  0.1426146E+00
          2   -1    0    0  502    0  0.00000000000E+00  0.00000000000E+00  0.14624271822E+04  0.14624271822E+04  0.00000000000E+00 0. -1.
          1   -1    0    0  501    0 -0.00000000000E+00 -0.00000000000E+00 -0.25177175296E+04  0.25177175296E+04  0.00000000000E+00 0. -1.
         25    2    1    2    0    0 -0.70899966657E+02  0.18116343148E+02  0.21022644151E+03  0.25529492767E+03  0.12500134489E+03 0.  0.
          2    1    1    2  501    0  0.27898644511E+02 -0.47754064389E+02 -0.24943220891E+04  0.24949351634E+04  0.00000000000E+00 0. -1.
          1    1    1    2  502    0  0.43001322146E+02  0.29637721241E+02  0.12288053002E+04  0.12299146207E+04  0.00000000000E+00 0. -1.
         22    1    3    3    0    0 -0.41492813403E+02  0.12227072074E+02  0.32127886031E+00  0.43258040590E+02  0.00000000000E+00 0.  1.
         22    1    3    3    0    0 -0.29407153255E+02  0.58892710745E+01  0.20990516265E+03  0.21203688708E+03  0.00000000000E+00 0.  1.
</event>
<event>
 7    1  0.6443388E-006  0.5343389E+02  0.7818608E-02  0.1440243E+00
          2   -1    0    0  502    0  0.00000000000E+00  0.00000000000E+00  0.56699917437E+03  0.56699917437E+03  0.00000000000E+00 0. -1.
          1   -1    0    0  501    0 -0.00000000000E+00 -0.00000000000E+00 -0.47961828185E+02  0.47961828185E+02  0.00000000000E+00 0. -1.
         25    2    1    2    0    0  0.15972669123E+02  0.16599068692E+02  0.10645468660E+03  0.16579570572E+03  0.12499984199E+03 0.  0.
          2    1    1    2  501    0 -0.60383432561E+02 -0.36329906661E+02  0.58002707778E+02  0.91270669743E+02  0.00000000000E+00 0. -1.
          1    1    1    2  502    0  0.44410763438E+02  0.19730837969E+02  0.35457995181E+03  0.35789462709E+03  0.00000000000E+00 0. -1.
         22    1    3    3    0    0 -0.41385236948E+02  0.35315452326E+02  0.15359033958E+02  0.56531574667E+02  0.00000000000E+00 0.  1.
         22    1    3    3    0    0  0.57357906071E+02 -0.18716383633E+02  0.91095652645E+02  0.10926413106E+03  0.00000000000E+00 0.  1.
</event>
<event>
 7    1  0.6443388E-006  0.4886821E+02  0.7818608E-02  0.1452796E+00
          2   -1    0    0  502    0  0.00000000000E+00  0.00000000000E+00  0.11849630979E+04  0.11849630979E+04  0.00000000000E+00 0. -1.
          1   -1    0    0  501    0 -0.00000000000E+00 -0.00000000000E+00 -0.17403339437E+03  0.17403339437E+03  0.00000000000E+00 0. -1.
         25    2    1    2    0    0  0.24045818082E+01  0.35759444803E+02  0.16048979399E+03  0.20655669131E+03  0.12499669133E+03 0.  0.
          2    1    1    2  501    0 -0.46768665321E+02 -0.14170182091E+02 -0.14641998215E+03  0.15435968803E+03  0.00000000000E+00 0. -1.
          1    1    1    2  502    0  0.44364083513E+02 -0.21589262712E+02  0.99685989165E+03  0.99808011289E+03  0.00000000000E+00 0. -1.
         22    1    3    3    0    0  0.61920081212E+02  0.15410663593E+02  0.10400273890E+03  0.12201702630E+03  0.00000000000E+00 0.  1.
         22    1    3    3    0    0 -0.59515499404E+02  0.20348781210E+02  0.56487055093E+02  0.84539665005E+02  0.00000000000E+00 0.  1.
</event>
<event>
 7    1  0.6443388E-006  0.7582246E+02  0.7818608E-02  0.1474183E+00
          2   -1    0    0  502    0  0.00000000000E+00  0.00000000000E+00  0.33623233843E+03  0.33623233843E+03  0.00000000000E+00 0. -1.
          1   -1    0    0  501    0 -0.00000000000E+00 -0.00000000000E+00 -0.93824772064E+03  0.93824772064E+03  0.00000000000E+00 0. -1.
         25    2    1    2    0    0 -0.16451925558E+02  0.99252958566E+02  0.36583501372E+02  0.16457710523E+03  0.12500182141E+03 0.  0.
          2    1    1    2  501    0  0.45921363915E+01 -0.75289784189E+02 -0.87185879958E+03  0.87511565277E+03  0.00000000000E+00 0. -1.
          1    1    1    2  502    0  0.11859789166E+02 -0.23963174377E+02  0.23325991601E+03  0.23478730107E+03  0.00000000000E+00 0. -1.
         22    1    3    3    0    0 -0.30467597330E+02  0.92514097026E+02 -0.25410761379E+02  0.10066200589E+03  0.00000000000E+00 0.  1.
         22    1    3    3    0    0  0.14015671772E+02  0.67388615395E+01  0.61994262751E+02  0.63915099344E+02  0.00000000000E+00 0.  1.
</event>
<event>
 7    1  0.6443388E-006  0.4636395E+02  0.7818608E-02  0.1591410E+00
          2   -1    0    0  502    0  0.00000000000E+00  0.00000000000E+00  0.21501471828E+04  0.21501471828E+04  0.00000000000E+00 0. -1.
          1   -1    0    0  501    0 -0.00000000000E+00 -0.00000000000E+00 -0.11524147845E+03  0.11524147845E+03  0.00000000000E+00 0. -1.
         25    2    1    2    0    0 -0.22240411809E+02 -0.23009740580E+02  0.53238760164E+02  0.13958030884E+03  0.12499685178E+03 0.  0.
          2    1    1    2  501    0 -0.19913705026E+02  0.34655098940E+01 -0.70385286307E+02  0.73230143624E+02  0.00000000000E+00 0. -1.
          1    1    1    2  502    0  0.42154116835E+02  0.19544230686E+02  0.20520522305E+04  0.20525782088E+04  0.00000000000E+00 0. -1.
         22    1    3    3    0    0  0.99737146572E+01  0.29935568463E+02  0.68791841817E+02  0.75683094175E+02  0.00000000000E+00 0. -1.
         22    1    3    3    0    0 -0.32214126466E+02 -0.52945309043E+02 -0.15553081653E+02  0.63897214670E+02  0.00000000000E+00 0. -1.
</event>
<event>
 7    1  0.6443388E-006  0.2307501E+03  0.7818608E-02  0.1139550E+00
          2   -1    0    0  502    0  0.00000000000E+00  0.00000000000E+00  0.13777046222E+04  0.13777046222E+04  0.00000000000E+00 0. -1.
          1   -1    0    0  501    0 -0.00000000000E+00 -0.00000000000E+00 -0.33158074964E+03  0.33158074964E+03  0.00000000000E+00 0. -1.
         25    2    1    2    0    0 -0.18889622855E+03  0.13385398229E+03  0.79133407609E+03  0.83392662420E+03  0.12500128329E+03 0.  0.
          2    1    1    2  501    0  0.13832098387E+03  0.13860184612E+03 -0.23909372196E+03  0.30904526239E+03  0.00000000000E+00 0. -1.
          1    1    1    2  502    0  0.50575244683E+02 -0.27245582841E+03  0.49388351845E+03  0.56631348527E+03  0.00000000000E+00 0. -1.
         22    1    3    3    0    0 -0.38853258799E+02  0.10025502898E+03  0.27834824213E+03  0.29839301342E+03  0.00000000000E+00 0. -1.
         22    1    3    3    0    0 -0.15004296975E+03  0.33598953303E+02  0.51298583396E+03  0.53553361078E+03  0.00000000000E+00 0. -1.
</event>
<event>
 7    1  0.6443388E-006  0.2102439E+03  0.7818608E-02  0.1207632E+00
          2   -1    0    0  502    0  0.00000000000E+00  0.00000000000E+00  0.15945327729E+04  0.15945327729E+04  0.00000000000E+00 0. -1.
          1   -1    0    0  501    0 -0.00000000000E+00 -0.00000000000E+00 -0.70295410444E+03  0.70295410444E+03  0.00000000000E+00 0. -1.
         25    2    1    2    0    0  0.24721997403E+03  0.14801501764E+03  0.26110486709E+03  0.40844391698E+03  0.12499808276E+03 0.  0.
          2    1    1    2  501    0 -0.98446535187E+02 -0.11063618562E+02 -0.61719454323E+03  0.62509457536E+03  0.00000000000E+00 0. -1.
          1    1    1    2  502    0 -0.14877343885E+03 -0.13695139908E+03  0.12476683446E+04  0.12639483850E+04  0.00000000000E+00 0. -1.
         22    1    3    3    0    0  0.52287192144E+02  0.59847877032E+02  0.12489001518E+02  0.80446839631E+02  0.00000000000E+00 0.  1.
         22    1    3    3    0    0  0.19493278189E+03  0.88167140611E+02  0.24861586557E+03  0.32799707735E+03  0.00000000000E+00 0.  1.
</event>
<event>
 7    1  0.6443388E-006  0.1475313E+03  0.7818608E-02  0.1364651E+00
          2   -1    0    0  502    0  0.00000000000E+00  0.00000000000E+00  0.16444667981E+04  0.16444667981E+04  0.00000000000E+00 0. -1.
          1   -1    0    0  501    0 -0.00000000000E+00 -0.00000000000E+00 -0.64591547013E+03  0.64591547013E+03  0.00000000000E+00 0. -1.
         25    2    1    2    0    0  0.70805445091E+02 -0.14168595712E+03 -0.10713206802E+03  0.22845413438E+03  0.12500276004E+03 0.  0.
          2    1    1    2  501    0 -0.31966197499E+02 -0.47435429748E+00 -0.47415478629E+03  0.47523133752E+03  0.00000000000E+00 0. -1.
          1    1    1    2  502    0 -0.38839247592E+02  0.14216031142E+03  0.15798381823E+04  0.15866967964E+04  0.00000000000E+00 0. -1.
         22    1    3    3    0    0 -0.26229645246E+02 -0.29617147288E+01 -0.36435479586E+02  0.44992335086E+02  0.00000000000E+00 0. -1.
         22    1    3    3    0    0  0.97035090336E+02 -0.13872424239E+03 -0.70696588429E+02  0.18346179929E+03  0.00000000000E+00 0. -1.
</event>
<event>
 7    1  0.6443388E-006  0.1748147E+03  0.7818608E-02  0.1374096E+00
          2   -1    0    0  502    0  0.00000000000E+00  0.00000000000E+00  0.76392126745E+03  0.76392126745E+03  0.00000000000E+00 0. -1.
          1   -1    0    0  501    0 -0.00000000000E+00 -0.00000000000E+00 -0.27723296126E+03  0.27723296126E+03  0.00000000000E+00 0. -1.
         25    2    1    2    0    0 -0.54555283191E+02  0.14290199445E+03 -0.56793176629E+02  0.20554631994E+03  0.12500626298E+03 0.  0.
          2    1    1    2  501    0 -0.16058201421E+02  0.19094289591E+02 -0.13356678739E+03  0.13587694588E+03  0.00000000000E+00 0. -1.
          1    1    1    2  502    0  0.70613484613E+02 -0.16199628404E+03  0.67704827020E+03  0.69973096290E+03  0.00000000000E+00 0. -1.
         22    1    3    3    0    0 -0.62557792766E+02  0.16360567143E+03 -0.53215954641E+02  0.18306346164E+03  0.00000000000E+00 0. -1.
         22    1    3    3    0    0  0.80025095741E+01 -0.20703676979E+02 -0.35772219885E+01  0.22482858294E+02  0.00000000000E+00 0. -1.
</event>
<event>
 7    1  0.6443388E-006  0.3577919E+02  0.7818608E-02  0.1564503E+00
          2   -1    0    0  502    0  0.00000000000E+00  0.00000000000E+00  0.45807846287E+03  0.45807846287E+03  0.00000000000E+00 0. -1.
          1   -1    0    0  501    0 -0.00000000000E+00 -0.00000000000E+00 -0.71143520606E+03  0.71143520606E+03  0.00000000000E+00 0. -1.
         25    2    1    2    0    0 -0.19898515908E+02  0.12544866428E+02 -0.43608277063E+03  0.45425529341E+03  0.12500545646E+03 0.  0.
          2    1    1    2  501    0  0.36666341800E+02  0.13458257784E+02 -0.26429619278E+03  0.26716665743E+03  0.00000000000E+00 0. -1.
          1    1    1    2  502    0 -0.16767825892E+02 -0.26003124212E+02  0.44702222022E+03  0.44809171809E+03  0.00000000000E+00 0. -1.
         22    1    3    3    0    0  0.20776585269E+02  0.40176143710E+02 -0.60874544959E+02  0.75838639510E+02  0.00000000000E+00 0. -1.
         22    1    3    3    0    0 -0.40675101177E+02 -0.27631277282E+02 -0.37520822567E+03  0.37841665390E+03  0.00000000000E+00 0. -1.
</event>
<event>
 7    1  0.6443388E-006  0.4557071E+02  0.7818608E-02  0.1487691E+00
          2   -1    0    0  502    0  0.00000000000E+00  0.00000000000E+00  0.19887716804E+03  0.19887716804E+03  0.00000000000E+00 0. -1.
          1   -1    0    0  501    0 -0.00000000000E+00 -0.00000000000E+00 -0.18347854293E+03  0.18347854293E+03  0.00000000000E+00 0. -1.
         25    2    1    2    0    0 -0.75364683786E+01 -0.15292702558E+02 -0.50957084590E+02  0.13605131493E+03  0.12499068253E+03 0.  0.
          2    1    1    2  501    0  0.47825243802E+02  0.18824131440E+02 -0.79654319256E+02  0.94796690055E+02  0.00000000000E+00 0. -1.
          1    1    1    2  502    0 -0.40288775423E+02 -0.35314288818E+01  0.14601002896E+03  0.15150770598E+03  0.00000000000E+00 0. -1.
         22    1    3    3    0    0  0.90451719001E+01 -0.59756269235E+02 -0.62782685519E+02  0.87145237670E+02  0.00000000000E+00 0.  1.
         22    1    3    3    0    0 -0.16581640279E+02  0.44463566677E+02  0.11825600929E+02  0.48906077264E+02  0.00000000000E+00 0.  1.
</event>
<event>
 7    1  0.6443388E-006  0.5534119E+02  0.7818608E-02  0.1443305E+00
          2   -1    0    0  502    0  0.00000000000E+00  0.00000000000E+00  0.17528494876E+04  0.17528494876E+04  0.00000000000E+00 0. -1.
          1   -1    0    0  501    0 -0.00000000000E+00 -0.00000000000E+00 -0.70651019020E+03  0.70651019020E+03  0.00000000000E+00 0. -1.
         25    2    1    2    0    0  0.93156304768E+02 -0.30126565307E+02  0.11079495758E+03  0.19361469348E+03  0.12500167940E+03 0.  0.
          2    1    1    2  501    0 -0.38524154768E+02  0.24885326773E+02 -0.66383844313E+03  0.66542082066E+03  0.00000000000E+00 0. -1.
          1    1    1    2  502    0 -0.54632150000E+02  0.52412385344E+01  0.15993827830E+04  0.16003241637E+04  0.00000000000E+00 0. -1.
         22    1    3    3    0    0  0.53962799100E+02  0.20989374331E+02 -0.80290153314E+01  0.58455133296E+02  0.00000000000E+00 0. -1.
         22    1    3    3    0    0  0.39193505668E+02 -0.51115939638E+02  0.11882397291E+03  0.13515956019E+03  0.00000000000E+00 0. -1.
</event>
<event>
 7    1  0.6443388E-006  0.3543886E+03  0.7818608E-02  0.1171195E+00
          2   -1    0    0  502    0  0.00000000000E+00  0.00000000000E+00  0.21654853287E+04  0.21654853287E+04  0.00000000000E+00 0. -1.
          1   -1    0    0  501    0 -0.00000000000E+00 -0.00000000000E+00 -0.12497027721E+04  0.12497027721E+04  0.00000000000E+00 0. -1.
         25    2    1    2    0    0 -0.29295475246E+03  0.25109005719E+03  0.58871518157E+03  0.71489798682E+03  0.12499945096E+03 0.  0.
          2    1    1    2  501    0 -0.12354173598E+02 -0.87071574243E+02 -0.11650940849E+04  0.11684084522E+04  0.00000000000E+00 0. -1.
          1    1    1    2  502    0  0.30530892606E+03 -0.16401848294E+03  0.14921614599E+04  0.15318816617E+04  0.00000000000E+00 0. -1.
         22    1    3    3    0    0 -0.95411372955E+02  0.88989382823E+02  0.31231263780E+03  0.33846953197E+03  0.00000000000E+00 0.  1.
         22    1    3    3    0    0 -0.19754337951E+03  0.16210067436E+03  0.27640254377E+03  0.37642845485E+03  0.00000000000E+00 0.  1.
</event>
<event>
 7    1  0.6443388E-006  0.1313879E+03  0.7818608E-02  0.1301532E+00
          2   -1    0    0  502    0  0.00000000000E+00  0.00000000000E+00  0.27873075769E+04  0.27873075769E+04  0.00000000000E+00 0. -1.
          1   -1    0    0  501    0 -0.00000000000E+00 -0.00000000000E+00 -0.16651556018E+03  0.16651556018E+03  0.00000000000E+00 0. -1.
         25    2    1    2    0    0 -0.16238189285E+03 -0.53698508975E+02  0.53409838777E+03  0.57457583650E+03  0.12499958033E+03 0.  0.
          2    1    1    2  501    0  0.58478983240E+02 -0.21775712776E+02 -0.13768432118E+03  0.15116529181E+03  0.00000000000E+00 0. -1.
          1    1    1    2  502    0  0.10390290961E+03  0.75474221750E+02  0.22243779501E+04  0.22280820088E+04  0.00000000000E+00 0. -1.
         22    1    3    3    0    0 -0.11112901730E+03  0.17459037639E+02  0.20326176028E+03  0.23231405397E+03  0.00000000000E+00 0. -1.
         22    1    3    3    0    0 -0.51252875558E+02 -0.71157546613E+02  0.33083662749E+03  0.34226178253E+03  0.00000000000E+00 0. -1.
</event>
<event>
 7    1  0.6443388E-006  0.5047268E+02  0.7818608E-02  0.1552963E+00
          2   -1    0    0  502    0  0.00000000000E+00  0.00000000000E+00  0.13761188077E+04  0.13761188077E+04  0.00000000000E+00 0. -1.
          1   -1    0    0  501    0 -0.00000000000E+00 -0.00000000000E+00 -0.38892972647E+03  0.38892972647E+03  0.00000000000E+00 0. -1.
         25    2    1    2    0    0  0.59373492542E+02  0.43179602582E+02  0.66551220282E+02  0.15950972484E+03  0.12499839079E+03 0.  0.
          2    1    1    2  501    0 -0.20999141422E+02 -0.10771613746E+02 -0.34154375193E+03  0.34235818391E+03  0.00000000000E+00 0. -1.
          1    1    1    2  502    0 -0.38374351120E+02 -0.32407988835E+02  0.12621816128E+04  0.12631806254E+04  0.00000000000E+00 0. -1.
         22    1    3    3    0    0  0.96256323719E+02  0.47108743722E+02  0.42401819840E+02  0.11524941612E+03  0.00000000000E+00 0. -1.
         22    1    3    3    0    0 -0.36882831176E+02 -0.39291411407E+01  0.24149400442E+02  0.44260308714E+02  0.00000000000E+00 0. -1.
</event>
<event>
 7    1  0.6443388E-006  0.7722969E+02  0.7818608E-02  0.1348285E+00
          2   -1    0    0  502    0  0.00000000000E+00  0.00000000000E+00  0.26737672306E+02  0.26737672306E+02  0.00000000000E+00 0. -1.
          1   -1    0    0  501    0 -0.00000000000E+00 -0.00000000000E+00 -0.10414721493E+04  0.10414721493E+04  0.00000000000E+00 0. -1.
         25    2    1    2    0    0  0.18101014694E+02  0.16128141128E+02 -0.66694907132E+03  0.67899450163E+03  0.12499882333E+03 0.  0.
          2    1    1    2  501    0  0.69426868085E+02 -0.98837252507E+01 -0.24102800432E+03  0.25102246294E+03  0.00000000000E+00 0. -1.
          1    1    1    2  502    0 -0.87527882779E+02 -0.62444158774E+01 -0.10675740138E+03  0.13819285706E+03  0.00000000000E+00 0. -1.
         22    1    3    3    0    0 -0.18569382043E+02 -0.33809578895E+02 -0.48993704410E+03  0.49145316843E+03  0.00000000000E+00 0. -1.
         22    1    3    3    0    0  0.36670396737E+02  0.49937720023E+02 -0.17701202722E+03  0.18754133320E+03  0.00000000000E+00 0. -1.
</event>
<event>
 7    1  0.6443388E-006  0.1335170E+03  0.7818608E-02  0.1331740E+00
          2   -1    0    0  502    0  0.00000000000E+00  0.00000000000E+00  0.15603173260E+04  0.15603173260E+04  0.00000000000E+00 0. -1.
          1   -1    0    0  501    0 -0.00000000000E+00 -0.00000000000E+00 -0.22567337823E+04  0.22567337823E+04  0.00000000000E+00 0. -1.
         25    2    1    2    0    0  0.75254568669E+02  0.14854599880E+03  0.29006314012E+03  0.35705935661E+03  0.12500238007E+03 0.  0.
          2    1    1    2  501    0 -0.84976598794E+02 -0.10275230852E+03 -0.22207923154E+04  0.22247915784E+04  0.00000000000E+00 0. -1.
          1    1    1    2  502    0  0.97220301251E+01 -0.45793690278E+02  0.12343127190E+04  0.12352001733E+04  0.00000000000E+00 0. -1.
         22    1    3    3    0    0  0.93699324608E+02  0.12137662286E+03  0.28527558775E+03  0.32387344592E+03  0.00000000000E+00 0.  1.
         22    1    3    3    0    0 -0.18444755939E+02  0.27169375940E+02  0.47875523704E+01  0.33185910690E+02  0.00000000000E+00 0.  1.
</event>
<event>
 7    1  0.6443388E-006  0.4139662E+02  0.7818608E-02  0.1542863E+00
          2   -1    0    0  502    0  0.00000000000E+00  0.00000000000E+00  0.11763059327E+03  0.11763059327E+03  0.00000000000E+00 0. -1.
          1   -1    0    0  501    0 -0.00000000000E+00 -0.00000000000E+00 -0.30201027281E+03  0.30201027281E+03  0.00000000000E+00 0. -1.
         25    2    1    2    0    0 -0.28758650626E+02 -0.53234768694E+02 -0.13252298903E+03  0.19195920040E+03  0.12499996565E+03 0.  0.
          2    1    1    2  501    0 -0.52245128737E+01  0.30261383738E+02 -0.13313930883E+03  0.13663499711E+03  0.00000000000E+00 0. -1.
          1    1    1    2  502    0  0.33983163499E+02  0.22973384957E+02  0.81282618321E+02  0.91046668577E+02  0.00000000000E+00 0. -1.
         22    1    3    3    0    0  0.26451997081E+02 -0.35257049504E+02  0.33456737160E+01  0.44203633583E+02  0.00000000000E+00 0.  1.
         22    1    3    3    0    0 -0.55210647707E+02 -0.17977719190E+02 -0.13586866275E+03  0.14775556682E+03  0.00000000000E+00 0.  1.
</event>
<event>
 7    1  0.6443388E-006  0.1102598E+03  0.7818608E-02  0.1412644E+00
          2   -1    0    0  502    0  0.00000000000E+00  0.00000000000E+00  0.23045221348E+04  0.23045221348E+04  0.00000000000E+00 0. -1.
          1   -1    0    0  501    0 -0.00000000000E+00 -0.00000000000E+00 -0.29354193425E+02  0.29354193425E+02  0.00000000000E+00 0. -1.
         25    2    1    2    0    0 -0.11234236247E+03  0.58477761290E+01  0.11920296475E+04  0.12038314033E+04  0.12498145520E+03 0.  0.
          2    1    1    2  501    0  0.10799182587E+03  0.22887521950E+02  0.10787036360E+03  0.15434405871E+03  0.00000000000E+00 0. -1.
          1    1    1    2  502    0  0.43505366014E+01 -0.28735298079E+02  0.97526793030E+03  0.97570086624E+03  0.00000000000E+00 0. -1.
         22    1    3    3    0    0 -0.28736082461E+02  0.61301583664E+02  0.45770450835E+03  0.46268462646E+03  0.00000000000E+00 0. -1.
         22    1    3    3    0    0 -0.83606280010E+02 -0.55453807535E+02  0.73432513913E+03  0.74114677682E+03  0.00000000000E+00 0. -1.
</event>
<event>
 7    1  0.6443388E-006  0.1341340E+03  0.7818608E-02  0.1408421E+00
          2   -1    0    0  502    0  0.00000000000E+00  0.00000000000E+00  0.12493806848E+04  0.12493806848E+04  0.00000000000E+00 0. -1.
          1   -1    0    0  501    0 -0.00000000000E+00 -0.00000000000E+00 -0.96155666548E+03  0.96155666548E+03  0.00000000000E+00 0. -1.
         25    2    1    2    0    0 -0.54953472558E+02  0.12857299616E+03 -0.32447673263E+03  0.37478165145E+03  0.12500094703E+03 0.  0.
          2    1    1    2  501    0 -0.18481354825E+02 -0.16371338725E+02 -0.60800409043E+03  0.60850518091E+03  0.00000000000E+00 0. -1.
          1    1    1    2  502    0  0.73434827383E+02 -0.11220165743E+03  0.12203048424E+04  0.12276505179E+04  0.00000000000E+00 0. -1.
         22    1    3    3    0    0 -0.81540817584E+02  0.57138252578E+02 -0.24597861983E+03  0.26536609854E+03  0.00000000000E+00 0.  1.
         22    1    3    3    0    0  0.26587345026E+02  0.71434743578E+02 -0.78498112803E+02  0.10941555291E+03  0.00000000000E+00 0.  1.
</event>
<event>
 7    1  0.6443388E-006  0.5220676E+03  0.7818608E-02  0.1063451E+00
          2   -1    0    0  502    0  0.00000000000E+00  0.00000000000E+00  0.19666447652E+04  0.19666447652E+04  0.00000000000E+00 0. -1.
          1   -1    0    0  501    0 -0.00000000000E+00 -0.00000000000E+00 -0.81266059887E+03  0.81266059887E+03  0.00000000000E+00 0. -1.
         25    2    1    2    0    0 -0.26782685324E+03 -0.39336772126E+03  0.20926144256E+03  0.53467939620E+03  0.12498927125E+03 0.  0.
          2    1    1    2  501    0  0.88499807444E+02  0.54045319608E+03 -0.52384932233E+03  0.75785221883E+03  0.00000000000E+00 0. -1.
          1    1    1    2  502    0  0.17932704580E+03 -0.14708547482E+03  0.14685720461E+04  0.14867737491E+04  0.00000000000E+00 0. -1.
         22    1    3    3    0    0 -0.10244679242E+03 -0.13406795991E+03  0.14042676972E+03  0.21952047924E+03  0.00000000000E+00 0.  1.
         22    1    3    3    0    0 -0.16538006082E+03 -0.25929976135E+03  0.68834672844E+02  0.31515891696E+03  0.00000000000E+00 0.  1.
</event>
<event>
 7    1  0.6443388E-006  0.2645947E+02  0.7818608E-02  0.1672315E+00
          2   -1    0    0  502    0  0.00000000000E+00  0.00000000000E+00  0.14786389062E+03  0.14786389062E+03  0.00000000000E+00 0. -1.
          1   -1    0    0  501    0 -0.00000000000E+00 -0.00000000000E+00 -0.12749954830E+04  0.12749954830E+04  0.00000000000E+00 0. -1.
         25    2    1    2    0    0 -0.15190163149E+02 -0.10140572619E+02  0.11756399291E+02  0.12687598390E+03  0.12500292035E+03 0.  0.
          2    1    1    2  501    0  0.24541161692E+02 -0.99810345716E+01 -0.12157215407E+04  0.12160101785E+04  0.00000000000E+00 0. -1.
          1    1    1    2  502    0 -0.93509985431E+01  0.20121607191E+02  0.76833549057E+02  0.79973211205E+02  0.00000000000E+00 0. -1.
         22    1    3    3    0    0  0.30941285787E+02  0.43032539331E+02  0.18549401488E+02  0.56153743446E+02  0.00000000000E+00 0.  1.
         22    1    3    3    0    0 -0.46131448936E+02 -0.53173111950E+02 -0.67930021970E+01  0.70722240449E+02  0.00000000000E+00 0.  1.
</event>
<event>
 7    1  0.8331424E-006  0.1169880E+03  0.7818608E-02  0.1257758E+00
          2   -1    0    0  502    0  0.00000000000E+00  0.00000000000E+00  0.12834538888E+04  0.12834538888E+04  0.00000000000E+00 0. -1.
          1   -1    0    0  501    0 -0.00000000000E+00 -0.00000000000E+00 -0.13798692530E+04  0.13798692530E+04  0.00000000000E+00 0. -1.
         25    2    1    2    0    0 -0.40617794807E-01  0.12975975924E+02 -0.10123497207E+03  0.16137755580E+03  0.12500327334E+03 0.  0.
          2    1    1    2  501    0 -0.11791717407E+02  0.10567533910E+03 -0.12434528622E+04  0.12479909224E+04  0.00000000000E+00 0. -1.
          1    1    1    2  502    0  0.11832335202E+02 -0.11865131502E+03  0.12482724701E+04  0.12539546636E+04  0.00000000000E+00 0. -1.
         22    1    3    3    0    0 -0.53192633540E+02  0.34721020317E+02 -0.31087709321E+02  0.70720938806E+02  0.00000000000E+00 0. -1.
         22    1    3    3    0    0  0.53152015745E+02 -0.21745044392E+02 -0.70147262747E+02  0.90656616992E+02  0.00000000000E+00 0. -1.
</event>
<event>
 7    1  0.6443388E-006  0.8055681E+02  0.7818608E-02  0.1429602E+00
          2   -1    0    0  502    0  0.00000000000E+00  0.00000000000E+00  0.12791092219E+04  0.12791092219E+04  0.00000000000E+00 0. -1.
          1   -1    0    0  501    0 -0.00000000000E+00 -0.00000000000E+00 -0.21879612453E+02  0.21879612453E+02  0.00000000000E+00 0. -1.
         25    2    1    2    0    0  0.71560304641E+02 -0.56425976024E+00  0.37934672933E+03  0.40577105338E+03  0.12500004448E+03 0.  0.
          2    1    1    2  501    0  0.33821430666E+01 -0.34758197954E+02  0.39389567465E+02  0.52641326368E+02  0.00000000000E+00 0. -1.
          1    1    1    2  502    0 -0.74942447708E+02  0.35322457714E+02  0.83849331261E+03  0.84257645456E+03  0.00000000000E+00 0. -1.
         22    1    3    3    0    0 -0.78664855594E+01 -0.47478649003E+02  0.17632308796E+03  0.18277290569E+03  0.00000000000E+00 0.  1.
         22    1    3    3    0    0  0.79426790201E+02  0.46914389243E+02  0.20302364137E+03  0.22299814769E+03  0.00000000000E+00 0.  1.
</event>
<event>
 7    1  0.6443388E-006  0.2042619E+03  0.7818608E-02  0.1332556E+00
          2   -1    0    0  502    0  0.00000000000E+00  0.00000000000E+00  0.50307825464E+03  0.50307825464E+03  0.00000000000E+00 0. -1.
          1   -1    0    0  501    0 -0.00000000000E+00 -0.00000000000E+00 -0.51409654079E+03  0.51409654079E+03  0.00000000000E+00 0. -1.
         25    2    1    2    0    0 -0.15636069667E+03 -0.16357891545E+03 -0.11748987931E+02  0.25878522793E+03  0.12500010574E+03 0.  0.
          2    1    1    2  501    0  0.14755029346E+03  0.13450220750E+03 -0.35182464392E+03  0.40452751821E+03  0.00000000000E+00 0. -1.
          1    1    1    2  502    0  0.88104032092E+01  0.29076707945E+02  0.35255534569E+03  0.35386204929E+03  0.00000000000E+00 0. -1.
         22    1    3    3    0    0 -0.13488194617E+02  0.19535899085E+02 -0.11837737879E+02  0.26527623059E+02  0.00000000000E+00 0. -1.
         22    1    3    3    0    0 -0.14287250205E+03 -0.18311481453E+03  0.88749947924E-01  0.23225760487E+03  0.00000000000E+00 0. -1.
</event>
<event>
 7    1  0.6443388E-006  0.6465893E+02  0.7818608E-02  0.1539765E+00
          2   -1    0    0  502    0  0.00000000000E+00  0.00000000000E+00  0.13015724647E+04  0.13015724647E+04  0.00000000000E+00 0. -1.
          1   -1    0    0  501    0 -0.00000000000E+00 -0.00000000000E+00 -0.24086201166E+03  0.24086201166E+03  0.00000000000E+00 0. -1.
         25    2    1    2    0    0  0.49876351513E+02  0.52530694846E+02  0.44605213923E+03  0.46886506545E+03  0.12499925741E+03 0.  0.
          2    1    1    2  501    0  0.49889098088E+01 -0.19430423636E+02 -0.22779809717E+03  0.22867969665E+03  0.00000000000E+00 0. -1.
          1    1    1    2  502    0 -0.54865261322E+02 -0.33100271210E+02  0.84245641094E+03  0.84488971421E+03  0.00000000000E+00 0. -1.
         22    1    3    3    0    0  0.29665054243E+02  0.20349311703E+02  0.20074735507E+02  0.41195933486E+02  0.00000000000E+00 0. -1.
         22    1    3    3    0    0  0.20211297270E+02  0.32181383142E+02  0.42597740372E+03  0.42766913197E+03  0.00000000000E+00 0. -1.
</event>
<event>
 7    1  0.6443388E-006  0.5787005E+02  0.7818608E-02  0.1432024E+00
          2   -1    0    0  502    0  0.00000000000E+00  0.00000000000E+00  0.12050049093E+03  0.12050049093E+03  0.00000000000E+00 0. -1.
          1   -1    0    0  501    0 -0.00000000000E+00 -0.00000000000E+00 -0.78739591581E+03  0.78739591581E+03  0.00000000000E+00 0. -1.
         25    2    1    2    0    0 -0.11534752117E+02 -0.78881790753E+02  0.10799471072E+02  0.14865230187E+03  0.12500196341E+03 0.  0.
          2    1    1    2  501    0  0.36955965171E+02  0.30205754881E+02 -0.69878933665E+03  0.70041749551E+03  0.00000000000E+00 0. -1.
          1    1    1    2  502    0 -0.25421213054E+02  0.48676035872E+02  0.21094440703E+02  0.58826609370E+02  0.00000000000E+00 0. -1.
         22    1    3    3    0    0  0.53193678907E+02 -0.12559517403E+02 -0.40082152606E+01  0.54803054136E+02  0.00000000000E+00 0.  1.
         22    1    3    3    0    0 -0.64728431024E+02 -0.66322273350E+02  0.14807686332E+02  0.93849247731E+02  0.00000000000E+00 0.  1.
</event>
<event>
 7    1  0.6443388E-006  0.1034187E+03  0.7818608E-02  0.1298873E+00
          2   -1    0    0  502    0  0.00000000000E+00  0.00000000000E+00  0.65331082909E+02  0.65331082909E+02  0.00000000000E+00 0. -1.
          1   -1    0    0  501    0 -0.00000000000E+00 -0.00000000000E+00 -0.25466119995E+04  0.25466119995E+04  0.00000000000E+00 0. -1.
         25    2    1    2    0    0 -0.14563847494E+02 -0.11977611935E+02 -0.74589718067E+03  0.75653310126E+03  0.12499664126E+03 0.  0.
          2    1    1    2  501    0  0.75574843345E+02 -0.71527337854E+02 -0.17481162550E+04  0.17512104836E+04  0.00000000000E+00 0. -1.
          1    1    1    2  502    0 -0.61010995851E+02  0.83504949788E+02  0.12732519019E+02  0.10419949757E+03  0.00000000000E+00 0. -1.
         22    1    3    3    0    0  0.51353889077E+01  0.15252617073E+02 -0.69707785564E+03  0.69726361685E+03  0.00000000000E+00 0.  1.
         22    1    3    3    0    0 -0.19699236402E+02 -0.27230229007E+02 -0.48819325023E+02  0.59269484411E+02  0.00000000000E+00 0.  1.
</event>
<event>
 7    1  0.6443388E-006  0.5519810E+02  0.7818608E-02  0.1446931E+00
          2   -1    0    0  502    0  0.00000000000E+00  0.00000000000E+00  0.72495888855E+03  0.72495888855E+03  0.00000000000E+00 0. -1.
          1   -1    0    0  501    0 -0.00000000000E+00 -0.00000000000E+00 -0.24274984845E+03  0.24274984845E+03  0.00000000000E+00 0. -1.
         25    2    1    2    0    0 -0.30220100721E+02  0.52656602998E+02  0.15339063966E+03  0.20697622782E+03  0.12499799286E+03 0.  0.
          2    1    1    2  501    0  0.53522178144E+02 -0.14439166973E+02 -0.21145867863E+03  0.21860440496E+03  0.00000000000E+00 0. -1.
          1    1    1    2  502    0 -0.23302077423E+02 -0.38217436025E+02  0.54027707907E+03  0.54212810423E+03  0.00000000000E+00 0. -1.
         22    1    3    3    0    0  0.22189198685E+02  0.75997951077E+02  0.10750468625E+03  0.13351144772E+03  0.00000000000E+00 0. -1.
         22    1    3    3    0    0 -0.52409299406E+02 -0.23341348079E+02  0.45885953419E+02  0.73464780103E+02  0.00000000000E+00 0. -1.
</event>
<event>
 7    1  0.6443388E-006  0.1871920E+03  0.7818608E-02  0.1304998E+00
          2   -1    0    0  502    0  0.00000000000E+00  0.00000000000E+00  0.66662502917E+03  0.66662502917E+03  0.00000000000E+00 0. -1.
          1   -1    0    0  501    0 -0.00000000000E+00 -0.00000000000E+00 -0.65800368726E+03  0.65800368726E+03  0.00000000000E+00 0. -1.
         25    2    1    2    0    0 -0.24831911300E+02  0.19861927055E+03  0.20677499866E+03  0.31376352215E+03  0.12500163723E+03 0.  0.
          2    1    1    2  501    0  0.61007905827E+02 -0.17645012007E+03 -0.58891841913E+03  0.61780378263E+03  0.00000000000E+00 0. -1.
          1    1    1    2  502    0 -0.36175994527E+02 -0.22169150476E+02  0.39076476238E+03  0.39306141166E+03  0.00000000000E+00 0. -1.
         22    1    3    3    0    0  0.23611924641E+02  0.11286406963E+01 -0.16130188872E+00  0.23639433863E+02  0.00000000000E+00 0. -1.
         22    1    3    3    0    0 -0.48443835941E+02  0.19749062985E+03  0.20693630055E+03  0.29012408828E+03  0.00000000000E+00 0. -1.
</event>
<event>
 7    1  0.6443388E-006  0.7299661E+02  0.7818608E-02  0.1446110E+00
          2   -1    0    0  502    0  0.00000000000E+00  0.00000000000E+00  0.53576879965E+03  0.53576879965E+03  0.00000000000E+00 0. -1.
          1   -1    0    0  501    0 -0.00000000000E+00 -0.00000000000E+00 -0.10449767452E+04  0.10449767452E+04  0.00000000000E+00 0. -1.
         25    2    1    2    0    0 -0.74392485518E+02  0.75333298652E+00 -0.12870108424E+03  0.19422646264E+03  0.12500056117E+03 0.  0.
          2    1    1    2  501    0  0.94087384928E+01  0.32728018856E+02 -0.88052613145E+03  0.88118438237E+03  0.00000000000E+00 0. -1.
          1    1    1    2  502    0  0.64983747025E+02 -0.33481351843E+02  0.50001927016E+03  0.50533469981E+03  0.00000000000E+00 0. -1.
         22    1    3    3    0    0  0.34213865233E+02  0.57981071160E+01 -0.46013845099E+02  0.57632287488E+02  0.00000000000E+00 0. -1.
         22    1    3    3    0    0 -0.10860635075E+03 -0.50447741294E+01 -0.82687239140E+02  0.13659417515E+03  0.00000000000E+00 0. -1.
</event>
<event>
 7    1  0.6443388E-006  0.6884895E+02  0.7818608E-02  0.1455600E+00
          2   -1    0    0  502    0  0.00000000000E+00  0.00000000000E+00  0.10121177667E+04  0.10121177667E+04  0.00000000000E+00 0. -1.
          1   -1    0    0  501    0 -0.00000000000E+00 -0.00000000000E+00 -0.16200553283E+03  0.16200553283E+03  0.00000000000E+00 0. -1.
         25    2    1    2    0    0  0.36146472514E+02 -0.56088018940E+02  0.12329743237E+03  0.18783197467E+03  0.12500464205E+03 0.  0.
          2    1    1    2  501    0 -0.31056309981E+02 -0.13006719593E+02 -0.12612523797E+03  0.13054211886E+03  0.00000000000E+00 0. -1.
          1    1    1    2  502    0 -0.50901625331E+01  0.69094738533E+02  0.85294003948E+03  0.85574920601E+03  0.00000000000E+00 0. -1.
         22    1    3    3    0    0  0.81923010844E+02 -0.44080407836E+02  0.69127952710E+02  0.11590140597E+03  0.00000000000E+00 0. -1.
         22    1    3    3    0    0 -0.45776538329E+02 -0.12007611104E+02  0.54169479662E+02  0.71930568694E+02  0.00000000000E+00 0. -1.
</event>
<event>
 7    1  0.6443388E-006  0.2846844E+02  0.7818608E-02  0.1649336E+00
          2   -1    0    0  502    0  0.00000000000E+00  0.00000000000E+00  0.17645895001E+04  0.17645895001E+04  0.00000000000E+00 0. -1.
          1   -1    0    0  501    0 -0.00000000000E+00 -0.00000000000E+00 -0.20777017729E+03  0.20777017729E+03  0.00000000000E+00 0. -1.
         25    2    1    2    0    0  0.42572664368E+01 -0.52596531506E+01  0.45815656611E+02  0.13330339188E+03  0.12499972651E+03 0.  0.
          2    1    1    2  501    0 -0.28031436029E+01  0.28653660411E+02 -0.16268026878E+03  0.16520823140E+03  0.00000000000E+00 0. -1.
          1    1    1    2  502    0 -0.14541228339E+01 -0.23394007261E+02  0.16736839350E+04  0.16738480541E+04  0.00000000000E+00 0. -1.
         22    1    3    3    0    0 -0.34691197503E+02  0.33504644324E+02  0.59580491794E+02  0.76654258707E+02  0.00000000000E+00 0.  1.
         22    1    3    3    0    0  0.38948463940E+02 -0.38764297474E+02 -0.13764835182E+02  0.56649133176E+02  0.00000000000E+00 0.  1.
</event>
<event>
 7    1  0.6443388E-006  0.7481864E+02  0.7818608E-02  0.1363843E+00
          2   -1    0    0  502    0  0.00000000000E+00  0.00000000000E+00  0.11434047450E+04  0.11434047450E+04  0.00000000000E+00 0. -1.
          1   -1    0    0  501    0 -0.00000000000E+00 -0.00000000000E+00 -0.19385357454E+02  0.19385357454E+02  0.00000000000E+00 0. -1.
         25    2    1    2    0    0  0.46330869012E+01  0.93487245798E+02  0.64908267871E+03  0.66760261366E+03  0.12499438124E+03 0.  0.
          2    1    1    2  501    0  0.47548611661E+02 -0.57361889186E+02  0.21241641464E+03  0.22510439803E+03  0.00000000000E+00 0. -1.
          1    1    1    2  502    0 -0.52181698562E+02 -0.36125356612E+02  0.26252029419E+03  0.27008309077E+03  0.00000000000E+00 0. -1.
         22    1    3    3    0    0  0.45092607153E+02  0.47601660951E+02  0.13704035516E+03  0.15191879504E+03  0.00000000000E+00 0.  1.
         22    1    3    3    0    0 -0.40459520252E+02  0.45885584848E+02  0.51204232356E+03  0.51568381862E+03  0.00000000000E+00 0.  1.
</event>
<event>
 7    1  0.6443388E-006  0.2085945E+03  0.7818608E-02  0.1170740E+00
          2   -1    0    0  502    0  0.00000000000E+00  0.00000000000E+00  0.36948739041E+04  0.36948739041E+04  0.00000000000E+00 0. -1.
          1   -1    0    0  501    0 -0.00000000000E+00 -0.00000000000E+00 -0.93991503533E+03  0.93991503533E+03  0.00000000000E+00 0. -1.
         25    2    1    2    0    0  0.57167920554E+02 -0.30618986213E+03  0.66226665944E+03  0.74245594524E+03  0.12499319823E+03 0.  0.
          2    1    1    2  501    0  0.50176343230E+02  0.20114729779E+03 -0.88596254777E+03  0.90989424489E+03  0.00000000000E+00 0. -1.
          1    1    1    2  502    0 -0.10734426378E+03  0.10504256433E+03  0.29786547571E+04  0.29824387493E+04  0.00000000000E+00 0. -1.
         22    1    3    3    0    0 -0.21624624097E+02 -0.74985446326E+02  0.26360543689E+03  0.27491501939E+03  0.00000000000E+00 0.  1.
         22    1    3    3    0    0  0.78792544651E+02 -0.23120441580E+03  0.39866122255E+03  0.46754092585E+03  0.00000000000E+00 0.  1.
</event>
<event>
 7    1  0.6443388E-006  0.1921172E+03  0.7818608E-02  0.1253219E+00
          2   -1    0    0  502    0  0.00000000000E+00  0.00000000000E+00  0.11664783398E+04  0.11664783398E+04  0.00000000000E+00 0. -1.
          1   -1    0    0  501    0 -0.00000000000E+00 -0.00000000000E+00 -0.53971882177E+03  0.53971882177E+03  0.00000000000E+00 0. -1.
         25    2    1    2    0    0 -0.50268618769E+02 -0.11933899421E+03  0.32061496105E+03  0.36768227358E+03  0.12501028549E+03 0.  0.
          2    1    1    2  501    0  0.92587554754E+02  0.17221487680E+03 -0.49619135350E+03  0.53332567759E+03  0.00000000000E+00 0. -1.
          1    1    1    2  502    0 -0.42318935984E+02 -0.52875882589E+02  0.80233591047E+03  0.80518921040E+03  0.00000000000E+00 0. -1.
         22    1    3    3    0    0  0.10492998679E+02 -0.48943921940E+02  0.21557970742E+02  0.54500978144E+02  0.00000000000E+00 0.  1.
         22    1    3    3    0    0 -0.60761617448E+02 -0.70395072270E+02  0.29905699031E+03  0.31318129543E+03  0.00000000000E+00 0.  1.
</event>
<event>
 7    1  0.6443388E-006  0.9603454E+02  0.7818608E-02  0.1343887E+00
          2   -1    0    0  502    0  0.00000000000E+00  0.00000000000E+00  0.30421829495E+04  0.30421829495E+04  0.00000000000E+00 0. -1.
          1   -1    0    0  501    0 -0.00000000000E+00 -0.00000000000E+00 -0.22778147247E+02  0.22778147247E+02  0.00000000000E+00 0. -1.
         25    2    1    2    0    0  0.24810515954E+02  0.92417522542E+02  0.72811315096E+03  0.74493770402E+03  0.12500744815E+03 0.  0.
          2    1    1    2  501    0  0.33741575155E+02 -0.93624664865E+02  0.16336413339E+03  0.19129012479E+03  0.00000000000E+00 0. -1.
          1    1    1    2  502    0 -0.58552091109E+02  0.12071423225E+01  0.21279275179E+04  0.21287332680E+04  0.00000000000E+00 0. -1.
         22    1    3    3    0    0  0.36994225875E+01  0.11304431068E+03  0.67281622415E+03  0.68225682363E+03  0.00000000000E+00 0.  1.
         22    1    3    3    0    0  0.21111093366E+02 -0.20626788141E+02  0.55296926810E+02  0.62680880392E+02  0.00000000000E+00 0.  1.
</event>
<event>
 7    1  0.6443388E-006  0.1650523E+03  0.7818608E-02  0.1280073E+00
          2   -1    0    0  502    0  0.00000000000E+00  0.00000000000E+00  0.14742361470E+03  0.14742361470E+03  0.00000000000E+00 0. -1.
          1   -1    0    0  501    0 -0.00000000000E+00 -0.00000000000E+00 -0.49037144976E+03  0.49037144976E+03  0.00000000000E+00 0. -1.
         25    2    1    2    0    0  0.74571738150E+02 -0.13121995478E+03 -0.96983406345E+02  0.21865587462E+03  0.12499995894E+03 0.  0.
          2    1    1    2  501    0 -0.43008584975E+02 -0.42856234580E+02 -0.23407985994E+03  0.24182592097E+03  0.00000000000E+00 0. -1.
          1    1    1    2  502    0 -0.31563153175E+02  0.17407618936E+03 -0.11884568780E+02  0.17731326887E+03  0.00000000000E+00 0. -1.
         22    1    3    3    0    0 -0.48126185534E+01 -0.94253824375E+02 -0.90646459064E+02  0.13085765261E+03  0.00000000000E+00 0.  1.
         22    1    3    3    0    0  0.79384356703E+02 -0.36966130408E+02 -0.63369472805E+01  0.87798222006E+02  0.00000000000E+00 0.  1.
</event>
<event>
 7    1  0.6443388E-006  0.1356449E+03  0.7818608E-02  0.1351859E+00
          2   -1    0    0  502    0  0.00000000000E+00  0.00000000000E+00  0.33154985131E+04  0.33154985131E+04  0.00000000000E+00 0. -1.
          1   -1    0    0  501    0 -0.00000000000E+00 -0.00000000000E+00 -0.12922532429E+03  0.12922532429E+03  0.00000000000E+00 0. -1.
         25    2    1    2    0    0  0.34549295656E+01  0.17269454348E+03  0.24337722728E+03  0.32356347982E+03  0.12500203529E+03 0.  0.
          2    1    1    2  501    0 -0.47922975898E+01 -0.38430503554E+02 -0.83365260986E+02  0.91921904130E+02  0.00000000000E+00 0. -1.
          1    1    1    2  502    0  0.13373680242E+01 -0.13426403993E+03  0.30262612225E+04  0.30292384534E+04  0.00000000000E+00 0. -1.
         22    1    3    3    0    0 -0.31741129947E+02  0.16788287828E+03  0.16505203961E+03  0.23755912091E+03  0.00000000000E+00 0. -1.
         22    1    3    3    0    0  0.35196059512E+02  0.48116652084E+01  0.78325187675E+02  0.86004358910E+02  0.00000000000E+00 0. -1.
</event>
<event>
 7    1  0.6443388E-006  0.2696265E+02  0.7818608E-02  0.1644463E+00
          2   -1    0    0  502    0  0.00000000000E+00  0.00000000000E+00  0.55878001063E+03  0.55878001063E+03  0.00000000000E+00 0. -1.
          1   -1    0    0  501    0 -0.00000000000E+00 -0.00000000000E+00 -0.53187624831E+03  0.53187624831E+03  0.00000000000E+00 0. -1.
         25    2    1    2    0    0 -0.36755734286E+02  0.24547336509E+02  0.18654618997E+03  0.22886225540E+03  0.12499958087E+03 0.  0.
          2    1    1    2  501    0  0.26922431464E+02 -0.10832543267E+01 -0.50990113972E+03  0.51061253710E+03  0.00000000000E+00 0. -1.
          1    1    1    2  502    0  0.98333028221E+01 -0.23464082182E+02  0.35025871206E+03  0.35118146644E+03  0.00000000000E+00 0. -1.
         22    1    3    3    0    0 -0.30837960711E+02  0.73141540950E+02  0.86003131477E+02  0.11703505226E+03  0.00000000000E+00 0.  1.
         22    1    3    3    0    0 -0.59177735747E+01 -0.48594204441E+02  0.10054305850E+03  0.11182720314E+03  0.00000000000E+00 0.  1.
</event>
<event>
 7    1  0.6443388E-006  0.4125725E+02  0.7818608E-02  0.1505528E+00
          2   -1    0    0  502    0  0.00000000000E+00  0.00000000000E+00  0.59497452906E+03  0.59497452906E+03  0.00000000000E+00 0. -1.
          1   -1    0    0  501    0 -0.00000000000E+00 -0.00000000000E+00 -0.73631604807E+02  0.73631604807E+02  0.00000000000E+00 0. -1.
         25    2    1    2    0    0 -0.28559454768E+02  0.35695658875E+02  0.36857006602E+02  0.13810584980E+03  0.12499985717E+03 0.  0.
          2    1    1    2  501    0 -0.12474435850E+02 -0.39982912325E+02 -0.23212252609E+01  0.41947978670E+02  0.00000000000E+00 0. -1.
          1    1    1    2  502    0  0.41033890618E+02  0.42872534504E+01  0.48680714291E+03  0.48855230540E+03  0.00000000000E+00 0. -1.
         22    1    3    3    0    0 -0.16945393609E+02  0.82832659417E+02  0.23047883286E+02  0.87633331300E+02  0.00000000000E+00 0.  1.
         22    1    3    3    0    0 -0.11614061159E+02 -0.47137000543E+02  0.13809123317E+02  0.50472518498E+02  0.00000000000E+00 0.  1.
</event>
<event>
 7    1  0.6443388E-006  0.7151965E+02  0.7818608E-02  0.1388597E+00
          2   -1    0    0  502    0  0.00000000000E+00  0.00000000000E+00  0.12312130557E+04  0.12312130557E+04  0.00000000000E+00 0. -1.
          1   -1    0    0  501    0 -0.00000000000E+00 -0.00000000000E+00 -0.85820624618E+03  0.85820624618E+03  0.00000000000E+00 0. -1.
         25    2    1    2    0    0 -0.84990769260E+01  0.46988942338E+02  0.37689538645E+03  0.39994457171E+03  0.12500133238E+03 0.  0.
          2    1    1    2  501    0  0.51463922160E+02  0.16984564033E+02 -0.84404923381E+03  0.84578727810E+03  0.00000000000E+00 0. -1.
          1    1    1    2  502    0 -0.42964845234E+02 -0.63973506371E+02  0.84016065684E+03  0.84368745205E+03  0.00000000000E+00 0. -1.
         22    1    3    3    0    0  0.33460149106E+02  0.51266708744E+02  0.33481451830E+03  0.34036541932E+03  0.00000000000E+00 0.  1.
         22    1    3    3    0    0 -0.41959226032E+02 -0.42777664061E+01  0.42080868150E+02  0.59579152385E+02  0.00000000000E+00 0.  1.
</event>
<event>
 7    1  0.6443388E-006  0.6301418E+02  0.7818608E-02  0.1536717E+00
          2   -1    0    0  502    0  0.00000000000E+00  0.00000000000E+00  0.71340982776E+03  0.71340982776E+03  0.00000000000E+00 0. -1.
          1   -1    0    0  501    0 -0.00000000000E+00 -0.00000000000E+00 -0.11136648897E+03  0.11136648897E+03  0.00000000000E+00 0. -1.
         25    2    1    2    0    0  0.44301812238E+02  0.70159958342E+02  0.21310822347E+03  0.26062419425E+03  0.12499914159E+03 0.  0.
          2    1    1    2  501    0 -0.34686467457E+02 -0.51493203639E+02 -0.76342119449E+02  0.98401322387E+02  0.00000000000E+00 0. -1.
          1    1    1    2  502    0 -0.96153447811E+01 -0.18666754703E+02  0.46527723477E+03  0.46575080009E+03  0.00000000000E+00 0. -1.
         22    1    3    3    0    0  0.45689715281E+02  0.10255160240E+03  0.19042121025E+03  0.22105342918E+03  0.00000000000E+00 0.  1.
         22    1    3    3    0    0 -0.13879030427E+01 -0.32391644062E+02  0.22687013219E+02  0.39570765075E+02  0.00000000000E+00 0.  1.
</event>
<event>
 7    1  0.6443388E-006  0.8739051E+02  0.7818608E-02  0.1312175E+00
          2   -1    0    0  502    0  0.00000000000E+00  0.00000000000E+00  0.18965324709E+03  0.18965324709E+03  0.00000000000E+00 0. -1.
          1   -1    0    0  501    0 -0.00000000000E+00 -0.00000000000E+00 -0.32681023303E+03  0.32681023303E+03  0.00000000000E+00 0. -1.
         25    2    1    2    0    0 -0.12468945598E+02  0.17789392659E+02 -0.21591210814E+02  0.12871640960E+03  0.12501918501E+03 0.  0.
          2    1    1    2  501    0 -0.51829087335E+02  0.67546938546E+02 -0.22149159645E+03  0.23729174132E+03  0.00000000000E+00 0. -1.
          1    1    1    2  502    0  0.64298032934E+02 -0.85336331205E+02  0.10592582132E+03  0.15045532920E+03  0.00000000000E+00 0. -1.
         22    1    3    3    0    0  0.39921685795E+02 -0.18559654661E+02 -0.42914124771E+02  0.61480272305E+02  0.00000000000E+00 0.  1.
         22    1    3    3    0    0 -0.52390631394E+02  0.36349047320E+02  0.21322913957E+02  0.67236137296E+02  0.00000000000E+00 0.  1.
</event>
<event>
 7    1  0.6443388E-006  0.1399369E+03  0.7818608E-02  0.1322152E+00
          2   -1    0    0  502    0  0.00000000000E+00  0.00000000000E+00  0.11697510024E+04  0.11697510024E+04  0.00000000000E+00 0. -1.
          1   -1    0    0  501    0 -0.00000000000E+00 -0.00000000000E+00 -0.15831752327E+03  0.15831752327E+03  0.00000000000E+00 0. -1.
         25    2    1    2    0    0  0.22310139306E+02  0.97604165205E+02  0.20151681869E+03  0.25740507638E+03  0.12499611894E+03 0.  0.
          2    1    1    2  501    0  0.18075759763E+02  0.45131471636E+02 -0.11974685468E+03  0.12923966895E+03  0.00000000000E+00 0. -1.
          1    1    1    2  502    0 -0.40385899069E+02 -0.14273563684E+03  0.92966351515E+03  0.94142378038E+03  0.00000000000E+00 0. -1.
         22    1    3    3    0    0  0.65741501963E+02  0.82481367247E+02  0.17497367251E+03  0.20430591547E+03  0.00000000000E+00 0.  1.
         22    1    3    3    0    0 -0.43431362657E+02  0.15122797958E+02  0.26543146182E+02  0.53099160911E+02  0.00000000000E+00 0.  1.
</event>
<event>
 7    1  0.6443388E-006  0.3647714E+02  0.7818608E-02  0.1617333E+00
          2   -1    0    0  502    0  0.00000000000E+00  0.00000000000E+00  0.22891475054E+04  0.22891475054E+04  0.00000000000E+00 0. -1.
          1   -1    0    0  501    0 -0.00000000000E+00 -0.00000000000E+00 -0.12821675614E+02  0.12821675614E+02  0.00000000000E+00 0. -1.
         25    2    1    2    0    0 -0.24714298668E+02 -0.39662728425E+02  0.12788667622E+04  0.12858107404E+04  0.12500054426E+03 0.  0.
          2    1    1    2  501    0  0.21661614157E+02  0.38466560907E+01  0.43840303336E+01  0.22433056255E+02  0.00000000000E+00 0. -1.
          1    1    1    2  502    0  0.30526845109E+01  0.35816072334E+02  0.99307503728E+03  0.99372538439E+03  0.00000000000E+00 0. -1.
         22    1    3    3    0    0  0.18592652119E+02 -0.27399878382E+02  0.86906368781E+02  0.93000843990E+02  0.00000000000E+00 0.  1.
         22    1    3    3    0    0 -0.43306950787E+02 -0.12262850043E+02  0.11919603934E+04  0.11928098964E+04  0.00000000000E+00 0.  1.
</event>
<event>
 7    1  0.6443388E-006  0.2862195E+03  0.7818608E-02  0.1229360E+00
          2   -1    0    0  502    0  0.00000000000E+00  0.00000000000E+00  0.63454185759E+03  0.63454185759E+03  0.00000000000E+00 0. -1.
          1   -1    0    0  501    0 -0.00000000000E+00 -0.00000000000E+00 -0.40230698961E+03  0.40230698961E+03  0.00000000000E+00 0. -1.
         25    2    1    2    0    0 -0.26198040776E+03 -0.40058850814E+02  0.37013793934E+02  0.29535334639E+03  0.12500053082E+03 0.  0.
          2    1    1    2  501    0 -0.32965196409E+02  0.47590982472E+02 -0.22259906547E+03  0.23000423851E+03  0.00000000000E+00 0. -1.
          1    1    1    2  502    0  0.29494560416E+03 -0.75321316580E+01  0.41782013951E+03  0.51149126229E+03  0.00000000000E+00 0. -1.
         22    1    3    3    0    0 -0.22977562767E+03 -0.47820957583E+02 -0.13342061254E+02  0.23507805864E+03  0.00000000000E+00 0. -1.
         22    1    3    3    0    0 -0.32204780088E+02  0.77621067687E+01  0.50355855188E+02  0.60275287753E+02  0.00000000000E+00 0. -1.
</event>
<event>
 7    1  0.6443388E-006  0.4095217E+02  0.7818608E-02  0.1544893E+00
          2   -1    0    0  502    0  0.00000000000E+00  0.00000000000E+00  0.18875165955E+02  0.18875165955E+02  0.00000000000E+00 0. -1.
          1   -1    0    0  501    0 -0.00000000000E+00 -0.00000000000E+00 -0.29447727605E+04  0.29447727605E+04  0.00000000000E+00 0. -1.
         25    2    1    2    0    0 -0.35022380455E+02 -0.23680640771E+01 -0.14971968996E+04  0.15028162145E+04  0.12500337488E+03 0.  0.
          2    1    1    2  501    0  0.46530850254E+01  0.30281643038E+02 -0.14178482160E+04  0.14181791822E+04  0.00000000000E+00 0. -1.
          1    1    1    2  502    0  0.30369295430E+02 -0.27913578961E+02 -0.10852478984E+02  0.42652529766E+02  0.00000000000E+00 0. -1.
         22    1    3    3    0    0 -0.37840577895E+02  0.26291633453E+02 -0.19763745954E+03  0.20293773611E+03  0.00000000000E+00 0. -1.
         22    1    3    3    0    0  0.28181974401E+01 -0.28659697530E+02 -0.12995594400E+04  0.12998784784E+04  0.00000000000E+00 0. -1.
</event>
<event>
 7    1  0.6443388E-006  0.5032043E+02  0.7818608E-02  0.1511992E+00
          2   -1    0    0  502    0  0.00000000000E+00  0.00000000000E+00  0.80398265219E+03  0.80398265219E+03  0.00000000000E+00 0. -1.
          1   -1    0    0  501    0 -0.00000000000E+00 -0.00000000000E+00 -0.16933439347E+03  0.16933439347E+03  0.00000000000E+00 0. -1.
         25    2    1    2    0    0 -0.66915017411E+02  0.25805922258E+02 -0.16464672776E+02  0.14505020673E+03  0.12499964737E+03 0.  0.
          2    1    1    2  501    0  0.16769881182E+02 -0.26062755281E+02 -0.84986643630E+02  0.90461183517E+02  0.00000000000E+00 0. -1.
          1    1    1    2  502    0  0.50145136229E+02  0.25683302252E+00  0.73609957513E+03  0.73780565541E+03  0.00000000000E+00 0. -1.
         22    1    3    3    0    0 -0.21252424204E+02  0.41220689125E+02 -0.62884459665E+02  0.78136201685E+02  0.00000000000E+00 0.  1.
         22    1    3    3    0    0 -0.45662593207E+02 -0.15414766867E+02  0.46419786889E+02  0.66914005042E+02  0.00000000000E+00 0.  1.
</event>
<event>
 7    1  0.6443388E-006  0.8630796E+02  0.7818608E-02  0.1381278E+00
          2   -1    0    0  502    0  0.00000000000E+00  0.00000000000E+00  0.21649322391E+03  0.21649322391E+03  0.00000000000E+00 0. -1.
          1   -1    0    0  501    0 -0.00000000000E+00 -0.00000000000E+00 -0.23249841976E+04  0.23249841976E+04  0.00000000000E+00 0. -1.
         25    2    1    2    0    0 -0.12221780871E+00 -0.12327027237E+03 -0.14533323681E+04  0.14638979081E+04  0.12500615194E+03 0.  0.
          2    1    1    2  501    0 -0.24632088787E+02  0.40789070944E+02 -0.85690167867E+03  0.85822548029E+03  0.00000000000E+00 0. -1.
          1    1    1    2  502    0  0.24754306596E+02  0.82481201426E+02  0.20174307314E+03  0.21935403312E+03  0.00000000000E+00 0. -1.
         22    1    3    3    0    0 -0.59952455809E+02 -0.52132818810E+02 -0.53392461661E+03  0.53980331971E+03  0.00000000000E+00 0. -1.
         22    1    3    3    0    0  0.59830238000E+02 -0.71137453560E+02 -0.91940775154E+03  0.92409458838E+03  0.00000000000E+00 0. -1.
</event>
<event>
 7    1  0.6443388E-006  0.3628188E+03  0.7818608E-02  0.1139306E+00
          2   -1    0    0  502    0  0.00000000000E+00  0.00000000000E+00  0.11695673686E+04  0.11695673686E+04  0.00000000000E+00 0. -1.
          1   -1    0    0  501    0 -0.00000000000E+00 -0.00000000000E+00 -0.30287491375E+03  0.30287491375E+03  0.00000000000E+00 0. -1.
         25    2    1    2    0    0 -0.90473573118E+02  0.43545054450E+03  0.20957570456E+03  0.50729704819E+03  0.12500270006E+03 0.  0.
          2    1    1    2  501    0  0.84406554278E+02 -0.92067566758E+02 -0.82493823604E+02  0.14968678695E+03  0.00000000000E+00 0. -1.
          1    1    1    2  502    0  0.60670188393E+01 -0.34338297775E+03  0.73961057388E+03  0.81545844720E+03  0.00000000000E+00 0. -1.
         22    1    3    3    0    0  0.22809169787E+02  0.17702810931E+03  0.62598370137E+02  0.18915011408E+03  0.00000000000E+00 0.  1.
         22    1    3    3    0    0 -0.11328274291E+03  0.25842243520E+03  0.14697733443E+03  0.31814693412E+03  0.00000000000E+00 0.  1.
</event>
<event>
 7    1  0.6443388E-006  0.8186499E+02  0.7818608E-02  0.1431168E+00
          2   -1    0    0  502    0  0.00000000000E+00  0.00000000000E+00  0.12688671252E+03  0.12688671252E+03  0.00000000000E+00 0. -1.
          1   -1    0    0  501    0 -0.00000000000E+00 -0.00000000000E+00 -0.75210174827E+03  0.75210174827E+03  0.00000000000E+00 0. -1.
         25    2    1    2    0    0 -0.10206021982E+01  0.50897145189E+02 -0.17055288093E+03  0.21749536609E+03  0.12499755221E+03 0.  0.
          2    1    1    2  501    0 -0.55990834259E+01  0.33494209534E+02 -0.54013195165E+03  0.54119842665E+03  0.00000000000E+00 0. -1.
          1    1    1    2  502    0  0.66196856242E+01 -0.84391354723E+02  0.85469796834E+02  0.12029466805E+03  0.00000000000E+00 0. -1.
         22    1    3    3    0    0 -0.58670269245E+02  0.15517471057E+01 -0.82650999077E+02  0.10136960127E+03  0.00000000000E+00 0.  1.
         22    1    3    3    0    0  0.57649667047E+02  0.49345398083E+02 -0.87901881853E+02  0.11612576482E+03  0.00000000000E+00 0.  1.
</event>
<event>
 7    1  0.6443388E-006  0.1483134E+03  0.7818608E-02  0.1261263E+00
          2   -1    0    0  502    0  0.00000000000E+00  0.00000000000E+00  0.36943584357E+03  0.36943584357E+03  0.00000000000E+00 0. -1.
          1   -1    0    0  501    0 -0.00000000000E+00 -0.00000000000E+00 -0.63937200822E+03  0.63937200822E+03  0.00000000000E+00 0. -1.
         25    2    1    2    0    0  0.12810758829E+03  0.18148951327E+03  0.64725526168E+01  0.25498347107E+03  0.12499871590E+03 0.  0.
          2    1    1    2  501    0 -0.92433667928E+02 -0.10873387843E+03 -0.49791413000E+03  0.51796285595E+03  0.00000000000E+00 0. -1.
          1    1    1    2  502    0 -0.35673920359E+02 -0.72755634845E+02  0.22150541274E+03  0.23586152477E+03  0.00000000000E+00 0. -1.
         22    1    3    3    0    0  0.83385643492E+02  0.19135476474E+03  0.18581155778E-01  0.20873383021E+03  0.00000000000E+00 0.  1.
         22    1    3    3    0    0  0.44721944795E+02 -0.98652514610E+01  0.64539714610E+01  0.46249640866E+02  0.00000000000E+00 0.  1.
</event>
<event>
 7    1  0.6443388E-006  0.6251262E+02  0.7818608E-02  0.1460964E+00
          2   -1    0    0  502    0  0.00000000000E+00  0.00000000000E+00  0.17635438825E+03  0.17635438825E+03  0.00000000000E+00 0. -1.
          1   -1    0    0  501    0 -0.00000000000E+00 -0.00000000000E+00 -0.14210008320E+04  0.14210008320E+04  0.00000000000E+00 0. -1.
         25    2    1    2    0    0 -0.44979015900E+02 -0.44333978358E+02 -0.47963698285E+03  0.49966405922E+03  0.12499569293E+03 0.  0.
          2    1    1    2  501    0  0.13931272825E+02  0.61879360068E+02 -0.92834419798E+03  0.93050850909E+03  0.00000000000E+00 0. -1.
          1    1    1    2  502    0  0.31047743075E+02 -0.17545381710E+02  0.16333473708E+03  0.16718265193E+03  0.00000000000E+00 0. -1.
         22    1    3    3    0    0  0.17572340646E+02 -0.68204335237E+02 -0.19720153497E+03  0.20940168074E+03  0.00000000000E+00 0. -1.
         22    1    3    3    0    0 -0.62551356545E+02  0.23870356879E+02 -0.28243544788E+03  0.29026237849E+03  0.00000000000E+00 0. -1.
</event>
<event>
 7    1  0.6443388E-006  0.9216773E+02  0.7818608E-02  0.1469380E+00
          2   -1    0    0  502    0  0.00000000000E+00  0.00000000000E+00  0.92155265890E+02  0.92155265890E+02  0.00000000000E+00 0. -1.
          1   -1    0    0  501    0 -0.00000000000E+00 -0.00000000000E+00 -0.56664256055E+03  0.56664256055E+03  0.00000000000E+00 0. -1.
         25    2    1    2    0    0  0.91271165028E+02  0.56016126159E+02 -0.17894174717E+03  0.24313372275E+03  0.12500250517E+03 0.  0.
          2    1    1    2  501    0 -0.83550140580E+01 -0.21174776898E+02 -0.32130393722E+03  0.32210929435E+03  0.00000000000E+00 0. -1.
          1    1    1    2  502    0 -0.82916150970E+02 -0.34841349261E+02  0.25758389729E+02  0.93554809344E+02  0.00000000000E+00 0. -1.
         22    1    3    3    0    0  0.35121329379E+01 -0.29945965057E+02 -0.55863280106E+01  0.30664359794E+02  0.00000000000E+00 0. -1.
         22    1    3    3    0    0  0.87759032090E+02  0.85962091216E+02 -0.17335541916E+03  0.21246936295E+03  0.00000000000E+00 0. -1.
</event>
<event>
 7    1  0.6443388E-006  0.1296230E+03  0.7818608E-02  0.1299093E+00
          2   -1    0    0  502    0  0.00000000000E+00  0.00000000000E+00  0.31722629758E+04  0.31722629758E+04  0.00000000000E+00 0. -1.
          1   -1    0    0  501    0 -0.00000000000E+00 -0.00000000000E+00 -0.35241162052E+03  0.35241162052E+03  0.00000000000E+00 0. -1.
         25    2    1    2    0    0  0.55676469995E+02 -0.97082053410E+02  0.82212522653E+02  0.18683812662E+03  0.12499916908E+03 0.  0.
          2    1    1    2  501    0 -0.11383160048E+03  0.68752607675E+02 -0.28500347142E+03  0.31450203982E+03  0.00000000000E+00 0. -1.
          1    1    1    2  502    0  0.58155130481E+02  0.28329445735E+02  0.30226423041E+04  0.30233344299E+04  0.00000000000E+00 0. -1.
         22    1    3    3    0    0  0.90784104333E+02 -0.64045969541E+02  0.82906715809E+02  0.13862598364E+03  0.00000000000E+00 0. -1.
         22    1    3    3    0    0 -0.35107634338E+02 -0.33036083869E+02 -0.69419315503E+00  0.48212142976E+02  0.00000000000E+00 0. -1.
</event>
<event>
 7    1  0.6443388E-006  0.9192225E+02  0.7818608E-02  0.1315341E+00
          2   -1    0    0  502    0  0.00000000000E+00  0.00000000000E+00  0.36730775448E+03  0.36730775448E+03  0.00000000000E+00 0. -1.
          1   -1    0    0  501    0 -0.00000000000E+00 -0.00000000000E+00 -0.40447612820E+03  0.40447612820E+03  0.00000000000E+00 0. -1.
         25    2    1    2    0    0 -0.11063741012E+03 -0.62661118605E+02 -0.13925842495E+03  0.22624087970E+03  0.12499989769E+03 0.  0.
          2    1    1    2  501    0  0.34384744364E+02  0.81989002132E+02 -0.20769615894E+03  0.22592521230E+03  0.00000000000E+00 0. -1.
          1    1    1    2  502    0  0.76252665760E+02 -0.19327883527E+02  0.30978621017E+03  0.31961779069E+03  0.00000000000E+00 0. -1.
         22    1    3    3    0    0 -0.73062547640E+02 -0.77670764911E+02 -0.31581555009E+02  0.11121276099E+03  0.00000000000E+00 0. -1.
         22    1    3    3    0    0 -0.37574862484E+02  0.15009646306E+02 -0.10767686994E+03  0.11502811871E+03  0.00000000000E+00 0. -1.
</event>
<event>
 7    1  0.6443388E-006  0.5043708E+02  0.7818608E-02  0.1444574E+00
          2   -1    0    0  502    0  0.00000000000E+00  0.00000000000E+00  0.62732902487E+03  0.62732902487E+03  0.00000000000E+00 0. -1.
          1   -1    0    0  501    0 -0.00000000000E+00 -0.00000000000E+00 -0.49959797695E+03  0.49959797695E+03  0.00000000000E+00 0. -1.
         25    2    1    2    0    0 -0.11453773239E+02  0.40736616297E+01 -0.15085146042E+03  0.19628819779E+03  0.12500043936E+03 0.  0.
          2    1    1    2  501    0  0.37965062403E+02  0.38833806901E+02 -0.32270333990E+03  0.32724128117E+03  0.00000000000E+00 0. -1.
          1    1    1    2  502    0 -0.26511289164E+02 -0.42907468531E+02  0.60128584824E+03  0.60339752287E+03  0.00000000000E+00 0. -1.
         22    1    3    3    0    0  0.12742966944E+02 -0.62745717773E+01 -0.16554105491E+03  0.16614931333E+03  0.00000000000E+00 0.  1.
         22    1    3    3    0    0 -0.24196740183E+02  0.10348233407E+02  0.14689594493E+02  0.30138884460E+02  0.00000000000E+00 0.  1.
</event>
<event>
 7    1  0.6443388E-006  0.5967651E+02  0.7818608E-02  0.1452466E+00
          2   -1    0    0  502    0  0.00000000000E+00  0.00000000000E+00  0.23663528514E+03  0.23663528514E+03  0.00000000000E+00 0. -1.
          1   -1    0    0  501    0 -0.00000000000E+00 -0.00000000000E+00 -0.49359544685E+03  0.49359544685E+03  0.00000000000E+00 0. -1.
         25    2    1    2    0    0 -0.20292374313E+00 -0.51197558640E+02  0.33754360194E+02  0.13923200945E+03  0.12499985774E+03 0.  0.
          2    1    1    2  501    0  0.39611011018E+02  0.32884312628E+01 -0.43350065986E+03  0.43531904171E+03  0.00000000000E+00 0. -1.
          1    1    1    2  502    0 -0.39408087275E+02  0.47909127377E+02  0.14278613796E+03  0.15567968083E+03  0.00000000000E+00 0. -1.
         22    1    3    3    0    0 -0.18730667077E+02 -0.86561340045E+02  0.26194884388E+01  0.88603415279E+02  0.00000000000E+00 0.  1.
         22    1    3    3    0    0  0.18527743333E+02  0.35363781405E+02  0.31134871755E+02  0.50628594169E+02  0.00000000000E+00 0.  1.
</event>
<event>
 7    1  0.6443388E-006  0.1256219E+03  0.7818608E-02  0.1324905E+00
          2   -1    0    0  502    0  0.00000000000E+00  0.00000000000E+00  0.35601332106E+04  0.35601332106E+04  0.00000000000E+00 0. -1.
          1   -1    0    0  501    0 -0.00000000000E+00 -0.00000000000E+00 -0.61769449997E+03  0.61769449997E+03  0.00000000000E+00 0. -1.
         25    2    1    2    0    0 -0.16635466197E+02  0.17571111866E+03  0.13223508890E+03  0.25350013908E+03  0.12500026328E+03 0.  0.
          2    1    1    2  501    0  0.15092723007E+02 -0.12288556800E+03 -0.54997238479E+03  0.56373599951E+03  0.00000000000E+00 0. -1.
          1    1    1    2  502    0  0.15427431904E+01 -0.52825550660E+02  0.33601760065E+04  0.33605915719E+04  0.00000000000E+00 0. -1.
         22    1    3    3    0    0 -0.39853939440E+02  0.73644527322E+02  0.12248531735E+03  0.14837286092E+03  0.00000000000E+00 0.  1.
         22    1    3    3    0    0  0.23218473243E+02  0.10206659134E+03  0.97497715548E+01  0.10512727816E+03  0.00000000000E+00 0.  1.
</event>
<event>
 7    1  0.6443388E-006  0.6013272E+02  0.7818608E-02  0.1539789E+00
          2   -1    0    0  502    0  0.00000000000E+00  0.00000000000E+00  0.41929931873E+02  0.41929931873E+02  0.00000000000E+00 0. -1.
          1   -1    0    0  501    0 -0.00000000000E+00 -0.00000000000E+00 -0.10432913139E+04  0.10432913139E+04  0.00000000000E+00 0. -1.
         25    2    1    2    0    0 -0.39496110340E+02  0.71745141785E+01 -0.19630605049E+03  0.23616246679E+03  0.12500091550E+03 0.  0.
          2    1    1    2  501    0  0.61016693017E+02 -0.57552543817E+01 -0.82033891971E+03  0.82262512907E+03  0.00000000000E+00 0. -1.
          1    1    1    2  502    0 -0.21520582676E+02 -0.14192597968E+01  0.15283588214E+02  0.26433649876E+02  0.00000000000E+00 0. -1.
         22    1    3    3    0    0 -0.37737113902E+02 -0.45719980873E+01  0.14590129274E+01  0.38041052179E+02  0.00000000000E+00 0. -1.
         22    1    3    3    0    0 -0.17589964383E+01  0.11746512266E+02 -0.19776506342E+03  0.19812141461E+03  0.00000000000E+00 0. -1.
</event>
<event>
 7    1  0.6443388E-006  0.1279887E+03  0.7818608E-02  0.1235104E+00
          2   -1    0    0  502    0  0.00000000000E+00  0.00000000000E+00  0.25072236040E+04  0.25072236040E+04  0.00000000000E+00 0. -1.
          1   -1    0    0  501    0 -0.00000000000E+00 -0.00000000000E+00 -0.42090288503E+03  0.42090288503E+03  0.00000000000E+00 0. -1.
         25    2    1    2    0    0  0.72911147467E+02  0.22424369276E+02  0.48999142581E+03  0.51140488796E+03  0.12499789720E+03 0.  0.
          2    1    1    2  501    0 -0.84149598311E+02  0.99094847301E+02 -0.39798335929E+03  0.41867851381E+03  0.00000000000E+00 0. -1.
          1    1    1    2  502    0  0.11238450844E+02 -0.12151921658E+03  0.19943126525E+04  0.19980430873E+04  0.00000000000E+00 0. -1.
         22    1    3    3    0    0  0.25506819829E+02 -0.25641419482E+00  0.82549319233E+01  0.26810585728E+02  0.00000000000E+00 0. -1.
         22    1    3    3    0    0  0.47404327638E+02  0.22680783471E+02  0.48173649388E+03  0.48459430223E+03  0.00000000000E+00 0. -1.
</event>
<event>
 7    1  0.6443388E-006  0.4555102E+02  0.7818608E-02  0.1499853E+00
          2   -1    0    0  502    0  0.00000000000E+00  0.00000000000E+00  0.15336244850E+04  0.15336244850E+04  0.00000000000E+00 0. -1.
          1   -1    0    0  501    0 -0.00000000000E+00 -0.00000000000E+00 -0.45730158769E+02  0.45730158769E+02  0.00000000000E+00 0. -1.
         25    2    1    2    0    0  0.10269164731E+02 -0.22595910331E+01  0.43472574678E+03  0.45246147794E+03  0.12499741043E+03 0.  0.
          2    1    1    2  501    0  0.37072128085E+02 -0.29600185343E+01 -0.26821743668E+02  0.45853138648E+02  0.00000000000E+00 0. -1.
          1    1    1    2  502    0 -0.47341292817E+02  0.52196095673E+01  0.10799903231E+04  0.10810400271E+04  0.00000000000E+00 0. -1.
         22    1    3    3    0    0  0.50510379048E+02 -0.11057729634E+02  0.38233973547E+03  0.38582022380E+03  0.00000000000E+00 0.  1.
         22    1    3    3    0    0 -0.40241214316E+02  0.87981386009E+01  0.52386011306E+02  0.66641254137E+02  0.00000000000E+00 0.  1.
</event>
<event>
 7    1  0.6443388E-006  0.6316229E+02  0.7818608E-02  0.1440594E+00
          2   -1    0    0  502    0  0.00000000000E+00  0.00000000000E+00  0.72649526107E+03  0.72649526107E+03  0.00000000000E+00 0. -1.
          1   -1    0    0  501    0 -0.00000000000E+00 -0.00000000000E+00 -0.97204367296E+03  0.97204367296E+03  0.00000000000E+00 0. -1.
         25    2    1    2    0    0 -0.73295514064E+02  0.73804123202E+02 -0.38802104890E+03  0.42071933836E+03  0.12500058520E+03 0.  0.
          2    1    1    2  501    0  0.28414826618E+02 -0.29562078936E+02 -0.56553156834E+03  0.56701611412E+03  0.00000000000E+00 0. -1.
          1    1    1    2  502    0  0.44880687446E+02 -0.44242044266E+02  0.70800420535E+03  0.71080348155E+03  0.00000000000E+00 0. -1.
         22    1    3    3    0    0  0.23225232468E+02  0.95612248235E+01 -0.18682338947E+03  0.18850413072E+03  0.00000000000E+00 0. -1.
         22    1    3    3    0    0 -0.96520746532E+02  0.64242898379E+02 -0.20119765943E+03  0.23221520765E+03  0.00000000000E+00 0. -1.
</event>
<event>
 7    1  0.6443388E-006  0.6399057E+02  0.7818608E-02  0.1384963E+00
          2   -1    0    0  502    0  0.00000000000E+00  0.00000000000E+00  0.39087933954E+04  0.39087933954E+04  0.00000000000E+00 0. -1.
          1   -1    0    0  501    0 -0.00000000000E+00 -0.00000000000E+00 -0.24024229050E+02  0.24024229050E+02  0.00000000000E+00 0. -1.
         25    2    1    2    0    0  0.30666453507E+02 -0.23011357216E+02  0.84909213946E+03  0.85909972900E+03  0.12499971654E+03 0.  0.
          2    1    1    2  501    0 -0.45173768522E+02 -0.43009934565E+02  0.33539845393E+02  0.70819806995E+02  0.00000000000E+00 0. -1.
          1    1    1    2  502    0  0.14507315015E+02  0.66021291781E+02  0.30021371815E+04  0.30028980884E+04  0.00000000000E+00 0. -1.
         22    1    3    3    0    0  0.55518328597E+02  0.18868513682E+02  0.20646815483E+03  0.21463318611E+03  0.00000000000E+00 0.  1.
         22    1    3    3    0    0 -0.24851875090E+02 -0.41879870898E+02  0.64262398463E+03  0.64446654289E+03  0.00000000000E+00 0.  1.
</event>
<event>
 7    1  0.6443388E-006  0.1010809E+03  0.7818608E-02  0.1428251E+00
          2   -1    0    0  502    0  0.00000000000E+00  0.00000000000E+00  0.73444406503E+03  0.73444406503E+03  0.00000000000E+00 0. -1.
          1   -1    0    0  501    0 -0.00000000000E+00 -0.00000000000E+00 -0.11945398099E+03  0.11945398099E+03  0.00000000000E+00 0. -1.
         25    2    1    2    0    0 -0.95559854048E+02  0.42661968064E+02  0.10499829348E+03  0.19391024945E+03  0.12499925593E+03 0.  0.
          2    1    1    2  501    0  0.17730245426E+02  0.21824100186E+02 -0.67811845213E+02  0.73410484966E+02  0.00000000000E+00 0. -1.
          1    1    1    2  502    0  0.77829608622E+02 -0.64486068249E+02  0.57780363577E+03  0.58657731160E+03  0.00000000000E+00 0. -1.
         22    1    3    3    0    0 -0.55249224315E+02  0.16422347479E+02 -0.19177227671E+02  0.60744846244E+02  0.00000000000E+00 0. -1.
         22    1    3    3    0    0 -0.40310629733E+02  0.26239620584E+02  0.12417552115E+03  0.13316540321E+03  0.00000000000E+00 0. -1.
</event>
<event>
 7    1  0.6443388E-006  0.1502727E+03  0.7818608E-02  0.1312595E+00
          2   -1    0    0  502    0  0.00000000000E+00  0.00000000000E+00  0.16901482900E+04  0.16901482900E+04  0.00000000000E+00 0. -1.
          1   -1    0    0  501    0 -0.00000000000E+00 -0.00000000000E+00 -0.37400913707E+03  0.37400913707E+03  0.00000000000E+00 0. -1.
         25    2    1    2    0    0  0.72718143773E+02  0.14573595727E+03  0.15715933406E+03  0.25855563371E+03  0.12500024706E+03 0.  0.
          2    1    1    2  501    0 -0.49273046424E+02  0.22722895743E+01 -0.31761507530E+03  0.32142235838E+03  0.00000000000E+00 0. -1.
          1    1    1    2  502    0 -0.23445097348E+02 -0.14800824685E+03  0.14765948942E+04  0.14841794350E+04  0.00000000000E+00 0. -1.
         22    1    3    3    0    0  0.68536543047E+02  0.14659358556E+03  0.17608748345E+03  0.23915212500E+03  0.00000000000E+00 0. -1.
         22    1    3    3    0    0  0.41816007257E+01 -0.85762828655E+00 -0.18928149394E+02  0.19403508714E+02  0.00000000000E+00 0. -1.
</event>
<event>
 7    1  0.6443388E-006  0.1660428E+03  0.7818608E-02  0.1223007E+00
          2   -1    0    0  502    0  0.00000000000E+00  0.00000000000E+00  0.26924895516E+04  0.26924895516E+04  0.00000000000E+00 0. -1.
          1   -1    0    0  501    0 -0.00000000000E+00 -0.00000000000E+00 -0.98967502450E+02  0.98967502450E+02  0.00000000000E+00 0. -1.
         25    2    1    2    0    0 -0.16242238157E+02 -0.75642422862E+02  0.16196997283E+03  0.21872925427E+03  0.12499051220E+03 0.  0.
          2    1    1    2  501    0 -0.76113839793E+02 -0.74639876042E+02 -0.25289059445E+02  0.10956260416E+03  0.00000000000E+00 0. -1.
          1    1    1    2  502    0  0.92356077950E+02  0.15028229890E+03  0.24568411358E+04  0.24631651957E+04  0.00000000000E+00 0. -1.
         22    1    3    3    0    0 -0.44822059277E+02 -0.97897127889E+02  0.99976839606E+02  0.14692934732E+03  0.00000000000E+00 0.  1.
         22    1    3    3    0    0  0.28579821121E+02  0.22254705027E+02  0.61993133227E+02  0.71799906953E+02  0.00000000000E+00 0.  1.
</event>
<event>
 7    1  0.6443388E-006  0.1474172E+03  0.7818608E-02  0.1241954E+00
          2   -1    0    0  502    0  0.00000000000E+00  0.00000000000E+00  0.33480159736E+04  0.33480159736E+04  0.00000000000E+00 0. -1.
          1   -1    0    0  501    0 -0.00000000000E+00 -0.00000000000E+00 -0.19014605810E+03  0.19014605810E+03  0.00000000000E+00 0. -1.
         25    2    1    2    0    0  0.63067218966E+02 -0.16183757109E+02  0.20726988339E+03  0.25064886175E+03  0.12499863693E+03 0.  0.
          2    1    1    2  501    0 -0.14501791746E+03  0.71400688258E+02 -0.12870474327E+03  0.20662324557E+03  0.00000000000E+00 0. -1.
          1    1    1    2  502    0  0.81950698496E+02 -0.55216931150E+02  0.30793047754E+04  0.30808899244E+04  0.00000000000E+00 0. -1.
         22    1    3    3    0    0 -0.11537584401E+01 -0.20422822553E+02 -0.10903786168E+02  0.23180064546E+02  0.00000000000E+00 0. -1.
         22    1    3    3    0    0  0.64220977406E+02  0.42390654443E+01  0.21817366956E+03  0.22746879721E+03  0.00000000000E+00 0. -1.
</event>
<event>
 7    1  0.6443388E-006  0.1110204E+03  0.7818608E-02  0.1264244E+00
          2   -1    0    0  502    0  0.00000000000E+00  0.00000000000E+00  0.36762490995E+03  0.36762490995E+03  0.00000000000E+00 0. -1.
          1   -1    0    0  501    0 -0.00000000000E+00 -0.00000000000E+00 -0.10874511355E+04  0.10874511355E+04  0.00000000000E+00 0. -1.
         25    2    1    2    0    0 -0.50646185089E+01 -0.46713237630E+02 -0.33103481309E+03  0.35695437733E+03  0.12499841235E+03 0.  0.
          2    1    1    2  501    0  0.56818445939E+02  0.13823257091E+03 -0.72790168233E+03  0.74308642741E+03  0.00000000000E+00 0. -1.
          1    1    1    2  502    0 -0.51753827430E+02 -0.91519333281E+02  0.33911026987E+03  0.35503524071E+03  0.00000000000E+00 0. -1.
         22    1    3    3    0    0  0.36897779833E+02 -0.71858346290E+02 -0.16260085820E+03  0.18156020262E+03  0.00000000000E+00 0. -1.
         22    1    3    3    0    0 -0.41962398342E+02  0.25145108659E+02 -0.16843395489E+03  0.17539417471E+03  0.00000000000E+00 0. -1.
</event>
<event>
 7    1  0.6443388E-006  0.6091771E+02  0.7818608E-02  0.1535400E+00
          2   -1    0    0  502    0  0.00000000000E+00  0.00000000000E+00  0.97991012215E+02  0.97991012215E+02  0.00000000000E+00 0. -1.
          1   -1    0    0  501    0 -0.00000000000E+00 -0.00000000000E+00 -0.24468552734E+04  0.24468552734E+04  0.00000000000E+00 0. -1.
         25    2    1    2    0    0 -0.38485704581E+02  0.50650039043E+02 -0.10456519484E+03  0.17494575100E+03  0.12500223962E+03 0.  0.
          2    1    1    2  501    0  0.17931323708E+02 -0.58232504912E+02 -0.23047741272E+04  0.23055793923E+04  0.00000000000E+00 0. -1.
          1    1    1    2  502    0  0.20554380873E+02  0.75824658691E+01  0.60475060838E+02  0.64321142287E+02  0.00000000000E+00 0. -1.
         22    1    3    3    0    0 -0.57886737190E+02  0.83128985045E+02 -0.65881248977E+02  0.12083725197E+03  0.00000000000E+00 0.  1.
         22    1    3    3    0    0  0.19401032609E+02 -0.32478946002E+02 -0.38683945867E+02  0.54108499032E+02  0.00000000000E+00 0.  1.
</event>
<event>
 7    1  0.6443388E-006  0.2922920E+02  0.7818608E-02  0.1635088E+00
          2   -1    0    0  502    0  0.00000000000E+00  0.00000000000E+00  0.19136476817E+04  0.19136476817E+04  0.00000000000E+00 0. -1.
          1   -1    0    0  501    0 -0.00000000000E+00 -0.00000000000E+00 -0.71861729461E+03  0.71861729461E+03  0.00000000000E+00 0. -1.
         25    2    1    2    0    0 -0.96545236509E+01  0.17660976314E+01 -0.13419705170E+03  0.18365640907E+03  0.12499799590E+03 0.  0.
          2    1    1    2  501    0 -0.30599864184E+01  0.24571399037E+02 -0.55930342535E+03  0.55985126487E+03  0.00000000000E+00 0. -1.
          1    1    1    2  502    0  0.12714510069E+02 -0.26337496668E+02  0.18885308642E+04  0.18887573024E+04  0.00000000000E+00 0. -1.
         22    1    3    3    0    0 -0.27744099049E+02  0.44953456554E+02 -0.12532104136E+03  0.13599967535E+03  0.00000000000E+00 0. -1.
         22    1    3    3    0    0  0.18089575398E+02 -0.43187358923E+02 -0.88760103365E+01  0.47656733714E+02  0.00000000000E+00 0. -1.
</event>
<event>
 7    1  0.6443388E-006  0.1530290E+03  0.7818608E-02  0.1352092E+00
          2   -1    0    0  502    0  0.00000000000E+00  0.00000000000E+00  0.34245402295E+03  0.34245402295E+03  0.00000000000E+00 0. -1.
          1   -1    0    0  501    0 -0.00000000000E+00 -0.00000000000E+00 -0.14895583267E+03  0.14895583267E+03  0.00000000000E+00 0. -1.
         25    2    1    2    0    0 -0.10094301287E+02  0.15542112271E+03  0.95888517496E+02  0.22153346420E+03  0.12499939067E+03 0.  0.
          2    1    1    2  501    0 -0.23894692152E+02 -0.15111498298E+03 -0.13516833884E+02  0.15358840839E+03  0.00000000000E+00 0. -1.
          1    1    1    2  502    0  0.33988993439E+02 -0.43061397329E+01  0.11112650666E+03  0.11628798303E+03  0.00000000000E+00 0. -1.
         22    1    3    3    0    0 -0.62327763147E+02  0.43345543017E+02  0.40489114778E+02  0.86040424068E+02  0.00000000000E+00 0.  1.
         22    1    3    3    0    0  0.52233461860E+02  0.11207557970E+03  0.55399402718E+02  0.13549304013E+03  0.00000000000E+00 0.  1.
</event>
<event>
 7    1  0.6443388E-006  0.6040309E+02  0.7818608E-02  0.1499937E+00
          2   -1    0    0  502    0  0.00000000000E+00  0.00000000000E+00  0.97201201810E+03  0.97201201810E+03  0.00000000000E+00 0. -1.
          1   -1    0    0  501    0 -0.00000000000E+00 -0.00000000000E+00 -0.62146951694E+02  0.62146951694E+02  0.00000000000E+00 0. -1.
         25    2    1    2    0    0  0.11827523922E+02  0.35774586360E+02  0.11559913767E+03  0.17435803789E+03  0.12497141031E+03 0.  0.
          2    1    1    2  501    0 -0.17443542127E+02 -0.63235820311E+02  0.55976926505E+00  0.65599995990E+02  0.00000000000E+00 0. -1.
          1    1    1    2  502    0  0.56160182057E+01  0.27461233950E+02  0.79370615947E+03  0.79420093592E+03  0.00000000000E+00 0. -1.
         22    1    3    3    0    0  0.96639588046E+01  0.22952297570E+02 -0.23744292317E+02  0.34409177282E+02  0.00000000000E+00 0. -1.
         22    1    3    3    0    0  0.21635651169E+01  0.12822288790E+02  0.13934342999E+03  0.13994886060E+03  0.00000000000E+00 0. -1.
</event>
<event>
 7    1  0.6443388E-006  0.1968467E+03  0.7818608E-02  0.1173587E+00
          2   -1    0    0  502    0  0.00000000000E+00  0.00000000000E+00  0.67002346909E+03  0.67002346909E+03  0.00000000000E+00 0. -1.
          1   -1    0    0  501    0 -0.00000000000E+00 -0.00000000000E+00 -0.51133494876E+03  0.51133494876E+03  0.00000000000E+00 0. -1.
         25    2    1    2    0    0 -0.21259157286E+03 -0.26329847378E+03  0.17607113958E+03  0.40143072593E+03  0.12499727350E+03 0.  0.
          2    1    1    2  501    0  0.12873831778E+03  0.13404374503E+03 -0.35951027809E+03  0.40470843838E+03  0.00000000000E+00 0. -1.
          1    1    1    2  502    0  0.83853255081E+02  0.12925472875E+03  0.34212765884E+03  0.37521925355E+03  0.00000000000E+00 0. -1.
         22    1    3    3    0    0 -0.77369107920E+02 -0.68116505367E+02 -0.44134386161E+01  0.10317613873E+03  0.00000000000E+00 0. -1.
         22    1    3    3    0    0 -0.13522246494E+03 -0.19518196841E+03  0.18048457819E+03  0.29825458720E+03  0.00000000000E+00 0. -1.
</event>
<event>
 7    1  0.6443388E-006  0.1034436E+03  0.7818608E-02  0.1459720E+00
          2   -1    0    0  502    0  0.00000000000E+00  0.00000000000E+00  0.47595649580E+03  0.47595649580E+03  0.00000000000E+00 0. -1.
          1   -1    0    0  501    0 -0.00000000000E+00 -0.00000000000E+00 -0.58112327259E+03  0.58112327259E+03  0.00000000000E+00 0. -1.
         25    2    1    2    0    0 -0.11382008933E+03 -0.23935323654E+02 -0.33578276328E+03  0.37670089914E+03  0.12500236334E+03 0.  0.
          2    1    1    2  501    0  0.10685292262E+02  0.18940630074E+02 -0.21848299026E+03  0.21956261059E+03  0.00000000000E+00 0. -1.
          1    1    1    2  502    0  0.10313479707E+03  0.49946935804E+01  0.44909897674E+03  0.46081625866E+03  0.00000000000E+00 0. -1.
         22    1    3    3    0    0 -0.10013894743E+03 -0.69423921508E+02 -0.26201072162E+03  0.28895866125E+03  0.00000000000E+00 0.  1.
         22    1    3    3    0    0 -0.13681141905E+02  0.45488597853E+02 -0.73772041665E+02  0.87742237890E+02  0.00000000000E+00 0.  1.
</event>
<event>
 7    1  0.6443388E-006  0.1045178E+03  0.7818608E-02  0.1345681E+00
          2   -1    0    0  502    0  0.00000000000E+00  0.00000000000E+00  0.19223403950E+04  0.19223403950E+04  0.00000000000E+00 0. -1.
          1   -1    0    0  501    0 -0.00000000000E+00 -0.00000000000E+00 -0.47493369269E+02  0.47493369269E+02  0.00000000000E+00 0. -1.
         25    2    1    2    0    0  0.21662759107E+01  0.10357694943E+03  0.14162468575E+03  0.21544255826E+03  0.12500026837E+03 0.  0.
          2    1    1    2  501    0 -0.55049527805E+02 -0.10025413281E+03  0.31402597675E+03  0.33420600792E+03  0.00000000000E+00 0. -1.
          1    1    1    2  502    0  0.52883251894E+02 -0.33228166173E+01  0.14191963632E+04  0.14201851981E+04  0.00000000000E+00 0. -1.
         22    1    3    3    0    0  0.50933303265E+02  0.32914781320E+02  0.15026579688E+02  0.62477054251E+02  0.00000000000E+00 0. -1.
         22    1    3    3    0    0 -0.48767027354E+02  0.70662168112E+02  0.12659810606E+03  0.15296550401E+03  0.00000000000E+00 0. -1.
</event>
<event>
 7    1  0.6443388E-006  0.3846118E+02  0.7818608E-02  0.1597352E+00
          2   -1    0    0  502    0  0.00000000000E+00  0.00000000000E+00  0.14963871506E+04  0.14963871506E+04  0.00000000000E+00 0. -1.
          1   -1    0    0  501    0 -0.00000000000E+00 -0.00000000000E+00 -0.29765510327E+02  0.29765510327E+02  0.00000000000E+00 0. -1.
         25    2    1    2    0    0  0.29741766101E+02 -0.50148321784E+02  0.11842196125E+04  0.11922246664E+04  0.12499655066E+03 0.  0.
          2    1    1    2  501    0 -0.27311571689E+02  0.26769754903E+02 -0.10836592190E+02  0.39748879933E+02  0.00000000000E+00 0. -1.
          1    1    1    2  502    0 -0.24301944125E+01  0.23378566880E+02  0.29323861991E+03  0.29417911456E+03  0.00000000000E+00 0. -1.
         22    1    3    3    0    0  0.54529197419E+02 -0.19521869014E+02  0.10667958165E+04  0.10683669083E+04  0.00000000000E+00 0.  1.
         22    1    3    3    0    0 -0.24787431317E+02 -0.30626452769E+02  0.11742379605E+03  0.12385775809E+03  0.00000000000E+00 0.  1.
</event>
<event>
 7    1  0.6443388E-006  0.3585260E+02  0.7818608E-02  0.1618901E+00
          2   -1    0    0  502    0  0.00000000000E+00  0.00000000000E+00  0.25008300589E+03  0.25008300589E+03  0.00000000000E+00 0. -1.
          1   -1    0    0  501    0 -0.00000000000E+00 -0.00000000000E+00 -0.70469416446E+02  0.70469416446E+02  0.00000000000E+00 0. -1.
         25    2    1    2    0    0 -0.13028842902E+02 -0.12468565620E+02  0.83451701709E+02  0.15137386395E+03  0.12499857716E+03 0.  0.
          2    1    1    2  501    0 -0.22177986488E+02 -0.13423466130E+00 -0.30160743852E+02  0.37437301897E+02  0.00000000000E+00 0. -1.
          1    1    1    2  502    0  0.35206829390E+02  0.12602800281E+02  0.12632263159E+03  0.13174125649E+03  0.00000000000E+00 0. -1.
         22    1    3    3    0    0 -0.61654674792E+02 -0.65485893527E+01  0.95807633782E+01  0.62737341139E+02  0.00000000000E+00 0.  1.
         22    1    3    3    0    0  0.48625831890E+02 -0.59199762670E+01  0.73870938331E+02  0.88636522810E+02  0.00000000000E+00 0.  1.
</event>
<event>
 7    1  0.6443388E-006  0.1244782E+03  0.7818608E-02  0.1239152E+00
          2   -1    0    0  502    0  0.00000000000E+00  0.00000000000E+00  0.13095191741E+04  0.13095191741E+04  0.00000000000E+00 0. -1.
          1   -1    0    0  501    0 -0.00000000000E+00 -0.00000000000E+00 -0.41799805661E+03  0.41799805661E+03  0.00000000000E+00 0. -1.
         25    2    1    2    0    0  0.71967303361E+02 -0.22758571798E+03  0.33853207837E+03  0.43267082136E+03  0.12500207911E+03 0.  0.
          2    1    1    2  501    0 -0.17221721358E+02  0.12034935647E+03 -0.35689332391E+03  0.37703235927E+03  0.00000000000E+00 0. -1.
          1    1    1    2  502    0 -0.54745582003E+02  0.10723636151E+03  0.90988236298E+03  0.91781405003E+03  0.00000000000E+00 0. -1.
         22    1    3    3    0    0 -0.62872579132E+00 -0.17579288998E+03  0.18560730199E+03  0.25564351354E+03  0.00000000000E+00 0. -1.
         22    1    3    3    0    0  0.72596029152E+02 -0.51792828006E+02  0.15292477638E+03  0.17702730781E+03  0.00000000000E+00 0. -1.
</event>
<event>
 7    1  0.6443388E-006  0.5985227E+02  0.7818608E-02  0.1546681E+00
          2   -1    0    0  502    0  0.00000000000E+00  0.00000000000E+00  0.27011494788E+03  0.27011494788E+03  0.00000000000E+00 0. -1.
          1   -1    0    0  501    0 -0.00000000000E+00 -0.00000000000E+00 -0.27295052376E+03  0.27295052376E+03  0.00000000000E+00 0. -1.
         25    2    1    2    0    0  0.52638699310E+02  0.55844292962E+02  0.43690220759E+02  0.15304594297E+03  0.12499923019E+03 0.  0.
          2    1    1    2  501    0 -0.47089542102E+02 -0.35879341258E+02 -0.21360662658E+03  0.22165861820E+03  0.00000000000E+00 0. -1.
          1    1    1    2  502    0 -0.55491572080E+01 -0.19964951703E+02  0.16708082994E+03  0.16836091047E+03  0.00000000000E+00 0. -1.
         22    1    3    3    0    0  0.89879105250E+02  0.39303436355E+02  0.72234506212E+01  0.98362553386E+02  0.00000000000E+00 0. -1.
         22    1    3    3    0    0 -0.37240405940E+02  0.16540856607E+02  0.36466770138E+02  0.54683389582E+02  0.00000000000E+00 0. -1.
</event>
<event>
 7    1  0.6443388E-006  0.1230523E+03  0.7818608E-02  0.1243233E+00
          2   -1    0    0  502    0  0.00000000000E+00  0.00000000000E+00  0.18470053247E+03  0.18470053247E+03  0.00000000000E+00 0. -1.
          1   -1    0    0  501    0 -0.00000000000E+00 -0.00000000000E+00 -0.74103270049E+03  0.74103270049E+03  0.00000000000E+00 0. -1.
         25    2    1    2    0    0 -0.36552691459E+02  0.22685342715E+02 -0.33020326003E+02  0.13626204540E+03  0.12500511613E+03 0.  0.
          2    1    1    2  501    0 -0.12085589721E+03  0.23145889497E+02 -0.59712768393E+03  0.60967479118E+03  0.00000000000E+00 0. -1.
          1    1    1    2  502    0  0.15740858867E+03 -0.45831232211E+02  0.73815841905E+02  0.17979639638E+03  0.00000000000E+00 0. -1.
         22    1    3    3    0    0 -0.38564978409E+02 -0.43892277854E+02  0.65387343322E+01  0.58792386086E+02  0.00000000000E+00 0. -1.
         22    1    3    3    0    0  0.20122869500E+01  0.66577620569E+02 -0.39559060335E+02  0.77469659312E+02  0.00000000000E+00 0. -1.
</event>
<event>
 7    1  0.6443388E-006  0.1236712E+03  0.7818608E-02  0.1296588E+00
          2   -1    0    0  502    0  0.00000000000E+00  0.00000000000E+00  0.12589922629E+04  0.12589922629E+04  0.00000000000E+00 0. -1.
          1   -1    0    0  501    0 -0.00000000000E+00 -0.00000000000E+00 -0.32605064736E+03  0.32605064736E+03  0.00000000000E+00 0. -1.
         25    2    1    2    0    0  0.39783469144E+02 -0.44635121768E+02  0.32645696510E+03  0.35464700405E+03  0.12500131563E+03 0.  0.
          2    1    1    2  501    0 -0.10352810741E+03  0.72052989783E+02 -0.29782188747E+03  0.32343094938E+03  0.00000000000E+00 0. -1.
          1    1    1    2  502    0  0.63744638266E+02 -0.27417868015E+02  0.90430653789E+03  0.90696495680E+03  0.00000000000E+00 0. -1.
         22    1    3    3    0    0 -0.23227011196E+01  0.31622304284E+02  0.19089161323E+03  0.19350703623E+03  0.00000000000E+00 0.  1.
         22    1    3    3    0    0  0.42106170263E+02 -0.76257426052E+02  0.13556535187E+03  0.16113996782E+03  0.00000000000E+00 0.  1.
</event>
<event>
 7    1  0.6909228E-006  0.6872327E+02  0.7818608E-02  0.1478939E+00
          2   -1    0    0  502    0  0.00000000000E+00  0.00000000000E+00  0.86578721509E+03  0.86578721509E+03  0.00000000000E+00 0. -1.
          1   -1    0    0  501    0 -0.00000000000E+00 -0.00000000000E+00 -0.19688969374E+04  0.19688969374E+04  0.00000000000E+00 0. -1.
         25    2    1    2    0    0  0.15661133639E+02  0.45476317059E+02 -0.21282147393E+03  0.25145828792E+03  0.12499969712E+03 0.  0.
          2    1    1    2  501    0  0.27263211223E+02  0.83735388893E+01 -0.17352390675E+04  0.17354734283E+04  0.00000000000E+00 0. -1.
          1    1    1    2  502    0 -0.42924344862E+02 -0.53849855948E+02  0.84495081916E+03  0.84775243625E+03  0.00000000000E+00 0. -1.
         22    1    3    3    0    0 -0.37341640335E+02  0.37639578994E+02 -0.18217523101E+03  0.18973389471E+03  0.00000000000E+00 0. -1.
         22    1    3    3    0    0  0.53002773974E+02  0.78367380652E+01 -0.30646242921E+02  0.61724393214E+02  0.00000000000E+00 0. -1.
</event>
<event>
 7    1  0.6443388E-006  0.1385583E+03  0.7818608E-02  0.1364836E+00
          2   -1    0    0  502    0  0.00000000000E+00  0.00000000000E+00  0.14168200717E+04  0.14168200717E+04  0.00000000000E+00 0. -1.
          1   -1    0    0  501    0 -0.00000000000E+00 -0.00000000000E+00 -0.69249633462E+03  0.69249633462E+03  0.00000000000E+00 0. -1.
         25    2    1    2    0    0 -0.10391883492E+03  0.13102305379E+03 -0.30146595390E+02  0.21095057994E+03  0.12500066035E+03 0.  0.
          2    1    1    2  501    0  0.93740640788E+02 -0.98595526767E+02 -0.56363552434E+03  0.57982186051E+03  0.00000000000E+00 0. -1.
          1    1    1    2  502    0  0.10178194132E+02 -0.32427527025E+02  0.13181058568E+04  0.13185439659E+04  0.00000000000E+00 0. -1.
         22    1    3    3    0    0 -0.11232450413E+03  0.13801978577E+03 -0.52949412367E+02  0.18566070064E+03  0.00000000000E+00 0.  1.
         22    1    3    3    0    0  0.84056692055E+01 -0.69967319788E+01  0.22802816977E+02  0.25289879305E+02  0.00000000000E+00 0.  1.
</event>
<event>
 7    1  0.6443388E-006  0.2500183E+03  0.7818608E-02  0.1142947E+00
          2   -1    0    0  502    0  0.00000000000E+00  0.00000000000E+00  0.89165164691E+03  0.89165164691E+03  0.00000000000E+00 0. -1.
          1   -1    0    0  501    0 -0.00000000000E+00 -0.00000000000E+00 -0.27295029781E+03  0.27295029781E+03  0.00000000000E+00 0. -1.
         25    2    1    2    0    0  0.19382232193E+02  0.54315975086E+02  0.58644380748E+02  0.14962996083E+03  0.12499626279E+03 0.  0.
          2    1    1    2  501    0 -0.24027164464E+03  0.69128164020E+02 -0.12870297584E+03  0.28120032409E+03  0.00000000000E+00 0. -1.
          1    1    1    2  502    0  0.22088941244E+03 -0.12344413911E+03  0.68875994419E+03  0.73377165981E+03  0.00000000000E+00 0. -1.
         22    1    3    3    0    0 -0.20558775401E+02  0.92014655221E+01  0.81977423334E+02  0.85015458302E+02  0.00000000000E+00 0.  1.
         22    1    3    3    0    0  0.39941007593E+02  0.45114509563E+02 -0.23333042586E+02  0.64614502529E+02  0.00000000000E+00 0.  1.
</event>
<event>
 7    1  0.6443388E-006  0.2769863E+02  0.7818608E-02  0.1635966E+00
          2   -1    0    0  502    0  0.00000000000E+00  0.00000000000E+00  0.10545764872E+04  0.10545764872E+04  0.00000000000E+00 0. -1.
          1   -1    0    0  501    0 -0.00000000000E+00 -0.00000000000E+00 -0.90405407966E+03  0.90405407966E+03  0.00000000000E+00 0. -1.
         25    2    1    2    0    0  0.19875104483E+02  0.75252506630E+01 -0.94035986285E+02  0.15785746028E+03  0.12499824748E+03 0.  0.
          2    1    1    2  501    0 -0.33919442737E+01 -0.27629784374E+02 -0.77769306372E+03  0.77819111510E+03  0.00000000000E+00 0. -1.
          1    1    1    2  502    0 -0.16483160209E+02  0.20104533711E+02  0.10222514575E+04  0.10225819915E+04  0.00000000000E+00 0. -1.
         22    1    3    3    0    0 -0.30502054370E+02  0.20862231167E+02 -0.98841471018E+02  0.10552366750E+03  0.00000000000E+00 0. -1.
         22    1    3    3    0    0  0.50377158853E+02 -0.13336980504E+02  0.48054847333E+01  0.52333792778E+02  0.00000000000E+00 0. -1.
</event>
<event>
 7    1  0.6443388E-006  0.8147656E+02  0.7818608E-02  0.1441218E+00
          2   -1    0    0  502    0  0.00000000000E+00  0.00000000000E+00  0.72832610322E+03  0.72832610322E+03  0.00000000000E+00 0. -1.
          1   -1    0    0  501    0 -0.00000000000E+00 -0.00000000000E+00 -0.22025420133E+03  0.22025420133E+03  0.00000000000E+00 0. -1.
         25    2    1    2    0    0  0.61529600927E+02  0.11900748850E+02 -0.12351066484E+03  0.18656954803E+03  0.12500316920E+03 0.  0.
          2    1    1    2  501    0  0.19223305741E+02 -0.25129829257E+02 -0.58812654414E+02  0.66783022703E+02  0.00000000000E+00 0. -1.
          1    1    1    2  502    0 -0.80752906668E+02  0.13229080407E+02  0.69039522113E+03  0.69522773382E+03  0.00000000000E+00 0. -1.
         22    1    3    3    0    0  0.68366169330E+02 -0.44126003291E+02 -0.57055265749E+02  0.99379779759E+02  0.00000000000E+00 0.  1.
         22    1    3    3    0    0 -0.68365684029E+01  0.56026752140E+02 -0.66455399089E+02  0.87189768270E+02  0.00000000000E+00 0.  1.
</event>
<event>
 7    1  0.6443388E-006  0.7973673E+02  0.7818608E-02  0.1375929E+00
          2   -1    0    0  502    0  0.00000000000E+00  0.00000000000E+00  0.14248438811E+04  0.14248438811E+04  0.00000000000E+00 0. -1.
          1   -1    0    0  501    0 -0.00000000000E+00 -0.00000000000E+00 -0.13925178030E+03  0.13925178030E+03  0.00000000000E+00 0. -1.
         25    2    1    2    0    0 -0.19804093567E+02 -0.38956405469E+02  0.93077984039E+02  0.16185961899E+03  0.12500088599E+03 0.  0.
          2    1    1    2  501    0 -0.53731462362E+02  0.40124349225E+01 -0.96569431851E+02  0.11058401715E+03  0.00000000000E+00 0. -1.
          1    1    1    2  502    0  0.73535555929E+02  0.34943970547E+02  0.12890835486E+04  0.12916520252E+04  0.00000000000E+00 0. -1.
         22    1    3    3    0    0 -0.15469288941E+02 -0.76883241030E+02  0.95541725482E+02  0.12360644384E+03  0.00000000000E+00 0. -1.
         22    1    3    3    0    0 -0.43348046255E+01  0.37926835561E+02 -0.24637414430E+01  0.38253175145E+02  0.00000000000E+00 0. -1.
</event>
<event>
 7    1  0.6443388E-006  0.5848453E+02  0.7818608E-02  0.1466602E+00
          2   -1    0    0  502    0  0.00000000000E+00  0.00000000000E+00  0.20392305972E+04  0.20392305972E+04  0.00000000000E+00 0. -1.
          1   -1    0    0  501    0 -0.00000000000E+00 -0.00000000000E+00 -0.17924715086E+04  0.17924715086E+04  0.00000000000E+00 0. -1.
         25    2    1    2    0    0 -0.24987648551E+02 -0.63071360778E+02 -0.83692807399E+01  0.14247380816E+03  0.12500544796E+03 0.  0.
          2    1    1    2  501    0 -0.11169778230E+02  0.57417525205E+02 -0.17163819238E+04  0.17173783638E+04  0.00000000000E+00 0. -1.
          1    1    1    2  502    0  0.36157426781E+02  0.56538355726E+01  0.19715102932E+04  0.19718499338E+04  0.00000000000E+00 0. -1.
         22    1    3    3    0    0  0.21317581202E+00  0.36385580891E+02 -0.15664398091E+02  0.39614761242E+02  0.00000000000E+00 0.  1.
         22    1    3    3    0    0 -0.25200824363E+02 -0.99456941669E+02  0.72951173509E+01  0.10285904691E+03  0.00000000000E+00 0.  1.
</event>
<event>
 7    1  0.6443388E-006  0.1213472E+03  0.7818608E-02  0.1435301E+00
          2   -1    0    0  502    0  0.00000000000E+00  0.00000000000E+00  0.26536663702E+03  0.26536663702E+03  0.00000000000E+00 0. -1.
          1   -1    0    0  501    0 -0.00000000000E+00 -0.00000000000E+00 -0.56625870791E+03  0.56625870791E+03  0.00000000000E+00 0. -1.
         25    2    1    2    0    0 -0.89925996136E+02  0.47029578658E+02 -0.23243764640E+02  0.16267696027E+03  0.12500021903E+03 0.  0.
          2    1    1    2  501    0  0.10892442120E+03 -0.58526927035E+02 -0.46455356312E+03  0.48072855515E+03  0.00000000000E+00 0. -1.
          1    1    1    2  502    0 -0.18998425062E+02  0.11497348377E+02  0.18690525688E+03  0.18821982952E+03  0.00000000000E+00 0. -1.
         22    1    3    3    0    0 -0.64345796914E+02 -0.25602776768E+02 -0.45084025856E+02  0.82634454957E+02  0.00000000000E+00 0. -1.
         22    1    3    3    0    0 -0.25580199222E+02  0.72632355426E+02  0.21840261216E+02  0.80042505314E+02  0.00000000000E+00 0. -1.
</event>
<event>
 7    1  0.6443388E-006  0.9155533E+02  0.7818608E-02  0.1393534E+00
          2   -1    0    0  502    0  0.00000000000E+00  0.00000000000E+00  0.42149575931E+03  0.42149575931E+03  0.00000000000E+00 0. -1.
          1   -1    0    0  501    0 -0.00000000000E+00 -0.00000000000E+00 -0.32036291787E+03  0.32036291787E+03  0.00000000000E+00 0. -1.
         25    2    1    2    0    0  0.26172534137E+02  0.10710633716E+03  0.51997014158E+02  0.17460248144E+03  0.12500227214E+03 0.  0.
          2    1    1    2  501    0  0.24499668815E+02 -0.32487941536E+02 -0.25078574014E+03  0.25406532147E+03  0.00000000000E+00 0. -1.
          1    1    1    2  502    0 -0.50672202952E+02 -0.74618395628E+02  0.29992156743E+03  0.31319087427E+03  0.00000000000E+00 0. -1.
         22    1    3    3    0    0  0.16670047450E+02  0.37682631418E+02 -0.41022545126E+02  0.58143962723E+02  0.00000000000E+00 0. -1.
         22    1    3    3    0    0  0.95024866875E+01  0.69423705745E+02  0.93019559284E+02  0.11645851872E+03  0.00000000000E+00 0. -1.
</event>
<event>
 7    1  0.6443388E-006  0.8916089E+02  0.7818608E-02  0.1351001E+00
          2   -1    0    0  502    0  0.00000000000E+00  0.00000000000E+00  0.11767731541E+04  0.11767731541E+04  0.00000000000E+00 0. -1.
          1   -1    0    0  501    0 -0.00000000000E+00 -0.00000000000E+00 -0.32106258165E+03  0.32106258165E+03  0.00000000000E+00 0. -1.
         25    2    1    2    0    0  0.26722283840E+02 -0.60985763994E+02  0.23929642215E+03  0.27806673387E+03  0.12499994788E+03 0.  0.
          2    1    1    2  501    0  0.27096805630E+02  0.86005968917E+02 -0.29395108953E+03  0.30747114759E+03  0.00000000000E+00 0. -1.
          1    1    1    2  502    0 -0.53819089470E+02 -0.25020204923E+02  0.91036523987E+03  0.91229785432E+03  0.00000000000E+00 0. -1.
         22    1    3    3    0    0  0.28975950452E+01 -0.47667799224E+02  0.12137725951E+02  0.49274126387E+02  0.00000000000E+00 0. -1.
         22    1    3    3    0    0  0.23824688795E+02 -0.13317964770E+02  0.22715869620E+03  0.22879260748E+03  0.00000000000E+00 0. -1.
</event>
<event>
 7    1  0.6443388E-006  0.5299673E+02  0.7818608E-02  0.1479638E+00
          2   -1    0    0  502    0  0.00000000000E+00  0.00000000000E+00  0.14860607965E+04  0.14860607965E+04  0.00000000000E+00 0. -1.
          1   -1    0    0  501    0 -0.00000000000E+00 -0.00000000000E+00 -0.25742138178E+03  0.25742138178E+03  0.00000000000E+00 0. -1.
         25    2    1    2    0    0 -0.75342359811E+02  0.43983855548E+02  0.12291178867E+04  0.12385323982E+04  0.12498268365E+03 0.  0.
          2    1    1    2  501    0  0.39637872697E+02 -0.35067086455E+02 -0.24857107781E+03  0.25414256281E+03  0.00000000000E+00 0. -1.
          1    1    1    2  502    0  0.35704487114E+02 -0.89167690933E+01  0.24809260590E+03  0.25080721734E+03  0.00000000000E+00 0. -1.
         22    1    3    3    0    0 -0.79505538739E+02  0.49769993534E+02  0.12276832063E+04  0.12312612387E+04  0.00000000000E+00 0. -1.
         22    1    3    3    0    0  0.41631789279E+01 -0.57861379857E+01  0.14346803570E+01  0.72711594194E+01  0.00000000000E+00 0. -1.
</event>
<event>
 7    1  0.6443388E-006  0.2256574E+03  0.7818608E-02  0.1364334E+00
          2   -1    0    0  502    0  0.00000000000E+00  0.00000000000E+00  0.14361854921E+04  0.14361854921E+04  0.00000000000E+00 0. -1.
          1   -1    0    0  501    0 -0.00000000000E+00 -0.00000000000E+00 -0.60286502059E+03  0.60286502059E+03  0.00000000000E+00 0. -1.
         25    2    1    2    0    0 -0.69720906865E+02 -0.22508070413E+03  0.13424569053E+03  0.29861353559E+03  0.12500323990E+03 0.  0.
          2    1    1    2  501    0  0.20028133583E+02  0.61684389167E+01 -0.51013585564E+03  0.51056612401E+03  0.00000000000E+00 0. -1.
          1    1    1    2  502    0  0.49692773282E+02  0.21891226521E+03  0.12092106366E+04  0.12298708531E+04  0.00000000000E+00 0. -1.
         22    1    3    3    0    0 -0.76806676013E+02 -0.50402896031E+02  0.48906419037E+02  0.10407475790E+03  0.00000000000E+00 0. -1.
         22    1    3    3    0    0  0.70857691476E+01 -0.17467780810E+03  0.85339271490E+02  0.19453877769E+03  0.00000000000E+00 0. -1.
</event>
<event>
 7    1  0.6443388E-006  0.5447352E+02  0.7818608E-02  0.1478431E+00
          2   -1    0    0  502    0  0.00000000000E+00  0.00000000000E+00  0.16902592725E+03  0.16902592725E+03  0.00000000000E+00 0. -1.
          1   -1    0    0  501    0 -0.00000000000E+00 -0.00000000000E+00 -0.29001241309E+03  0.29001241309E+03  0.00000000000E+00 0. -1.
         25    2    1    2    0    0  0.35943018510E+02 -0.77539333089E+02  0.24004248063E+02  0.15331314893E+03  0.12499787580E+03 0.  0.
          2    1    1    2  501    0 -0.99179472587E+01  0.52506226955E+02 -0.21790394895E+03  0.22435997976E+03  0.00000000000E+00 0. -1.
          1    1    1    2  502    0 -0.26025071251E+02  0.25033106134E+02  0.72913215051E+02  0.81365211641E+02  0.00000000000E+00 0. -1.
         22    1    3    3    0    0 -0.21333949361E+01  0.33728670824E+02  0.42333264801E+01  0.34060177079E+02  0.00000000000E+00 0.  1.
         22    1    3    3    0    0  0.38076413446E+02 -0.11126800391E+03  0.19770921583E+02  0.11925297185E+03  0.00000000000E+00 0.  1.
</event>
<event>
 7    1  0.6443388E-006  0.5146678E+02  0.7818608E-02  0.1538877E+00
          2   -1    0    0  502    0  0.00000000000E+00  0.00000000000E+00  0.24979930325E+02  0.24979930325E+02  0.00000000000E+00 0. -1.
          1   -1    0    0  501    0 -0.00000000000E+00 -0.00000000000E+00 -0.21559427357E+04  0.21559427357E+04  0.00000000000E+00 0. -1.
         25    2    1    2    0    0  0.29744788086E+02 -0.14026878286E+02 -0.13954459979E+04  0.14014193681E+04  0.12500082541E+03 0.  0.
          2    1    1    2  501    0  0.22163705349E+02  0.12301783425E+02 -0.72631510156E+03  0.72675731195E+03  0.00000000000E+00 0. -1.
          1    1    1    2  502    0 -0.51908493434E+02  0.17250948609E+01 -0.92017058239E+01  0.52745985942E+02  0.00000000000E+00 0. -1.
         22    1    3    3    0    0  0.31752229873E+02 -0.27100022249E+02 -0.14464142918E+03  0.15054487153E+03  0.00000000000E+00 0. -1.
         22    1    3    3    0    0 -0.20074417872E+01  0.13073143964E+02 -0.12508045688E+04  0.12508744966E+04  0.00000000000E+00 0. -1.
</event>
<event>
 7    1  0.6443388E-006  0.1766915E+03  0.7818608E-02  0.1338122E+00
          2   -1    0    0  502    0  0.00000000000E+00  0.00000000000E+00  0.13723453138E+04  0.13723453138E+04  0.00000000000E+00 0. -1.
          1   -1    0    0  501    0 -0.00000000000E+00 -0.00000000000E+00 -0.14547604371E+04  0.14547604371E+04  0.00000000000E+00 0. -1.
         25    2    1    2    0    0  0.14008403619E+03  0.14862082588E+03  0.91473607851E+01  0.23963071437E+03  0.12501007151E+03 0.  0.
          2    1    1    2  501    0 -0.13135411530E+03 -0.11632161248E+03 -0.13335470367E+04  0.13450398954E+04  0.00000000000E+00 0. -1.
          1    1    1    2  502    0 -0.87299208912E+01 -0.32299213395E+02  0.12419845527E+04  0.12424351411E+04  0.00000000000E+00 0. -1.
         22    1    3    3    0    0  0.81520105390E+02  0.14951427673E+03 -0.24555781037E+02  0.17205531933E+03  0.00000000000E+00 0.  1.
         22    1    3    3    0    0  0.58563930804E+02 -0.89345084914E+00  0.33703141822E+02  0.67575395036E+02  0.00000000000E+00 0.  1.
</event>
<event>
 7    1  0.6443388E-006  0.2398255E+03  0.7818608E-02  0.1232817E+00
          2   -1    0    0  502    0  0.00000000000E+00  0.00000000000E+00  0.15251421998E+04  0.15251421998E+04  0.00000000000E+00 0. -1.
          1   -1    0    0  501    0 -0.00000000000E+00 -0.00000000000E+00 -0.51877032550E+03  0.51877032550E+03  0.00000000000E+00 0. -1.
         25    2    1    2    0    0  0.24991384870E+03 -0.92263579822E+02  0.15023277522E+03  0.33040185223E+03  0.12500398902E+03 0.  0.
          2    1    1    2  501    0 -0.19667581556E+03  0.13240291517E+03 -0.39494854410E+03  0.46064765370E+03  0.00000000000E+00 0. -1.
          1    1    1    2  502    0 -0.53238033141E+02 -0.40139335346E+02  0.12510876432E+04  0.12528630194E+04  0.00000000000E+00 0. -1.
         22    1    3    3    0    0  0.11107889485E+03 -0.19311390118E+02 -0.68574885653E+00  0.11274715482E+03  0.00000000000E+00 0.  1.
         22    1    3    3    0    0  0.13883495385E+03 -0.72952189704E+02  0.15091852408E+03  0.21765469741E+03  0.00000000000E+00 0.  1.
</event>
<event>
 7    1  0.6443388E-006  0.1072258E+03  0.7818608E-02  0.1464275E+00
          2   -1    0    0  502    0  0.00000000000E+00  0.00000000000E+00  0.36177457005E+03  0.36177457005E+03  0.00000000000E+00 0. -1.
          1   -1    0    0  501    0 -0.00000000000E+00 -0.00000000000E+00 -0.34126618231E+03  0.34126618231E+03  0.00000000000E+00 0. -1.
         25    2    1    2    0    0  0.29219983630E+02  0.10505870647E+03 -0.62680828596E+02  0.17732259197E+03  0.12499310422E+03 0.  0.
          2    1    1    2  501    0 -0.89948987638E+01 -0.10678642121E+03 -0.20791457977E+03  0.23390750403E+03  0.00000000000E+00 0. -1.
          1    1    1    2  502    0 -0.20225084866E+02  0.17277147413E+01  0.29110379611E+03  0.29181065636E+03  0.00000000000E+00 0. -1.
         22    1    3    3    0    0 -0.76582242697E+01 -0.21029584926E+02 -0.37334958707E+02  0.43529196900E+02  0.00000000000E+00 0. -1.
         22    1    3    3    0    0  0.36878207900E+02  0.12608829140E+03 -0.25345869890E+02  0.13379339507E+03  0.00000000000E+00 0. -1.
</event>
<event>
 7    1  0.6443388E-006  0.9147856E+02  0.7818608E-02  0.1416251E+00
          2   -1    0    0  502    0  0.00000000000E+00  0.00000000000E+00  0.28084250734E+03  0.28084250734E+03  0.00000000000E+00 0. -1.
          1   -1    0    0  501    0 -0.00000000000E+00 -0.00000000000E+00 -0.14562159542E+04  0.14562159542E+04  0.00000000000E+00 0. -1.
         25    2    1    2    0    0 -0.36597774080E+02  0.49849536486E+02 -0.30264529609E+03  0.33323215750E+03  0.12500048877E+03 0.  0.
          2    1    1    2  501    0  0.50293074421E+02 -0.81038927172E+02 -0.11351766982E+04  0.11391763855E+04  0.00000000000E+00 0. -1.
          1    1    1    2  502    0 -0.13695300341E+02  0.31189390686E+02  0.26244854745E+03  0.26464991857E+03  0.00000000000E+00 0. -1.
         22    1    3    3    0    0 -0.57520631121E+02  0.80160492993E+02 -0.25187496783E+03  0.27050938442E+03  0.00000000000E+00 0.  1.
         22    1    3    3    0    0  0.20922857041E+02 -0.30310956507E+02 -0.50770328255E+02  0.62722773076E+02  0.00000000000E+00 0.  1.
</event>
<event>
 7    1  0.6443388E-006  0.1279522E+03  0.7818608E-02  0.1347632E+00
          2   -1    0    0  502    0  0.00000000000E+00  0.00000000000E+00  0.14632188819E+04  0.14632188819E+04  0.00000000000E+00 0. -1.
          1   -1    0    0  501    0 -0.00000000000E+00 -0.00000000000E+00 -0.68100493820E+03  0.68100493820E+03  0.00000000000E+00 0. -1.
         25    2    1    2    0    0  0.51997713037E+02  0.83234782187E+02 -0.44934698127E+03  0.47662399638E+03  0.12500373283E+03 0.  0.
          2    1    1    2  501    0 -0.15539989961E+02  0.39626625858E+02 -0.21307786151E+03  0.21728767989E+03  0.00000000000E+00 0. -1.
          1    1    1    2  502    0 -0.36457723076E+02 -0.12286140804E+03  0.14446387864E+04  0.14503121438E+04  0.00000000000E+00 0. -1.
         22    1    3    3    0    0  0.88316125455E+02  0.84816648562E+02 -0.35425144551E+03  0.37481687333E+03  0.00000000000E+00 0. -1.
         22    1    3    3    0    0 -0.36318412418E+02 -0.15818663755E+01 -0.95095535761E+02  0.10180712305E+03  0.00000000000E+00 0. -1.
</event>
<event>
 7    1  0.6443388E-006  0.1125387E+03  0.7818608E-02  0.1380934E+00
          2   -1    0    0  502    0  0.00000000000E+00  0.00000000000E+00  0.79881738741E+03  0.79881738741E+03  0.00000000000E+00 0. -1.
          1   -1    0    0  501    0 -0.00000000000E+00 -0.00000000000E+00 -0.55377027112E+03  0.55377027112E+03  0.00000000000E+00 0. -1.
         25    2    1    2    0    0  0.43029400068E+02 -0.13897022409E+03  0.21855494132E+03  0.29078535935E+03  0.12500244150E+03 0.  0.
          2    1    1    2  501    0 -0.20818248592E+02  0.10982282699E+03 -0.51098971691E+03  0.52307259878E+03  0.00000000000E+00 0. -1.
          1    1    1    2  502    0 -0.22211151476E+02  0.29147397097E+02  0.53748189188E+03  0.53872970041E+03  0.00000000000E+00 0. -1.
         22    1    3    3    0    0  0.21617423099E+01 -0.14431953347E+02 -0.16270592354E+02  0.21856042249E+02  0.00000000000E+00 0. -1.
         22    1    3    3    0    0  0.40867657758E+02 -0.12453827074E+03  0.23482553368E+03  0.26892931710E+03  0.00000000000E+00 0. -1.
</event>
<event>
 7    1  0.6443388E-006  0.1533215E+03  0.7818608E-02  0.1355580E+00
          2   -1    0    0  502    0  0.00000000000E+00  0.00000000000E+00  0.11982008960E+04  0.11982008960E+04  0.00000000000E+00 0. -1.
          1   -1    0    0  501    0 -0.00000000000E+00 -0.00000000000E+00 -0.77986904957E+02  0.77986904957E+02  0.00000000000E+00 0. -1.
         25    2    1    2    0    0  0.13907518117E+03 -0.29058152560E+02  0.89719792616E+03  0.91693784576E+03  0.12499844812E+03 0.  0.
          2    1    1    2  501    0 -0.15470875271E+03 -0.22862452159E+00  0.22894879011E+02  0.15639381675E+03  0.00000000000E+00 0. -1.
          1    1    1    2  502    0  0.15633571540E+02  0.29286777081E+02  0.20012118587E+03  0.20285613844E+03  0.00000000000E+00 0. -1.
         22    1    3    3    0    0  0.40160002048E+02  0.22417581060E+02  0.80908700949E+02  0.93067672122E+02  0.00000000000E+00 0.  1.
         22    1    3    3    0    0  0.98915179119E+02 -0.51475733620E+02  0.81628922521E+03  0.82387017364E+03  0.00000000000E+00 0.  1.
</event>
<event>
 7    1  0.6443388E-006  0.1313870E+03  0.7818608E-02  0.1297731E+00
          2   -1    0    0  502    0  0.00000000000E+00  0.00000000000E+00  0.18411729499E+04  0.18411729499E+04  0.00000000000E+00 0. -1.
          1   -1    0    0  501    0 -0.00000000000E+00 -0.00000000000E+00 -0.12361160404E+03  0.12361160404E+03  0.00000000000E+00 0. -1.
         25    2    1    2    0    0 -0.17902215112E+00  0.12112942947E+03  0.51542315969E+03  0.54402122990E+03  0.12500277717E+03 0.  0.
          2    1    1    2  501    0  0.64644481593E+02 -0.11654769092E+03 -0.67560299395E+02  0.14942110732E+03  0.00000000000E+00 0. -1.
          1    1    1    2  502    0 -0.64465459442E+02 -0.45817385529E+01  0.12696984855E+04  0.12713422167E+04  0.00000000000E+00 0. -1.
         22    1    3    3    0    0 -0.30943893876E+02  0.12721807500E+03  0.31448683047E+03  0.34065221225E+03  0.00000000000E+00 0.  1.
         22    1    3    3    0    0  0.30764871724E+02 -0.60886455274E+01  0.20093632922E+03  0.20336901764E+03  0.00000000000E+00 0.  1.
</event>
<event>
 7    1  0.6443388E-006  0.1016236E+03  0.7818608E-02  0.1462443E+00
          2   -1    0    0  502    0  0.00000000000E+00  0.00000000000E+00  0.11100972694E+04  0.11100972694E+04  0.00000000000E+00 0. -1.
          1   -1    0    0  501    0 -0.00000000000E+00 -0.00000000000E+00 -0.27283339619E+04  0.27283339619E+04  0.00000000000E+00 0. -1.
         25    2    1    2    0    0  0.10181021098E+03  0.96490543904E+01 -0.66643536523E+03  0.68572559527E+03  0.12500029068E+03 0.  0.
          2    1    1    2  501    0 -0.10109252208E+03  0.12042542589E+02 -0.20508836797E+04  0.20534090164E+04  0.00000000000E+00 0. -1.
          1    1    1    2  502    0 -0.71768890187E+00 -0.21691596979E+02  0.10990823525E+04  0.10992966196E+04  0.00000000000E+00 0. -1.
         22    1    3    3    0    0 -0.25441450460E+02  0.21914702801E+02 -0.14780326066E+03  0.15156954002E+03  0.00000000000E+00 0.  1.
         22    1    3    3    0    0  0.12725166144E+03 -0.12265648410E+02 -0.51863210457E+03  0.53415605525E+03  0.00000000000E+00 0.  1.
</event>
<event>
 7    1  0.6443388E-006  0.4771390E+02  0.7818608E-02  0.1568514E+00
          2   -1    0    0  502    0  0.00000000000E+00  0.00000000000E+00  0.14197123931E+03  0.14197123931E+03  0.00000000000E+00 0. -1.
          1   -1    0    0  501    0 -0.00000000000E+00 -0.00000000000E+00 -0.52760849671E+03  0.52760849671E+03  0.00000000000E+00 0. -1.
         25    2    1    2    0    0  0.43238749241E+02  0.54889348126E+02  0.22516259320E+02  0.14496588066E+03  0.12500277856E+03 0.  0.
          2    1    1    2  501    0 -0.27649588426E+02 -0.38493597195E+02 -0.46292965656E+03  0.46534946404E+03  0.00000000000E+00 0. -1.
          1    1    1    2  502    0 -0.15589160814E+02 -0.16395750931E+02  0.54776139835E+02  0.59264391322E+02  0.00000000000E+00 0. -1.
         22    1    3    3    0    0  0.13367128786E+02 -0.33526664388E+02 -0.21253425072E+02  0.41885861986E+02  0.00000000000E+00 0. -1.
         22    1    3    3    0    0  0.29871620454E+02  0.88416012514E+02  0.43769684392E+02  0.10308001867E+03  0.00000000000E+00 0. -1.
</event>
<event>
 7    1  0.6443388E-006  0.1902059E+03  0.7818608E-02  0.1294364E+00
          2   -1    0    0  502    0  0.00000000000E+00  0.00000000000E+00  0.42511663490E+03  0.42511663490E+03  0.00000000000E+00 0. -1.
          1   -1    0    0  501    0 -0.00000000000E+00 -0.00000000000E+00 -0.43313136392E+03  0.43313136392E+03  0.00000000000E+00 0. -1.
         25    2    1    2    0    0 -0.17595229843E+03  0.18818676483E+00  0.11471233154E+03  0.24443960107E+03  0.12503020766E+03 0.  0.
          2    1    1    2  501    0 -0.20643959461E+02 -0.41173579932E+02 -0.32531007306E+03  0.32855453183E+03  0.00000000000E+00 0. -1.
          1    1    1    2  502    0  0.19659625789E+03  0.40985393167E+02  0.20258301250E+03  0.28525386593E+03  0.00000000000E+00 0. -1.
         22    1    3    3    0    0  0.86289406372E+01  0.18617844068E+02  0.39030047587E+02  0.44095661338E+02  0.00000000000E+00 0.  1.
         22    1    3    3    0    0 -0.18458123907E+03 -0.18429657303E+02  0.75682283951E+02  0.20034393974E+03  0.00000000000E+00 0.  1.
</event>
<event>
 7    1  0.6443388E-006  0.1239977E+03  0.7818608E-02  0.1303512E+00
          2   -1    0    0  502    0  0.00000000000E+00  0.00000000000E+00  0.31158290275E+04  0.31158290275E+04  0.00000000000E+00 0. -1.
          1   -1    0    0  501    0 -0.00000000000E+00 -0.00000000000E+00 -0.11216363186E+03  0.11216363186E+03  0.00000000000E+00 0. -1.
         25    2    1    2    0    0  0.97332592941E+02 -0.12119872007E+03  0.19969879214E+03  0.28225454764E+03  0.12500103472E+03 0.  0.
          2    1    1    2  501    0  0.11903497340E+02  0.63829222677E+02 -0.54401851389E+02  0.84707876558E+02  0.00000000000E+00 0. -1.
          1    1    1    2  502    0 -0.10923609028E+03  0.57369497393E+02  0.28583684549E+04  0.28610302352E+04  0.00000000000E+00 0. -1.
         22    1    3    3    0    0  0.93015508573E+02 -0.32034056236E+02  0.15195375282E+03  0.18101935971E+03  0.00000000000E+00 0. -1.
         22    1    3    3    0    0  0.43170843684E+01 -0.89164663834E+02  0.47745039326E+02  0.10123518793E+03  0.00000000000E+00 0. -1.
</event>
<event>
 7    1  0.6443388E-006  0.6603594E+02  0.7818608E-02  0.1453469E+00
          2   -1    0    0  502    0  0.00000000000E+00  0.00000000000E+00  0.25320856090E+04  0.25320856090E+04  0.00000000000E+00 0. -1.
          1   -1    0    0  501    0 -0.00000000000E+00 -0.00000000000E+00 -0.24281346718E+02  0.24281346718E+02  0.00000000000E+00 0. -1.
         25    2    1    2    0    0 -0.29459290614E+00  0.37386795904E+02  0.29867072114E+03  0.32592262099E+03  0.12499398351E+03 0.  0.
          2    1    1    2  501    0 -0.25867765231E+02  0.24540199318E+02  0.21208860237E+02  0.41487087306E+02  0.00000000000E+00 0. -1.
          1    1    1    2  502    0  0.26162358137E+02 -0.61926995222E+02  0.21879246809E+04  0.21889572475E+04  0.00000000000E+00 0. -1.
         22    1    3    3    0    0  0.59217462018E+02  0.36250348402E+02  0.18520515215E+03  0.19779217363E+03  0.00000000000E+00 0. -1.
         22    1    3    3    0    0 -0.59512054924E+02  0.11364475019E+01  0.11346556899E+03  0.12813044736E+03  0.00000000000E+00 0. -1.
</event>
<event>
 7    1  0.6443388E-006  0.3591543E+02  0.7818608E-02  0.1588143E+00
          2   -1    0    0  502    0  0.00000000000E+00  0.00000000000E+00  0.97544016944E+03  0.97544016944E+03  0.00000000000E+00 0. -1.
          1   -1    0    0  501    0 -0.00000000000E+00 -0.00000000000E+00 -0.15626670487E+04  0.15626670487E+04  0.00000000000E+00 0. -1.
         25    2    1    2    0    0 -0.94358208306E+01  0.18006158270E+01 -0.55929767509E+02  0.13727878748E+03  0.12500019866E+03 0.  0.
          2    1    1    2  501    0 -0.26573698857E+02 -0.15411259964E+01 -0.14655950625E+04  0.14658367657E+04  0.00000000000E+00 0. -1.
          1    1    1    2  502    0  0.36009519687E+02 -0.25948983059E+00  0.93429795071E+03  0.93499166496E+03  0.00000000000E+00 0. -1.
         22    1    3    3    0    0 -0.55019496730E+01  0.63194754415E+02 -0.22811313530E+02  0.67410714733E+02  0.00000000000E+00 0. -1.
         22    1    3    3    0    0 -0.39338711576E+01 -0.61394138589E+02 -0.33118453979E+02  0.69868072746E+02  0.00000000000E+00 0. -1.
</event>
<event>
 7    1  0.6443388E-006  0.1006468E+03  0.7818608E-02  0.1447577E+00
          2   -1    0    0  502    0  0.00000000000E+00  0.00000000000E+00  0.48550543784E+02  0.48550543784E+02  0.00000000000E+00 0. -1.
          1   -1    0    0  501    0 -0.00000000000E+00 -0.00000000000E+00 -0.97358078662E+03  0.97358078662E+03  0.00000000000E+00 0. -1.
         25    2    1    2    0    0 -0.71851305899E+02 -0.50893001717E+02 -0.12964414322E+03  0.20045156486E+03  0.12498207151E+03 0.  0.
          2    1    1    2  501    0  0.93768578501E+02  0.40097728463E+02 -0.79013625966E+03  0.79669045618E+03  0.00000000000E+00 0. -1.
          1    1    1    2  502    0 -0.21917272602E+02  0.10795273255E+02 -0.52498399548E+01  0.24989309364E+02  0.00000000000E+00 0. -1.
         22    1    3    3    0    0  0.24273832179E+02 -0.49580043337E+02 -0.61339903981E+02  0.82522623846E+02  0.00000000000E+00 0. -1.
         22    1    3    3    0    0 -0.96125138078E+02 -0.13129583802E+01 -0.68304239241E+02  0.11792894101E+03  0.00000000000E+00 0. -1.
</event>
<event>
 7    1  0.6443388E-006  0.8264849E+02  0.7818608E-02  0.1391206E+00
          2   -1    0    0  502    0  0.00000000000E+00  0.00000000000E+00  0.30385267723E+04  0.30385267723E+04  0.00000000000E+00 0. -1.
          1   -1    0    0  501    0 -0.00000000000E+00 -0.00000000000E+00 -0.10207359585E+02  0.10207359585E+02  0.00000000000E+00 0. -1.
         25    2    1    2    0    0  0.49159467540E+02 -0.15836331253E+02  0.11578159267E+04  0.11656889276E+04  0.12500205318E+03 0.  0.
          2    1    1    2  501    0 -0.76620470008E+02  0.52645061266E+02  0.35890378746E+03  0.37074806480E+03  0.00000000000E+00 0. -1.
          1    1    1    2  502    0  0.27461002468E+02 -0.36808730013E+02  0.15115996986E+04  0.15122971395E+04  0.00000000000E+00 0. -1.
         22    1    3    3    0    0  0.74127495459E+02 -0.31405856208E+02  0.10710105580E+04  0.10740320427E+04  0.00000000000E+00 0.  1.
         22    1    3    3    0    0 -0.24968027919E+02  0.15569524956E+02  0.86805368722E+02  0.91656884982E+02  0.00000000000E+00 0.  1.
</event>
<event>
 7    1  0.6443388E-006  0.2011665E+03  0.7818608E-02  0.1342127E+00
          2   -1    0    0  502    0  0.00000000000E+00  0.00000000000E+00  0.20594262378E+04  0.20594262378E+04  0.00000000000E+00 0. -1.
          1   -1    0    0  501    0 -0.00000000000E+00 -0.00000000000E+00 -0.19759969684E+03  0.19759969684E+03  0.00000000000E+00 0. -1.
         25    2    1    2    0    0 -0.88796948341E+02  0.17790074985E+03  0.51125764635E+03  0.56261893578E+03  0.12498844394E+03 0.  0.
          2    1    1    2  501    0  0.63758951706E+02 -0.19127385588E+03 -0.11262060733E+03  0.23094218554E+03  0.00000000000E+00 0. -1.
          1    1    1    2  502    0  0.25037996636E+02  0.13373106027E+02  0.14631895020E+04  0.14634648134E+04  0.00000000000E+00 0. -1.
         22    1    3    3    0    0 -0.68274979207E+02  0.19575149389E+03  0.44173555283E+03  0.48796559180E+03  0.00000000000E+00 0. -1.
         22    1    3    3    0    0 -0.20521969134E+02 -0.17850744046E+02  0.69522093518E+02  0.74653343979E+02  0.00000000000E+00 0. -1.
</event>
<event>
 7    1  0.9083754E-006  0.8064167E+02  0.7818608E-02  0.1388535E+00
          2   -1    0    0  502    0  0.00000000000E+00  0.00000000000E+00  0.11433759278E+04  0.11433759278E+04  0.00000000000E+00 0. -1.
          1   -1    0    0  501    0 -0.00000000000E+00 -0.00000000000E+00 -0.88640714901E+03  0.88640714901E+03  0.00000000000E+00 0. -1.
         25    2    1    2    0    0  0.84084108544E+02 -0.46363172200E+02 -0.34781380986E+03  0.38186361053E+03  0.12500275866E+03 0.  0.
          2    1    1    2  501    0 -0.42411556062E+02 -0.22664656621E+02 -0.51901250270E+03  0.52123545994E+03  0.00000000000E+00 0. -1.
          1    1    1    2  502    0 -0.41672552481E+02  0.69027828820E+02  0.11237950913E+04  0.11266840063E+04  0.00000000000E+00 0. -1.
         22    1    3    3    0    0  0.10573975446E+03  0.78257794396E+00 -0.23328297784E+03  0.25612976369E+03  0.00000000000E+00 0. -1.
         22    1    3    3    0    0 -0.21655645913E+02 -0.47145750144E+02 -0.11453083202E+03  0.12573384684E+03  0.00000000000E+00 0. -1.
</event>
<event>
 7    1  0.6443388E-006  0.1023666E+03  0.7818608E-02  0.1290310E+00
          2   -1    0    0  502    0  0.00000000000E+00  0.00000000000E+00  0.24961487369E+04  0.24961487369E+04  0.00000000000E+00 0. -1.
          1   -1    0    0  501    0 -0.00000000000E+00 -0.00000000000E+00 -0.17066254968E+03  0.17066254968E+03  0.00000000000E+00 0. -1.
         25    2    1    2    0    0 -0.11048950260E+03 -0.13814915459E+03  0.52357389269E+03  0.56661223074E+03  0.12500671909E+03 0.  0.
          2    1    1    2  501    0  0.27968656892E+02  0.84365081312E+02 -0.13453769494E+03  0.16124547768E+03  0.00000000000E+00 0. -1.
          1    1    1    2  502    0  0.82520845709E+02  0.53784073283E+02  0.19364499895E+04  0.19389535782E+04  0.00000000000E+00 0. -1.
         22    1    3    3    0    0 -0.62022362241E+02  0.45607619020E+01  0.20424226552E+03  0.21350053159E+03  0.00000000000E+00 0.  1.
         22    1    3    3    0    0 -0.48467140360E+02 -0.14270991650E+03  0.31933162717E+03  0.35311169914E+03  0.00000000000E+00 0.  1.
</event>
<event>
 7    1  0.6443388E-006  0.1959859E+03  0.7818608E-02  0.1230850E+00
          2   -1    0    0  502    0  0.00000000000E+00  0.00000000000E+00  0.10209327542E+04  0.10209327542E+04  0.00000000000E+00 0. -1.
          1   -1    0    0  501    0 -0.00000000000E+00 -0.00000000000E+00 -0.86282826293E+03  0.86282826293E+03  0.00000000000E+00 0. -1.
         25    2    1    2    0    0 -0.88277543951E+02  0.24912266583E+03  0.31222787757E+03  0.42774497454E+03  0.12499795322E+03 0.  0.
          2    1    1    2  501    0  0.28309928539E+02 -0.78295996862E+02 -0.79025190725E+03  0.79462556723E+03  0.00000000000E+00 0. -1.
          1    1    1    2  502    0  0.59967615412E+02 -0.17082666897E+03  0.63612852097E+03  0.66139047538E+03  0.00000000000E+00 0. -1.
         22    1    3    3    0    0 -0.36455361649E+02  0.68268104931E+02  0.19561164798E+02  0.79825852404E+02  0.00000000000E+00 0.  1.
         22    1    3    3    0    0 -0.51822182302E+02  0.18085456090E+03  0.29266671278E+03  0.34791912213E+03  0.00000000000E+00 0.  1.
</event>
<event>
 7    1  0.6443388E-006  0.1324259E+03  0.7818608E-02  0.1300381E+00
          2   -1    0    0  502    0  0.00000000000E+00  0.00000000000E+00  0.37472602672E+03  0.37472602672E+03  0.00000000000E+00 0. -1.
          1   -1    0    0  501    0 -0.00000000000E+00 -0.00000000000E+00 -0.10641097167E+04  0.10641097167E+04  0.00000000000E+00 0. -1.
         25    2    1    2    0    0  0.84882066174E+02  0.56293557716E+02 -0.28905094759E+03  0.33098242239E+03  0.12499993532E+03 0.  0.
          2    1    1    2  501    0 -0.14146123889E+03 -0.29572326653E+02 -0.74432055941E+03  0.75822087796E+03  0.00000000000E+00 0. -1.
          1    1    1    2  502    0  0.56579172717E+02 -0.26721231064E+02  0.34398781703E+03  0.34963244306E+03  0.00000000000E+00 0. -1.
         22    1    3    3    0    0 -0.19920726600E+02  0.14321690385E+01 -0.13643523228E+03  0.13788930004E+03  0.00000000000E+00 0.  1.
         22    1    3    3    0    0  0.10480279277E+03  0.54861388678E+02 -0.15261571531E+03  0.19309312236E+03  0.00000000000E+00 0.  1.
</event>
<event>
 7    1  0.6443388E-006  0.9779121E+02  0.7818608E-02  0.1366055E+00
          2   -1    0    0  502    0  0.00000000000E+00  0.00000000000E+00  0.17886838287E+04  0.17886838287E+04  0.00000000000E+00 0. -1.
          1   -1    0    0  501    0 -0.00000000000E+00 -0.00000000000E+00 -0.40726241943E+03  0.40726241943E+03  0.00000000000E+00 0. -1.
         25    2    1    2    0    0  0.91541633847E+02  0.71812324996E+02  0.19586255698E+01  0.17078021832E+03  0.12500066403E+03 0.  0.
          2    1    1    2  501    0 -0.93908796670E+02 -0.24201730843E+02 -0.31522646539E+03  0.32980647409E+03  0.00000000000E+00 0. -1.
          1    1    1    2  502    0  0.23671628220E+01 -0.47610594153E+02  0.16946892491E+04  0.16953595557E+04  0.00000000000E+00 0. -1.
         22    1    3    3    0    0  0.28003423489E+02  0.76546667485E+02 -0.43615752554E+02  0.92444133946E+02  0.00000000000E+00 0.  1.
         22    1    3    3    0    0  0.63538210359E+02 -0.47343424887E+01  0.45574378123E+02  0.78336084378E+02  0.00000000000E+00 0.  1.
</event>
<event>
 7    1  0.6443388E-006  0.4728952E+02  0.7818608E-02  0.1567977E+00
          2   -1    0    0  502    0  0.00000000000E+00  0.00000000000E+00  0.38049283980E+02  0.38049283980E+02  0.00000000000E+00 0. -1.
          1   -1    0    0  501    0 -0.00000000000E+00 -0.00000000000E+00 -0.58151230729E+03  0.58151230729E+03  0.00000000000E+00 0. -1.
         25    2    1    2    0    0 -0.23016439278E+02 -0.24583398834E+02 -0.13594535776E+03  0.18772486205E+03  0.12500153423E+03 0.  0.
          2    1    1    2  501    0  0.44854386709E+02  0.17677297884E+02 -0.40603236764E+03  0.40888468599E+03  0.00000000000E+00 0. -1.
          1    1    1    2  502    0 -0.21837947431E+02  0.69061009503E+01 -0.14852979102E+01  0.22952043226E+02  0.00000000000E+00 0. -1.
         22    1    3    3    0    0 -0.22106836534E+01 -0.24435944314E+01  0.24351894961E+02  0.24573828846E+02  0.00000000000E+00 0. -1.
         22    1    3    3    0    0 -0.20805755625E+02 -0.22139804403E+02 -0.16029725272E+03  0.16315103321E+03  0.00000000000E+00 0. -1.
</event>
<event>
 7    1  0.6443388E-006  0.7740668E+02  0.7818608E-02  0.1381117E+00
          2   -1    0    0  502    0  0.00000000000E+00  0.00000000000E+00  0.29231427081E+04  0.29231427081E+04  0.00000000000E+00 0. -1.
          1   -1    0    0  501    0 -0.00000000000E+00 -0.00000000000E+00 -0.33987572391E+03  0.33987572391E+03  0.00000000000E+00 0. -1.
         25    2    1    2    0    0 -0.13785027362E+02 -0.52979094471E+02  0.69697757188E+03  0.71021115844E+03  0.12500136973E+03 0.  0.
          2    1    1    2  501    0 -0.37203281540E+02  0.68154788465E+02 -0.32841228994E+03  0.33746672655E+03  0.00000000000E+00 0. -1.
          1    1    1    2  502    0  0.50988308901E+02 -0.15175693994E+02  0.22147017022E+04  0.22153405470E+04  0.00000000000E+00 0. -1.
         22    1    3    3    0    0  0.19195764002E+02  0.36118095462E+02  0.18150685096E+03  0.18605840782E+03  0.00000000000E+00 0.  1.
         22    1    3    3    0    0 -0.32980791364E+02 -0.89097189933E+02  0.51547072092E+03  0.52415275062E+03  0.00000000000E+00 0.  1.
</event>
<event>
 7    1  0.6443388E-006  0.6354947E+02  0.7818608E-02  0.1530971E+00
          2   -1    0    0  502    0  0.00000000000E+00  0.00000000000E+00  0.31020198011E+03  0.31020198011E+03  0.00000000000E+00 0. -1.
          1   -1    0    0  501    0 -0.00000000000E+00 -0.00000000000E+00 -0.94418254918E+03  0.94418254918E+03  0.00000000000E+00 0. -1.
         25    2    1    2    0    0 -0.52612996911E+02 -0.11124038606E+02 -0.22974828440E+03  0.26702442227E+03  0.12500358486E+03 0.  0.
          2    1    1    2  501    0 -0.21196078110E+01 -0.21516852909E+02 -0.69214321441E+03  0.69248082786E+03  0.00000000000E+00 0. -1.
          1    1    1    2  502    0  0.54732604722E+02  0.32640891515E+02  0.28791092974E+03  0.29487927917E+03  0.00000000000E+00 0. -1.
         22    1    3    3    0    0  0.19507495355E+02 -0.48208283025E+02 -0.11799137313E+03  0.12894396093E+03  0.00000000000E+00 0.  1.
         22    1    3    3    0    0 -0.72120492267E+02  0.37084244418E+02 -0.11175691127E+03  0.13808046134E+03  0.00000000000E+00 0.  1.
</event>
<event>
 7    1  0.6443388E-006  0.7642117E+02  0.7818608E-02  0.1472424E+00
          2   -1    0    0  502    0  0.00000000000E+00  0.00000000000E+00  0.35653198246E+04  0.35653198246E+04  0.00000000000E+00 0. -1.
          1   -1    0    0  501    0 -0.00000000000E+00 -0.00000000000E+00 -0.99005578722E+01  0.99005578722E+01  0.00000000000E+00 0. -1.
         25    2    1    2    0    0 -0.48427903472E+01  0.99727200635E+02  0.17913375741E+04  0.17984676046E+04  0.12500581406E+03 0.  0.
          2    1    1    2  501    0  0.84826648809E+01 -0.73112253874E+02  0.21154270764E+03  0.22398141535E+03  0.00000000000E+00 0. -1.
          1    1    1    2  502    0 -0.36398745337E+01 -0.26614946761E+02  0.15525389850E+04  0.15527713625E+04  0.00000000000E+00 0. -1.
         22    1    3    3    0    0  0.30964362573E+02  0.13334550683E+02  0.12376066833E+03  0.12827043704E+03  0.00000000000E+00 0. -1.
         22    1    3    3    0    0 -0.35807152921E+02  0.86392649952E+02  0.16675769057E+04  0.16701971676E+04  0.00000000000E+00 0. -1.
</event>
<event>
 7    1  0.6443388E-006  0.7613741E+02  0.7818608E-02  0.1484821E+00
          2   -1    0    0  502    0  0.00000000000E+00  0.00000000000E+00  0.60211663240E+02  0.60211663240E+02  0.00000000000E+00 0. -1.
          1   -1    0    0  501    0 -0.00000000000E+00 -0.00000000000E+00 -0.14551877442E+04  0.14551877442E+04  0.00000000000E+00 0. -1.
         25    2    1    2    0    0  0.10581118280E+02  0.58976133382E+02 -0.13396671400E+03  0.19277546655E+03  0.12500062267E+03 0.  0.
          2    1    1    2  501    0  0.67713698762E+01 -0.76551189284E+02 -0.12855275621E+04  0.12878226000E+04  0.00000000000E+00 0. -1.
          1    1    1    2  502    0 -0.17352488157E+02  0.17575055902E+02  0.24518195168E+02  0.34801340915E+02  0.00000000000E+00 0. -1.
         22    1    3    3    0    0 -0.42107658517E+02 -0.12270655106E+02 -0.73182447521E+02  0.85318781681E+02  0.00000000000E+00 0.  1.
         22    1    3    3    0    0  0.52688776797E+02  0.71246788488E+02 -0.60784266482E+02  0.10745668486E+03  0.00000000000E+00 0.  1.
</event>
<event>
 7    1  0.6443388E-006  0.8088402E+02  0.7818608E-02  0.1466070E+00
          2   -1    0    0  502    0  0.00000000000E+00  0.00000000000E+00  0.12671799694E+03  0.12671799694E+03  0.00000000000E+00 0. -1.
          1   -1    0    0  501    0 -0.00000000000E+00 -0.00000000000E+00 -0.14087764692E+04  0.14087764692E+04  0.00000000000E+00 0. -1.
         25    2    1    2    0    0  0.10432465118E+03 -0.18030584723E+02 -0.89867234638E+02  0.18683927658E+03  0.12499624227E+03 0.  0.
          2    1    1    2  501    0 -0.77807381808E+02  0.19597988920E+02 -0.12668619195E+04  0.12694003281E+04  0.00000000000E+00 0. -1.
          1    1    1    2  502    0 -0.26517269377E+02 -0.15674041972E+01  0.74670681899E+02  0.79254861468E+02  0.00000000000E+00 0. -1.
         22    1    3    3    0    0 -0.11772098600E+02  0.19373985947E+02 -0.55751585792E+02  0.60184490985E+02  0.00000000000E+00 0. -1.
         22    1    3    3    0    0  0.11609674978E+03 -0.37404570670E+02 -0.34115648846E+02  0.12665478559E+03  0.00000000000E+00 0. -1.
</event>
<event>
 7    1  0.6443388E-006  0.6892021E+02  0.7818608E-02  0.1371232E+00
          2   -1    0    0  502    0  0.00000000000E+00  0.00000000000E+00  0.48005042897E+03  0.48005042897E+03  0.00000000000E+00 0. -1.
          1   -1    0    0  501    0 -0.00000000000E+00 -0.00000000000E+00 -0.16030394775E+03  0.16030394775E+03  0.00000000000E+00 0. -1.
         25    2    1    2    0    0 -0.37568780556E+02  0.36983211077E+02  0.24371180055E+03  0.27892401398E+03  0.12499597064E+03 0.  0.
          2    1    1    2  501    0 -0.19507056967E+02 -0.67654700585E+02 -0.12869203737E+03  0.14669466339E+03  0.00000000000E+00 0. -1.
          1    1    1    2  502    0  0.57075837523E+02  0.30671489508E+02  0.20472671804E+03  0.21473569935E+03  0.00000000000E+00 0. -1.
         22    1    3    3    0    0 -0.18715184269E+02 -0.39123468349E+02  0.15297441604E+03  0.15900338317E+03  0.00000000000E+00 0.  1.
         22    1    3    3    0    0 -0.18853596287E+02  0.76106679426E+02  0.90737384509E+02  0.11992063081E+03  0.00000000000E+00 0.  1.
</event>
<event>
 7    1  0.6443388E-006  0.1916291E+03  0.7818608E-02  0.1301868E+00
          2   -1    0    0  502    0  0.00000000000E+00  0.00000000000E+00  0.22680695517E+04  0.22680695517E+04  0.00000000000E+00 0. -1.
          1   -1    0    0  501    0 -0.00000000000E+00 -0.00000000000E+00 -0.86319480403E+03  0.86319480403E+03  0.00000000000E+00 0. -1.
         25    2    1    2    0    0  0.10767204446E+03  0.18855633812E+03 -0.46876262181E+03  0.53151815902E+03  0.12500558371E+03 0.  0.
          2    1    1    2  501    0  0.13604954454E+02 -0.40424752756E+02 -0.35768847156E+03  0.36022256746E+03  0.00000000000E+00 0. -1.
          1    1    1    2  502    0 -0.12127699892E+03 -0.14813158536E+03  0.22313258411E+04  0.22395236293E+04  0.00000000000E+00 0. -1.
         22    1    3    3    0    0  0.83091745438E+02  0.11760999754E+03 -0.16679762342E+03  0.22035833740E+03  0.00000000000E+00 0. -1.
         22    1    3    3    0    0  0.24580299026E+02  0.70946340583E+02 -0.30196499839E+03  0.31115982163E+03  0.00000000000E+00 0. -1.
</event>
<event>
 7    1  0.6443388E-006  0.9995319E+02  0.7818608E-02  0.1474846E+00
          2   -1    0    0  502    0  0.00000000000E+00  0.00000000000E+00  0.68968487958E+03  0.68968487958E+03  0.00000000000E+00 0. -1.
          1   -1    0    0  501    0 -0.00000000000E+00 -0.00000000000E+00 -0.61496096917E+03  0.61496096917E+03  0.00000000000E+00 0. -1.
         25    2    1    2    0    0 -0.46885844812E+02 -0.10708767819E+03 -0.18220010881E+02  0.17211236473E+03  0.12499857612E+03 0.  0.
          2    1    1    2  501    0 -0.10265093807E+01  0.20160839683E+02 -0.51557635557E+03  0.51597140580E+03  0.00000000000E+00 0. -1.
          1    1    1    2  502    0  0.47912354193E+02  0.86926838506E+02  0.60852027687E+03  0.61656207822E+03  0.00000000000E+00 0. -1.
         22    1    3    3    0    0 -0.83070551384E+02 -0.93265912228E+02  0.82944719094E+01  0.12517206220E+03  0.00000000000E+00 0. -1.
         22    1    3    3    0    0  0.36184706571E+02 -0.13821765961E+02 -0.26514482790E+02  0.46940302529E+02  0.00000000000E+00 0. -1.
</event>
<event>
 7    1  0.6443388E-006  0.5664852E+02  0.7818608E-02  0.1419192E+00
          2   -1    0    0  502    0  0.00000000000E+00  0.00000000000E+00  0.16955812822E+03  0.16955812822E+03  0.00000000000E+00 0. -1.
          1   -1    0    0  501    0 -0.00000000000E+00 -0.00000000000E+00 -0.15654970560E+03  0.15654970560E+03  0.00000000000E+00 0. -1.
         25    2    1    2    0    0 -0.73161055031E+01 -0.17278104097E+01 -0.43612335277E+02  0.13259599740E+03  0.12499260782E+03 0.  0.
          2    1    1    2  501    0 -0.51569952223E+02 -0.15234829023E+02 -0.48120793087E+02  0.72160728343E+02  0.00000000000E+00 0. -1.
          1    1    1    2  502    0  0.58886057726E+02  0.16962639432E+02  0.10474155098E+03  0.12135110808E+03  0.00000000000E+00 0. -1.
         22    1    3    3    0    0  0.27183106224E+02 -0.24077833212E+02 -0.73359579723E+02  0.81855306812E+02  0.00000000000E+00 0. -1.
         22    1    3    3    0    0 -0.34499211727E+02  0.22350022803E+02  0.29747244445E+02  0.50740690586E+02  0.00000000000E+00 0. -1.
</event>
<event>
 7    1  0.6443388E-006  0.7821369E+02  0.7818608E-02  0.1437251E+00
          2   -1    0    0  502    0  0.00000000000E+00  0.00000000000E+00  0.21718683584E+04  0.21718683584E+04  0.00000000000E+00 0. -1.
          1   -1    0    0  501    0 -0.00000000000E+00 -0.00000000000E+00 -0.22956447543E+03  0.22956447543E+03  0.00000000000E+00 0. -1.
         25    2    1    2    0    0 -0.10797864212E+02  0.44000552030E+02  0.37609696815E+02  0.13817243050E+03  0.12499795520E+03 0.  0.
          2    1    1    2  501    0 -0.15672550066E+02  0.30118388531E+02 -0.17692531255E+03  0.18015357997E+03  0.00000000000E+00 0. -1.
          1    1    1    2  502    0  0.26470414279E+02 -0.74118940562E+02  0.20816194987E+04  0.20831068234E+04  0.00000000000E+00 0. -1.
         22    1    3    3    0    0 -0.18534221506E+02 -0.37955926738E+02 -0.95424261385E+01  0.43303898647E+02  0.00000000000E+00 0.  1.
         22    1    3    3    0    0  0.77363572939E+01  0.81956478769E+02  0.47152122953E+02  0.94868531850E+02  0.00000000000E+00 0.  1.
</event>
<event>
 7    1  0.6443388E-006  0.8471510E+02  0.7818608E-02  0.1425364E+00
          2   -1    0    0  502    0  0.00000000000E+00  0.00000000000E+00  0.79190122134E+03  0.79190122134E+03  0.00000000000E+00 0. -1.
          1   -1    0    0  501    0 -0.00000000000E+00 -0.00000000000E+00 -0.24795379198E+03  0.24795379198E+03  0.00000000000E+00 0. -1.
         25    2    1    2    0    0 -0.62431507351E+02 -0.57877021658E+02  0.18204178467E+02  0.15233107386E+03  0.12500368476E+03 0.  0.
          2    1    1    2  501    0  0.80435994376E+02  0.28686442066E+02 -0.17036546449E+03  0.19057085989E+03  0.00000000000E+00 0. -1.
          1    1    1    2  502    0 -0.18004487025E+02  0.29190579592E+02  0.69610871538E+03  0.69695307956E+03  0.00000000000E+00 0. -1.
         22    1    3    3    0    0 -0.13532300114E+02 -0.89333462609E+02 -0.31050539554E+01  0.90405929275E+02  0.00000000000E+00 0. -1.
         22    1    3    3    0    0 -0.48899207237E+02  0.31456440950E+02  0.21309232423E+02  0.61925144587E+02  0.00000000000E+00 0. -1.
</event>
<event>
 7    1  0.6443388E-006  0.7348175E+02  0.7818608E-02  0.1367668E+00
          2   -1    0    0  502    0  0.00000000000E+00  0.00000000000E+00  0.11124898239E+04  0.11124898239E+04  0.00000000000E+00 0. -1.
          1   -1    0    0  501    0 -0.00000000000E+00 -0.00000000000E+00 -0.25210019398E+03  0.25210019398E+03  0.00000000000E+00 0. -1.
         25    2    1    2    0    0  0.45706966797E+02  0.29480773224E+02  0.48875881491E+03  0.50741313949E+03  0.12499868869E+03 0.  0.
          2    1    1    2  501    0 -0.68052279307E+02  0.28989143174E+02 -0.23549197654E+03  0.24683588506E+03  0.00000000000E+00 0. -1.
          1    1    1    2  502    0  0.22345312510E+02 -0.58469916398E+02  0.60712279155E+03  0.61034099332E+03  0.00000000000E+00 0. -1.
         22    1    3    3    0    0 -0.20637944847E+02 -0.32793393315E+02  0.83317997591E+02  0.91886996551E+02  0.00000000000E+00 0.  1.
         22    1    3    3    0    0  0.66344911644E+02  0.62274166539E+02  0.40544081732E+03  0.41552614294E+03  0.00000000000E+00 0.  1.
</event>
<event>
 7    1  0.6443388E-006  0.6803160E+02  0.7818608E-02  0.1376568E+00
          2   -1    0    0  502    0  0.00000000000E+00  0.00000000000E+00  0.17213410948E+03  0.17213410948E+03  0.00000000000E+00 0. -1.
          1   -1    0    0  501    0 -0.00000000000E+00 -0.00000000000E+00 -0.50791407438E+03  0.50791407438E+03  0.00000000000E+00 0. -1.
         25    2    1    2    0    0 -0.77450089603E+02 -0.44413668921E+02 -0.83181781415E+02  0.17468707882E+03  0.12500110551E+03 0.  0.
          2    1    1    2  501    0  0.18343289468E+02  0.65695127910E+02 -0.36783909304E+03  0.37410950866E+03  0.00000000000E+00 0. -1.
          1    1    1    2  502    0  0.59106800135E+02 -0.21281458989E+02  0.11524090955E+03  0.13125159638E+03  0.00000000000E+00 0. -1.
         22    1    3    3    0    0  0.17364210691E+02 -0.15773414788E+02 -0.71145042988E+02  0.74912839812E+02  0.00000000000E+00 0. -1.
         22    1    3    3    0    0 -0.94814300294E+02 -0.28640254133E+02 -0.12036738428E+02  0.99774239005E+02  0.00000000000E+00 0. -1.
</event>
<event>
 7    1  0.6443388E-006  0.5393479E+02  0.7818608E-02  0.1450459E+00
          2   -1    0    0  502    0  0.00000000000E+00  0.00000000000E+00  0.49487187455E+03  0.49487187455E+03  0.00000000000E+00 0. -1.
          1   -1    0    0  501    0 -0.00000000000E+00 -0.00000000000E+00 -0.12016138787E+04  0.12016138787E+04  0.00000000000E+00 0. -1.
         25    2    1    2    0    0 -0.60325266200E+02  0.23213629824E+02  0.68408230484E+02  0.15645648653E+03  0.12498374226E+03 0.  0.
          2    1    1    2  501    0  0.50041855090E+02  0.20217860245E+02 -0.11556556004E+04  0.11569152155E+04  0.00000000000E+00 0. -1.
          1    1    1    2  502    0  0.10283411111E+02 -0.43431490069E+02  0.38050536576E+03  0.38311405123E+03  0.00000000000E+00 0. -1.
         22    1    3    3    0    0  0.22761165435E+02  0.23855752770E+02 -0.17172435808E+02  0.37176069503E+02  0.00000000000E+00 0. -1.
         22    1    3    3    0    0 -0.83086431635E+02 -0.64212294567E+00  0.85580666291E+02  0.11928041703E+03  0.00000000000E+00 0. -1.
</event>
<event>
 7    1  0.6443388E-006  0.4854945E+03  0.7818608E-02  0.1193916E+00
          2   -1    0    0  502    0  0.00000000000E+00  0.00000000000E+00  0.10136726203E+04  0.10136726203E+04  0.00000000000E+00 0. -1.
          1   -1    0    0  501    0 -0.00000000000E+00 -0.00000000000E+00 -0.60643280554E+03  0.60643280554E+03  0.00000000000E+00 0. -1.
         25    2    1    2    0    0  0.69492819518E+02  0.50927544540E+03 -0.48872508365E+02  0.53122635661E+03  0.12498875398E+03 0.  0.
          2    1    1    2  501    0 -0.72461665825E+02 -0.45958204601E+03 -0.14374553254E+03  0.48695906209E+03  0.00000000000E+00 0. -1.
          1    1    1    2  502    0  0.29688463069E+01 -0.49693399394E+02  0.59985785570E+03  0.60192000717E+03  0.00000000000E+00 0. -1.
         22    1    3    3    0    0  0.52199536282E+02  0.31808179098E+03  0.29897895115E+02  0.32372009742E+03  0.00000000000E+00 0. -1.
         22    1    3    3    0    0  0.17293283236E+02  0.19119365443E+03 -0.78770403480E+02  0.20750625919E+03  0.00000000000E+00 0. -1.
</event>
<event>
 7    1  0.6443388E-006  0.1339630E+03  0.7818608E-02  0.1394876E+00
          2   -1    0    0  502    0  0.00000000000E+00  0.00000000000E+00  0.83925362098E+03  0.83925362098E+03  0.00000000000E+00 0. -1.
          1   -1    0    0  501    0 -0.00000000000E+00 -0.00000000000E+00 -0.20270374695E+03  0.20270374695E+03  0.00000000000E+00 0. -1.
         25    2    1    2    0    0 -0.81640657791E+02 -0.71452184502E+02  0.67155229945E+01  0.16565235183E+03  0.12499996697E+03 0.  0.
          2    1    1    2  501    0 -0.19180025235E+02 -0.19725335530E+02 -0.11547163561E+03  0.11870408948E+03  0.00000000000E+00 0. -1.
          1    1    1    2  502    0  0.10082068303E+03  0.91177520032E+02  0.74530598665E+03  0.75760092662E+03  0.00000000000E+00 0. -1.
         22    1    3    3    0    0 -0.85033169454E+02  0.59843619776E+01 -0.11539126039E+02  0.86020950503E+02  0.00000000000E+00 0. -1.
         22    1    3    3    0    0  0.33925116635E+01 -0.77436546480E+02  0.18254649034E+02  0.79631401328E+02  0.00000000000E+00 0. -1.
</event>
<event>
 7    1  0.6443388E-006  0.9013292E+02  0.7818608E-02  0.1317071E+00
          2   -1    0    0  502    0  0.00000000000E+00  0.00000000000E+00  0.18430560023E+03  0.18430560023E+03  0.00000000000E+00 0. -1.
          1   -1    0    0  501    0 -0.00000000000E+00 -0.00000000000E+00 -0.12448255459E+04  0.12448255459E+04  0.00000000000E+00 0. -1.
         25    2    1    2    0    0 -0.12356771130E+02 -0.95229599517E+02 -0.40359656314E+03  0.43328581142E+03  0.12500016872E+03 0.  0.
          2    1    1    2  501    0  0.73791167748E+02  0.28176470738E+02 -0.81212785848E+03  0.81595999195E+03  0.00000000000E+00 0. -1.
          1    1    1    2  502    0 -0.61434396618E+02  0.67053128779E+02  0.15520447598E+03  0.17988534273E+03  0.00000000000E+00 0. -1.
         22    1    3    3    0    0 -0.44671564270E+02 -0.39028602479E+02 -0.62833505334E+02  0.86410820262E+02  0.00000000000E+00 0.  1.
         22    1    3    3    0    0  0.32314793141E+02 -0.56200997038E+02 -0.34076305781E+03  0.34687499116E+03  0.00000000000E+00 0.  1.
</event>
<event>
 7    1  0.6443388E-006  0.2839987E+02  0.7818608E-02  0.1676019E+00
          2   -1    0    0  502    0  0.00000000000E+00  0.00000000000E+00  0.76428825433E+02  0.76428825433E+02  0.00000000000E+00 0. -1.
          1   -1    0    0  501    0 -0.00000000000E+00 -0.00000000000E+00 -0.14165131289E+04  0.14165131289E+04  0.00000000000E+00 0. -1.
         25    2    1    2    0    0  0.27682574677E+02  0.38588176670E+02 -0.15481695110E+03  0.20456805412E+03  0.12499771238E+03 0.  0.
          2    1    1    2  501    0 -0.12217182026E+02 -0.25505221087E+02 -0.12346625422E+04  0.12349863841E+04  0.00000000000E+00 0. -1.
          1    1    1    2  502    0 -0.15465392651E+02 -0.13082955583E+02  0.49395189831E+02  0.53387516097E+02  0.00000000000E+00 0. -1.
         22    1    3    3    0    0  0.11110503791E+02  0.63917777676E+02 -0.22244336398E+02  0.68583788896E+02  0.00000000000E+00 0.  1.
         22    1    3    3    0    0  0.16572070887E+02 -0.25329601006E+02 -0.13257261470E+03  0.13598426523E+03  0.00000000000E+00 0.  1.
</event>
<event>
 7    1  0.6443388E-006  0.1260099E+03  0.7818608E-02  0.1346588E+00
          2   -1    0    0  502    0  0.00000000000E+00  0.00000000000E+00  0.74960445676E+03  0.74960445676E+03  0.00000000000E+00 0. -1.
          1   -1    0    0  501    0 -0.00000000000E+00 -0.00000000000E+00 -0.71696474028E+03  0.71696474028E+03  0.00000000000E+00 0. -1.
         25    2    1    2    0    0  0.89401931205E+02  0.12411156259E+03  0.28880390021E+03  0.34989914414E+03  0.12500133209E+03 0.  0.
          2    1    1    2  501    0 -0.95995152962E+02 -0.81003686500E+02 -0.67954170087E+03  0.69105252321E+03  0.00000000000E+00 0. -1.
          1    1    1    2  502    0  0.65932217563E+01 -0.43107876086E+02  0.42337751714E+03  0.42561752968E+03  0.00000000000E+00 0. -1.
         22    1    3    3    0    0  0.43995355019E+02  0.13471447431E+03  0.25691626871E+03  0.29341020769E+03  0.00000000000E+00 0. -1.
         22    1    3    3    0    0  0.45406576186E+02 -0.10602911728E+02  0.31887631503E+02  0.56488936447E+02  0.00000000000E+00 0. -1.
</event>
<event>
 7    1  0.6451539E-006  0.8609068E+02  0.7818608E-02  0.1334150E+00
          2   -1    0    0  502    0  0.00000000000E+00  0.00000000000E+00  0.17046667761E+04  0.17046667761E+04  0.00000000000E+00 0. -1.
          1   -1    0    0  501    0 -0.00000000000E+00 -0.00000000000E+00 -0.62983576596E+03  0.62983576596E+03  0.00000000000E+00 0. -1.
         25    2    1    2    0    0  0.12707547820E+03  0.64435122976E+02 -0.34113345855E+03  0.39025255350E+03  0.12499982696E+03 0.  0.
          2    1    1    2  501    0 -0.58360708663E+02 -0.46221393032E+02 -0.25812778192E+03  0.26864910438E+03  0.00000000000E+00 0. -1.
          1    1    1    2  502    0 -0.68714769533E+02 -0.18213729944E+02  0.16740922506E+04  0.16756008842E+04  0.00000000000E+00 0. -1.
         22    1    3    3    0    0 -0.12261941571E+02  0.46354565821E+02 -0.10594008133E+03  0.11628586249E+03  0.00000000000E+00 0. -1.
         22    1    3    3    0    0  0.13933741977E+03  0.18080557155E+02 -0.23519337722E+03  0.27396669101E+03  0.00000000000E+00 0. -1.
</event>
<event>
 7    1  0.6443388E-006  0.1054412E+03  0.7818608E-02  0.1286425E+00
          2   -1    0    0  502    0  0.00000000000E+00  0.00000000000E+00  0.72050951594E+03  0.72050951594E+03  0.00000000000E+00 0. -1.
          1   -1    0    0  501    0 -0.00000000000E+00 -0.00000000000E+00 -0.14371155184E+03  0.14371155184E+03  0.00000000000E+00 0. -1.
         25    2    1    2    0    0 -0.15769107693E+03 -0.90557779800E+02  0.12465763796E+03  0.25343587592E+03  0.12499211684E+03 0.  0.
          2    1    1    2  501    0  0.74991084528E+02  0.56351776882E+02 -0.46135927109E+02  0.10453568427E+03  0.00000000000E+00 0. -1.
          1    1    1    2  502    0  0.82699992404E+02  0.34206002919E+02  0.49827625325E+03  0.50624950758E+03  0.00000000000E+00 0. -1.
         22    1    3    3    0    0 -0.15957470329E+03 -0.33677179580E+02  0.83664580395E+02  0.18329757327E+03  0.00000000000E+00 0.  1.
         22    1    3    3    0    0  0.18836263551E+01 -0.56880600220E+02  0.40993057567E+02  0.70138302648E+02  0.00000000000E+00 0.  1.
</event>
<event>
 7    1  0.6443388E-006  0.6820780E+02  0.7818608E-02  0.1462593E+00
          2   -1    0    0  502    0  0.00000000000E+00  0.00000000000E+00  0.82570919745E+03  0.82570919745E+03  0.00000000000E+00 0. -1.
          1   -1    0    0  501    0 -0.00000000000E+00 -0.00000000000E+00 -0.38800589684E+03  0.38800589684E+03  0.00000000000E+00 0. -1.
         25    2    1    2    0    0  0.52281785199E+01  0.59049997637E+02  0.41017881308E+03  0.43288088332E+03  0.12499985748E+03 0.  0.
          2    1    1    2  501    0 -0.37472191260E+02 -0.57132696508E+02 -0.37290062268E+03  0.37910840735E+03  0.00000000000E+00 0. -1.
          1    1    1    2  502    0  0.32244012740E+02 -0.19173011297E+01  0.40042511021E+03  0.40172580361E+03  0.00000000000E+00 0. -1.
         22    1    3    3    0    0 -0.39418618328E+01 -0.39329149678E+02  0.11986862037E+03  0.12621729850E+03  0.00000000000E+00 0. -1.
         22    1    3    3    0    0  0.91700403527E+01  0.98379147315E+02  0.29031019271E+03  0.30666358483E+03  0.00000000000E+00 0. -1.
</event>
<event>
 7    1  0.6443388E-006  0.6577872E+02  0.7818608E-02  0.1517955E+00
          2   -1    0    0  502    0  0.00000000000E+00  0.00000000000E+00  0.30444196381E+03  0.30444196381E+03  0.00000000000E+00 0. -1.
          1   -1    0    0  501    0 -0.00000000000E+00 -0.00000000000E+00 -0.16539622250E+03  0.16539622250E+03  0.00000000000E+00 0. -1.
         25    2    1    2    0    0  0.35439244567E+02  0.28093500653E+02  0.23498262522E+03  0.26997524055E+03  0.12499844607E+03 0.  0.
          2    1    1    2  501    0 -0.45172248397E+02 -0.48684830953E+02 -0.13737030973E+03  0.15258226236E+03  0.00000000000E+00 0. -1.
          1    1    1    2  502    0  0.97330038306E+01  0.20591330300E+02  0.41433425822E+02  0.47280683396E+02  0.00000000000E+00 0. -1.
         22    1    3    3    0    0  0.15547598044E+02 -0.35461386313E+02  0.17850497291E+03  0.18265613343E+03  0.00000000000E+00 0. -1.
         22    1    3    3    0    0  0.19891646523E+02  0.63554886966E+02  0.56477652312E+02  0.87319107126E+02  0.00000000000E+00 0. -1.
</event>
<event>
 7    1  0.6443388E-006  0.4070834E+02  0.7818608E-02  0.1592728E+00
          2   -1    0    0  502    0  0.00000000000E+00  0.00000000000E+00  0.64911421070E+03  0.64911421070E+03  0.00000000000E+00 0. -1.
          1   -1    0    0  501    0 -0.00000000000E+00 -0.00000000000E+00 -0.73471575296E+02  0.73471575296E+02  0.00000000000E+00 0. -1.
         25    2    1    2    0    0 -0.51345277326E-01  0.24157599894E+02  0.80735493047E+02  0.15075459979E+03  0.12500054900E+03 0.  0.
          2    1    1    2  501    0 -0.17385510566E+02 -0.38905780134E+02 -0.26331455453E+02  0.50092526905E+02  0.00000000000E+00 0. -1.
          1    1    1    2  502    0  0.17436855843E+02  0.14748180240E+02  0.52123859781E+03  0.52173865930E+03  0.00000000000E+00 0. -1.
         22    1    3    3    0    0 -0.46130090130E+02  0.55019629121E+02  0.47744380836E+02  0.86224536562E+02  0.00000000000E+00 0. -1.
         22    1    3    3    0    0  0.46078744852E+02 -0.30862029227E+02  0.32991112211E+02  0.64530063227E+02  0.00000000000E+00 0. -1.
</event>
<event>
 7    1  0.6443388E-006  0.9315469E+02  0.7818608E-02  0.1430730E+00
          2   -1    0    0  502    0  0.00000000000E+00  0.00000000000E+00  0.22326355365E+02  0.22326355365E+02  0.00000000000E+00 0. -1.
          1   -1    0    0  501    0 -0.00000000000E+00 -0.00000000000E+00 -0.14882532705E+04  0.14882532705E+04  0.00000000000E+00 0. -1.
         25    2    1    2    0    0 -0.30829275966E+02 -0.78284731566E+02 -0.11585287119E+04  0.11682862354E+04  0.12500003298E+03 0.  0.
          2    1    1    2  501    0  0.39005783979E+02  0.10708928714E+03 -0.27743823781E+03  0.29993589716E+03  0.00000000000E+00 0. -1.
          1    1    1    2  502    0 -0.81765080135E+01 -0.28804555574E+02 -0.29959965434E+02  0.42357493244E+02  0.00000000000E+00 0. -1.
         22    1    3    3    0    0  0.24810793804E+01  0.10664074452E+02 -0.69697134357E+03  0.69705733767E+03  0.00000000000E+00 0. -1.
         22    1    3    3    0    0 -0.33310355346E+02 -0.88948806019E+02 -0.46155736828E+03  0.47122889776E+03  0.00000000000E+00 0. -1.
</event>
<event>
 7    1  0.6443388E-006  0.9597185E+02  0.7818608E-02  0.1329376E+00
          2   -1    0    0  502    0  0.00000000000E+00  0.00000000000E+00  0.23902308693E+03  0.23902308693E+03  0.00000000000E+00 0. -1.
          1   -1    0    0  501    0 -0.00000000000E+00 -0.00000000000E+00 -0.25444323285E+04  0.25444323285E+04  0.00000000000E+00 0. -1.
         25    2    1    2    0    0 -0.17259762686E+02 -0.13255694996E+03 -0.13321463232E+03  0.22636637511E+03  0.12500541238E+03 0.  0.
          2    1    1    2  501    0 -0.36996681535E+02  0.55253823608E+02 -0.23525566882E+04  0.23534962738E+04  0.00000000000E+00 0. -1.
          1    1    1    2  502    0  0.54256444222E+02  0.77303126354E+02  0.18036207893E+03  0.20359276657E+03  0.00000000000E+00 0. -1.
         22    1    3    3    0    0  0.36642909782E+02 -0.10618517748E+02 -0.36088597615E+00  0.38152142733E+02  0.00000000000E+00 0. -1.
         22    1    3    3    0    0 -0.53902672468E+02 -0.12193843221E+03 -0.13285374635E+03  0.18821423238E+03  0.00000000000E+00 0. -1.
</event>
<event>
 7    1  0.6443388E-006  0.4198228E+02  0.7818608E-02  0.1577423E+00
          2   -1    0    0  502    0  0.00000000000E+00  0.00000000000E+00  0.10342054991E+04  0.10342054991E+04  0.00000000000E+00 0. -1.
          1   -1    0    0  501    0 -0.00000000000E+00 -0.00000000000E+00 -0.16642688058E+03  0.16642688058E+03  0.00000000000E+00 0. -1.
         25    2    1    2    0    0 -0.52436949937E+01  0.46768318576E+02  0.62419380173E+02  0.14743066433E+03  0.12499939921E+03 0.  0.
          2    1    1    2  501    0 -0.17522855656E+02 -0.38203931142E+02 -0.12019291203E+03  0.12732999226E+03  0.00000000000E+00 0. -1.
          1    1    1    2  502    0  0.22766550650E+02 -0.85643874339E+01  0.92555215042E+03  0.92587172314E+03  0.00000000000E+00 0. -1.
         22    1    3    3    0    0 -0.20896997954E+02  0.52216436685E+02 -0.22745526301E+02  0.60667946646E+02  0.00000000000E+00 0.  1.
         22    1    3    3    0    0  0.15653302960E+02 -0.54481181090E+01  0.85164906474E+02  0.86762717681E+02  0.00000000000E+00 0.  1.
</event>
<event>
 7    1  0.6443388E-006  0.6287316E+02  0.7818608E-02  0.1503094E+00
          2   -1    0    0  502    0  0.00000000000E+00  0.00000000000E+00  0.94535323078E+03  0.94535323078E+03  0.00000000000E+00 0. -1.
          1   -1    0    0  501    0 -0.00000000000E+00 -0.00000000000E+00 -0.18052739897E+03  0.18052739897E+03  0.00000000000E+00 0. -1.
         25    2    1    2    0    0 -0.18593345618E+01  0.46989478749E+01  0.81113096733E+03  0.82072158473E+03  0.12499974496E+03 0.  0.
          2    1    1    2  501    0 -0.13149070831E+02  0.61482814936E+02 -0.16047003428E+03  0.17234751665E+03  0.00000000000E+00 0. -1.
          1    1    1    2  502    0  0.15008405393E+02 -0.66181762811E+02  0.11416489875E+03  0.13281152837E+03  0.00000000000E+00 0. -1.
         22    1    3    3    0    0 -0.60344556805E+00 -0.59574876506E+02  0.33290998181E+03  0.33819903318E+03  0.00000000000E+00 0.  1.
         22    1    3    3    0    0 -0.12558889938E+01  0.64273824381E+02  0.47822098552E+03  0.48252255155E+03  0.00000000000E+00 0.  1.
</event>
<event>
 7    1  0.6443388E-006  0.1343453E+03  0.7818608E-02  0.1280825E+00
          2   -1    0    0  502    0  0.00000000000E+00  0.00000000000E+00  0.70123202955E+03  0.70123202955E+03  0.00000000000E+00 0. -1.
          1   -1    0    0  501    0 -0.00000000000E+00 -0.00000000000E+00 -0.19996523011E+04  0.19996523011E+04  0.00000000000E+00 0. -1.
         25    2    1    2    0    0  0.16581425860E+03 -0.11778104579E+03  0.53489476899E+02  0.24464835087E+03  0.12499979337E+03 0.  0.
          2    1    1    2  501    0 -0.11870905228E+03  0.60630412849E+02 -0.18992429167E+04  0.19039147939E+04  0.00000000000E+00 0. -1.
          1    1    1    2  502    0 -0.47105206313E+02  0.57150632942E+02  0.54733316822E+03  0.55232118585E+03  0.00000000000E+00 0. -1.
         22    1    3    3    0    0  0.15985597727E+03 -0.52709286467E+02  0.15427462427E+02  0.16902724321E+03  0.00000000000E+00 0.  1.
         22    1    3    3    0    0  0.59582813223E+01 -0.65071759324E+02  0.38062014472E+02  0.75621107658E+02  0.00000000000E+00 0.  1.
</event>
<event>
 7    1  0.6443388E-006  0.2207585E+03  0.7818608E-02  0.1205628E+00
          2   -1    0    0  502    0  0.00000000000E+00  0.00000000000E+00  0.37263388861E+03  0.37263388861E+03  0.00000000000E+00 0. -1.
          1   -1    0    0  501    0 -0.00000000000E+00 -0.00000000000E+00 -0.10131936673E+04  0.10131936673E+04  0.00000000000E+00 0. -1.
         25    2    1    2    0    0 -0.11213799612E+03 -0.27797675907E+03 -0.20995486277E+03  0.38671883045E+03  0.12499760266E+03 0.  0.
          2    1    1    2  501    0  0.62736585097E+02  0.73193244418E+02 -0.67190911055E+03  0.67878935096E+03  0.00000000000E+00 0. -1.
          1    1    1    2  502    0  0.49401411022E+02  0.20478351465E+03  0.24130419468E+03  0.32031937446E+03  0.00000000000E+00 0. -1.
         22    1    3    3    0    0 -0.66769347354E+02 -0.26825579168E+03 -0.19372869366E+03  0.33756498969E+03  0.00000000000E+00 0. -1.
         22    1    3    3    0    0 -0.45368648765E+02 -0.97209673838E+01 -0.16226169108E+02  0.49153840761E+02  0.00000000000E+00 0. -1.
</event>
<event>
 7    1  0.6443388E-006  0.6291738E+02  0.7818608E-02  0.1409598E+00
          2   -1    0    0  502    0  0.00000000000E+00  0.00000000000E+00  0.25120401003E+02  0.25120401003E+02  0.00000000000E+00 0. -1.
          1   -1    0    0  501    0 -0.00000000000E+00 -0.00000000000E+00 -0.10964053909E+04  0.10964053909E+04  0.00000000000E+00 0. -1.
         25    2    1    2    0    0 -0.11496480476E+02  0.26830265223E+02 -0.48956309640E+03  0.50611190310E+03  0.12500080363E+03 0.  0.
          2    1    1    2  501    0 -0.11922251525E+02 -0.73431137031E+02 -0.54862171315E+03  0.55364253459E+03  0.00000000000E+00 0. -1.
          1    1    1    2  502    0  0.23418732001E+02  0.46600871808E+02 -0.33100180336E+02  0.61771354203E+02  0.00000000000E+00 0. -1.
         22    1    3    3    0    0  0.42926931072E+01  0.23170082081E+02 -0.89208473872E+01  0.25196456812E+02  0.00000000000E+00 0.  1.
         22    1    3    3    0    0 -0.15789173583E+02  0.36601831420E+01 -0.48064224902E+03  0.48091544629E+03  0.00000000000E+00 0.  1.
</event>
<event>
 7    1  0.6443388E-006  0.4592600E+02  0.7818608E-02  0.1496762E+00
          2   -1    0    0  502    0  0.00000000000E+00  0.00000000000E+00  0.14636838755E+04  0.14636838755E+04  0.00000000000E+00 0. -1.
          1   -1    0    0  501    0 -0.00000000000E+00 -0.00000000000E+00 -0.93305632608E+02  0.93305632608E+02  0.00000000000E+00 0. -1.
         25    2    1    2    0    0  0.98002400242E+01 -0.44354800871E+02  0.50907732124E+03  0.52616292649E+03  0.12499725258E+03 0.  0.
          2    1    1    2  501    0 -0.37163757975E+02  0.62163517938E+01 -0.79961369853E+02  0.88394618644E+02  0.00000000000E+00 0. -1.
          1    1    1    2  502    0  0.27363517950E+02  0.38138449077E+02  0.94126229155E+03  0.94243196302E+03  0.00000000000E+00 0. -1.
         22    1    3    3    0    0 -0.61773895063E+01  0.16806470921E+02  0.56408975218E+01  0.18773314326E+02  0.00000000000E+00 0.  1.
         22    1    3    3    0    0  0.15977629531E+02 -0.61161271792E+02  0.50343642371E+03  0.50738961217E+03  0.00000000000E+00 0.  1.
</event>
<event>
 7    1  0.6443388E-006  0.6847100E+02  0.7818608E-02  0.1378168E+00
          2   -1    0    0  502    0  0.00000000000E+00  0.00000000000E+00  0.44503829263E+04  0.44503829263E+04  0.00000000000E+00 0. -1.
          1   -1    0    0  501    0 -0.00000000000E+00 -0.00000000000E+00 -0.16586685415E+04  0.16586685415E+04  0.00000000000E+00 0. -1.
         25    2    1    2    0    0  0.15546419294E+02  0.19342819830E+01 -0.18259763968E+01  0.12599263708E+03  0.12500151123E+03 0.  0.
          2    1    1    2  501    0 -0.32177707945E+02 -0.61252944230E+02 -0.15937924006E+04  0.15952935606E+04  0.00000000000E+00 0. -1.
          1    1    1    2  502    0  0.16631288651E+02  0.59318662247E+02  0.43873327618E+04  0.43877652702E+04  0.00000000000E+00 0. -1.
         22    1    3    3    0    0 -0.35039904008E+02 -0.33010093551E+02 -0.31696754558E+02  0.57638055125E+02  0.00000000000E+00 0. -1.
         22    1    3    3    0    0  0.50586323302E+02  0.34944375534E+02  0.29870778161E+02  0.68354581958E+02  0.00000000000E+00 0. -1.
</event>
<event>
 7    1  0.6443388E-006  0.3440005E+03  0.7818608E-02  0.1259820E+00
          2   -1    0    0  502    0  0.00000000000E+00  0.00000000000E+00  0.14757064669E+04  0.14757064669E+04  0.00000000000E+00 0. -1.
          1   -1    0    0  501    0 -0.00000000000E+00 -0.00000000000E+00 -0.21125143294E+04  0.21125143294E+04  0.00000000000E+00 0. -1.
         25    2    1    2    0    0  0.36072918928E+03 -0.81939929606E+02 -0.43643708385E+03  0.58561310418E+03  0.12500271825E+03 0.  0.
          2    1    1    2  501    0 -0.32597700088E+03  0.88859763005E+02 -0.15834393341E+04  0.16190852934E+04  0.00000000000E+00 0. -1.
          1    1    1    2  502    0 -0.34752188395E+02 -0.69198333991E+01  0.13830685554E+04  0.13835223987E+04  0.00000000000E+00 0. -1.
         22    1    3    3    0    0  0.14167528133E+03 -0.88107697854E+02 -0.14544864204E+03  0.22133720706E+03  0.00000000000E+00 0. -1.
         22    1    3    3    0    0  0.21905390795E+03  0.61677682483E+01 -0.29098844181E+03  0.36427589712E+03  0.00000000000E+00 0. -1.
</event>
<event>
 7    1  0.6443388E-006  0.8758832E+02  0.7818608E-02  0.1438153E+00
          2   -1    0    0  502    0  0.00000000000E+00  0.00000000000E+00  0.96110845359E+03  0.96110845359E+03  0.00000000000E+00 0. -1.
          1   -1    0    0  501    0 -0.00000000000E+00 -0.00000000000E+00 -0.38265792316E+03  0.38265792316E+03  0.00000000000E+00 0. -1.
         25    2    1    2    0    0  0.33938542959E+02  0.10383256029E+03  0.18346647877E+01  0.16601579832E+03  0.12499941608E+03 0.  0.
          2    1    1    2  501    0  0.97339653213E+01 -0.28497134637E+02 -0.29764464726E+03  0.29916412352E+03  0.00000000000E+00 0. -1.
          1    1    1    2  502    0 -0.43672508280E+02 -0.75335425656E+02  0.87426051289E+03  0.87858645490E+03  0.00000000000E+00 0. -1.
         22    1    3    3    0    0  0.26186661961E+02  0.57993793512E+02  0.62762943958E+02  0.89376778219E+02  0.00000000000E+00 0. -1.
         22    1    3    3    0    0  0.77518809985E+01  0.45838766781E+02 -0.60928279171E+02  0.76639020099E+02  0.00000000000E+00 0. -1.
</event>
<event>
 7    1  0.6443388E-006  0.4395619E+02  0.7818608E-02  0.1529250E+00
          2   -1    0    0  502    0  0.00000000000E+00  0.00000000000E+00  0.43550485106E+02  0.43550485106E+02  0.00000000000E+00 0. -1.
          1   -1    0    0  501    0 -0.00000000000E+00 -0.00000000000E+00 -0.27281780993E+04  0.27281780993E+04  0.00000000000E+00 0. -1.
         25    2    1    2    0    0 -0.31037748693E+02 -0.20880913766E+02 -0.10159204317E+04  0.10242648916E+04  0.12499956085E+03 0.  0.
          2    1    1    2  501    0 -0.12357092754E+02  0.29100440901E+02 -0.16955073499E+04  0.16958020836E+04  0.00000000000E+00 0. -1.
          1    1    1    2  502    0  0.43394841447E+02 -0.82195271349E+01  0.26800167378E+02  0.51661609170E+02  0.00000000000E+00 0. -1.
         22    1    3    3    0    0  0.93891370378E+01 -0.61929184237E+02 -0.32737667000E+03  0.33331496188E+03  0.00000000000E+00 0.  1.
         22    1    3    3    0    0 -0.40426885731E+02  0.41048270471E+02 -0.68854376175E+03  0.69094992976E+03  0.00000000000E+00 0.  1.
</event>
<event>
 7    1  0.6443388E-006  0.9721218E+02  0.7818608E-02  0.1422414E+00
          2   -1    0    0  502    0  0.00000000000E+00  0.00000000000E+00  0.13180046432E+03  0.13180046432E+03  0.00000000000E+00 0. -1.
          1   -1    0    0  501    0 -0.00000000000E+00 -0.00000000000E+00 -0.62940182939E+03  0.62940182939E+03  0.00000000000E+00 0. -1.
         25    2    1    2    0    0 -0.51882626276E+02  0.74294281987E+02 -0.44353002319E+03  0.46963357543E+03  0.12500146582E+03 0.  0.
          2    1    1    2  501    0 -0.26259451196E+02 -0.15650033132E+02 -0.15092934590E+03  0.15399399264E+03  0.00000000000E+00 0. -1.
          1    1    1    2  502    0  0.78142077472E+02 -0.58644248855E+02  0.96858004018E+02  0.13757472565E+03  0.00000000000E+00 0. -1.
         22    1    3    3    0    0 -0.36329351186E+02  0.77090510838E+02 -0.12840358401E+03  0.15411115795E+03  0.00000000000E+00 0.  1.
         22    1    3    3    0    0 -0.15553275089E+02 -0.27962288515E+01 -0.31512643918E+03  0.31552241748E+03  0.00000000000E+00 0.  1.
</event>
<event>
 7    1  0.6443388E-006  0.7386620E+02  0.7818608E-02  0.1357329E+00
          2   -1    0    0  502    0  0.00000000000E+00  0.00000000000E+00  0.37980834232E+03  0.37980834232E+03  0.00000000000E+00 0. -1.
          1   -1    0    0  501    0 -0.00000000000E+00 -0.00000000000E+00 -0.59752648897E+03  0.59752648897E+03  0.00000000000E+00 0. -1.
         25    2    1    2    0    0  0.39644039482E+01 -0.50874278763E+02 -0.39769998591E+02  0.14071241888E+03  0.12495768605E+03 0.  0.
          2    1    1    2  501    0 -0.67361158841E+02  0.85201359717E+01 -0.50054965397E+03  0.50513371945E+03  0.00000000000E+00 0. -1.
          1    1    1    2  502    0  0.63396754893E+02  0.42354142791E+02  0.32260150591E+03  0.33148869296E+03  0.00000000000E+00 0. -1.
         22    1    3    3    0    0  0.35810513249E+02  0.29823656519E+02 -0.24409554690E+02  0.52608646699E+02  0.00000000000E+00 0. -1.
         22    1    3    3    0    0 -0.31846109301E+02 -0.80697935282E+02 -0.15360443901E+02  0.88103772185E+02  0.00000000000E+00 0. -1.
</event>
<event>
 7    1  0.6443388E-006  0.1367728E+03  0.7818608E-02  0.1270284E+00
          2   -1    0    0  502    0  0.00000000000E+00  0.00000000000E+00  0.11583797226E+03  0.11583797226E+03  0.00000000000E+00 0. -1.
          1   -1    0    0  501    0 -0.00000000000E+00 -0.00000000000E+00 -0.13217998950E+04  0.13217998950E+04  0.00000000000E+00 0. -1.
         25    2    1    2    0    0  0.93196105072E+02 -0.14785970596E+03 -0.55971541122E+03  0.59954521379E+03  0.12500046071E+03 0.  0.
          2    1    1    2  501    0 -0.79320442576E+02  0.13614161540E+02 -0.69117899542E+03  0.69584874916E+03  0.00000000000E+00 0. -1.
          1    1    1    2  502    0 -0.13875662496E+02  0.13424554442E+03  0.44932483892E+02  0.14224390432E+03  0.00000000000E+00 0. -1.
         22    1    3    3    0    0  0.12011069148E+03 -0.88860353507E+02 -0.41063731450E+03  0.43697339128E+03  0.00000000000E+00 0.  1.
         22    1    3    3    0    0 -0.26914586408E+02 -0.58999352455E+02 -0.14907809672E+03  0.16257182251E+03  0.00000000000E+00 0.  1.
</event>
<event>
 7    1  0.6443388E-006  0.6894491E+02  0.7818608E-02  0.1376442E+00
          2   -1    0    0  502    0  0.00000000000E+00  0.00000000000E+00  0.18783799299E+04  0.18783799299E+04  0.00000000000E+00 0. -1.
          1   -1    0    0  501    0 -0.00000000000E+00 -0.00000000000E+00 -0.97291639973E+03  0.97291639973E+03  0.00000000000E+00 0. -1.
         25    2    1    2    0    0 -0.59724515604E+02 -0.91108867312E+02  0.44509833000E+03  0.47497990322E+03  0.12500216650E+03 0.  0.
          2    1    1    2  501    0  0.17981815683E+01  0.68857450691E+02 -0.95605724879E+03  0.95853536446E+03  0.00000000000E+00 0. -1.
          1    1    1    2  502    0  0.57926334036E+02  0.22251416621E+02  0.14164224490E+04  0.14177810620E+04  0.00000000000E+00 0. -1.
         22    1    3    3    0    0 -0.20103342482E+02 -0.98881550652E+01  0.17020495646E+01  0.22468132149E+02  0.00000000000E+00 0. -1.
         22    1    3    3    0    0 -0.39621173122E+02 -0.81220712247E+02  0.44339628043E+03  0.45251177107E+03  0.00000000000E+00 0. -1.
</event>
<event>
 7    1  0.6443388E-006  0.7653336E+02  0.7818608E-02  0.1341177E+00
          2   -1    0    0  502    0  0.00000000000E+00  0.00000000000E+00  0.15556770736E+03  0.15556770736E+03  0.00000000000E+00 0. -1.
          1   -1    0    0  501    0 -0.00000000000E+00 -0.00000000000E+00 -0.81193353010E+03  0.81193353010E+03  0.00000000000E+00 0. -1.
         25    2    1    2    0    0  0.70013641580E+02  0.30433051731E+02 -0.16170780843E+03  0.21817925590E+03  0.12499876700E+03 0.  0.
          2    1    1    2  501    0 -0.63424434208E+02  0.45816131636E+02 -0.60775091966E+03  0.61276664165E+03  0.00000000000E+00 0. -1.
          1    1    1    2  502    0 -0.65892073723E+01 -0.76249183368E+02  0.11309290535E+03  0.13655533991E+03  0.00000000000E+00 0. -1.
         22    1    3    3    0    0  0.49537705794E+02  0.22683096294E+02  0.51430372138E+00  0.54486435570E+02  0.00000000000E+00 0.  1.
         22    1    3    3    0    0  0.20475935786E+02  0.77499554377E+01 -0.16222211215E+03  0.16369282033E+03  0.00000000000E+00 0.  1.
</event>
<event>
 7    1  0.6443388E-006  0.4696218E+02  0.7818608E-02  0.1503928E+00
          2   -1    0    0  502    0  0.00000000000E+00  0.00000000000E+00  0.15291623901E+03  0.15291623901E+03  0.00000000000E+00 0. -1.
          1   -1    0    0  501    0 -0.00000000000E+00 -0.00000000000E+00 -0.16177737929E+04  0.16177737929E+04  0.00000000000E+00 0. -1.
         25    2    1    2    0    0  0.48155636124E+02 -0.59678255558E+02 -0.62105891441E+03  0.63813965834E+03  0.12501035521E+03 0.  0.
          2    1    1    2  501    0 -0.31188058838E+02  0.16057814041E+02 -0.98406046071E+03  0.98468550246E+03  0.00000000000E+00 0. -1.
          1    1    1    2  502    0 -0.16967577286E+02  0.43620441517E+02  0.14026182126E+03  0.14786487108E+03  0.00000000000E+00 0. -1.
         22    1    3    3    0    0 -0.31899287928E+02 -0.31880018198E+02 -0.37902690262E+03  0.38170052795E+03  0.00000000000E+00 0. -1.
         22    1    3    3    0    0  0.80054924052E+02 -0.27798237360E+02 -0.24203201179E+03  0.25643913039E+03  0.00000000000E+00 0. -1.
</event>
<event>
 7    1  0.6443388E-006  0.9467822E+02  0.7818608E-02  0.1334004E+00
          2   -1    0    0  502    0  0.00000000000E+00  0.00000000000E+00  0.13593474323E+04  0.13593474323E+04  0.00000000000E+00 0. -1.
          1   -1    0    0  501    0 -0.00000000000E+00 -0.00000000000E+00 -0.54010490239E+02  0.54010490239E+02  0.00000000000E+00 0. -1.
         25    2    1    2    0    0 -0.69000766657E+02  0.52409007260E+02  0.32721486121E+03  0.36083462688E+03  0.12499701085E+03 0.  0.
          2    1    1    2  501    0  0.47645687020E+02  0.43804955686E+02 -0.45868398560E+01  0.64884703391E+02  0.00000000000E+00 0. -1.
          1    1    1    2  502    0  0.21355079637E+02 -0.96213962946E+02  0.98270892071E+03  0.98763859227E+03  0.00000000000E+00 0. -1.
         22    1    3    3    0    0 -0.72597833150E+02  0.44822868941E+02  0.92012283729E+02  0.12548225100E+03  0.00000000000E+00 0. -1.
         22    1    3    3    0    0  0.35970664936E+01  0.75861383189E+01  0.23520257748E+03  0.23535237588E+03  0.00000000000E+00 0. -1.
</event>
<event>
 7    1  0.6443388E-006  0.5181829E+02  0.7818608E-02  0.1509516E+00
          2   -1    0    0  502    0  0.00000000000E+00  0.00000000000E+00  0.53278405250E+02  0.53278405250E+02  0.00000000000E+00 0. -1.
          1   -1    0    0  501    0 -0.00000000000E+00 -0.00000000000E+00 -0.69415943222E+03  0.69415943222E+03  0.00000000000E+00 0. -1.
         25    2    1    2    0    0  0.55092072736E+02  0.23554447051E+02 -0.13445196743E+03  0.19311373899E+03  0.12500254473E+03 0.  0.
          2    1    1    2  501    0 -0.39020553566E+01 -0.30355226372E+02 -0.50151837564E+03  0.50245133785E+03  0.00000000000E+00 0. -1.
          1    1    1    2  502    0 -0.51190017379E+02  0.68007793212E+01 -0.49106839011E+01  0.51872760626E+02  0.00000000000E+00 0. -1.
         22    1    3    3    0    0  0.68718388777E+02 -0.32832499354E+02 -0.51681510155E+02  0.92038950786E+02  0.00000000000E+00 0.  1.
         22    1    3    3    0    0 -0.13626316042E+02  0.56386946404E+02 -0.82770457274E+02  0.10107478821E+03  0.00000000000E+00 0.  1.
</event>
<event>
 7    1  0.6443388E-006  0.1254307E+03  0.7818608E-02  0.1257599E+00
          2   -1    0    0  502    0  0.00000000000E+00  0.00000000000E+00  0.94921834514E+03  0.94921834514E+03  0.00000000000E+00 0. -1.
          1   -1    0    0  501    0 -0.00000000000E+00 -0.00000000000E+00 -0.12035728128E+04  0.12035728128E+04  0.00000000000E+00 0. -1.
         25    2    1    2    0    0  0.12068839916E+03  0.18325140055E+03  0.73914050326E+02  0.26312496405E+03  0.12499877750E+03 0.  0.
          2    1    1    2  501    0 -0.50863563363E+02 -0.11260500135E+03 -0.11023422514E+04  0.11092454316E+04  0.00000000000E+00 0. -1.
          1    1    1    2  502    0 -0.69824835799E+02 -0.70646399206E+02  0.77407373340E+03  0.78042076226E+03  0.00000000000E+00 0. -1.
         22    1    3    3    0    0 -0.54227864993E+01 -0.51106560450E+00  0.36777329838E+02  0.37178485600E+02  0.00000000000E+00 0.  1.
         22    1    3    3    0    0  0.12611118566E+03  0.18376246616E+03  0.37136720488E+02  0.22594647845E+03  0.00000000000E+00 0.  1.
</event>
<event>
 7    1  0.6443388E-006  0.2803069E+03  0.7818608E-02  0.1222775E+00
          2   -1    0    0  502    0  0.00000000000E+00  0.00000000000E+00  0.53799312098E+04  0.53799312098E+04  0.00000000000E+00 0. -1.
          1   -1    0    0  501    0 -0.00000000000E+00 -0.00000000000E+00 -0.47844881114E+03  0.47844881114E+03  0.00000000000E+00 0. -1.
         25    2    1    2    0    0  0.12868596563E+02  0.21840638312E+03  0.16715414605E+04  0.16904269263E+04  0.12500155941E+03 0.  0.
          2    1    1    2  501    0 -0.22647727768E+02 -0.28094759757E+03 -0.42636011570E+03  0.51110411895E+03  0.00000000000E+00 0. -1.
          1    1    1    2  502    0  0.97791312046E+01  0.62541214448E+02  0.36563010538E+04  0.36568489757E+04  0.00000000000E+00 0. -1.
         22    1    3    3    0    0 -0.50809510752E+02  0.48860686445E+02  0.42791821101E+03  0.43368533337E+03  0.00000000000E+00 0.  1.
         22    1    3    3    0    0  0.63678107315E+02  0.16954569668E+03  0.12436232495E+04  0.12567415929E+04  0.00000000000E+00 0.  1.
</event>
<event>
 7    1  0.6443388E-006  0.1359081E+03  0.7818608E-02  0.1355886E+00
          2   -1    0    0  502    0  0.00000000000E+00  0.00000000000E+00  0.62879881904E+03  0.62879881904E+03  0.00000000000E+00 0. -1.
          1   -1    0    0  501    0 -0.00000000000E+00 -0.00000000000E+00 -0.15556623471E+03  0.15556623471E+03  0.00000000000E+00 0. -1.
         25    2    1    2    0    0 -0.59876322835E+02 -0.13889157771E+03  0.31929896171E+03  0.37477231020E+03  0.12500565248E+03 0.  0.
          2    1    1    2  501    0  0.23033652153E+02  0.13272420502E+03 -0.90523229389E+02  0.16229824025E+03  0.00000000000E+00 0. -1.
          1    1    1    2  502    0  0.36842670682E+02  0.61673726916E+01  0.24445685200E+03  0.24729450330E+03  0.00000000000E+00 0. -1.
         22    1    3    3    0    0 -0.34076835019E+01 -0.11907308469E+03  0.27688142191E+03  0.30141886736E+03  0.00000000000E+00 0.  1.
         22    1    3    3    0    0 -0.56468639333E+02 -0.19818493027E+02  0.42417539795E+02  0.73353442839E+02  0.00000000000E+00 0.  1.
</event>
<event>
 7    1  0.6443388E-006  0.4785737E+02  0.7818608E-02  0.1465635E+00
          2   -1    0    0  502    0  0.00000000000E+00  0.00000000000E+00  0.47176495495E+04  0.47176495495E+04  0.00000000000E+00 0. -1.
          1   -1    0    0  501    0 -0.00000000000E+00 -0.00000000000E+00 -0.11206666383E+03  0.11206666383E+03  0.00000000000E+00 0. -1.
         25    2    1    2    0    0  0.49694143085E+02 -0.11124975070E+02  0.30368361886E+04  0.30398341414E+04  0.12499719148E+03 0.  0.
          2    1    1    2  501    0 -0.33385273026E+02 -0.34289229053E+02 -0.10502507647E+03  0.11541487933E+03  0.00000000000E+00 0. -1.
          1    1    1    2  502    0 -0.16308870059E+02  0.45414204123E+02  0.16737717735E+04  0.16744671926E+04  0.00000000000E+00 0. -1.
         22    1    3    3    0    0  0.79566532877E+02 -0.16528486638E+02  0.12006583318E+04  0.12034053572E+04  0.00000000000E+00 0.  1.
         22    1    3    3    0    0 -0.29872389792E+02  0.54035115682E+01  0.18361778568E+04  0.18364287842E+04  0.00000000000E+00 0.  1.
</event>
<event>
 7    1  0.6443388E-006  0.6631256E+02  0.7818608E-02  0.1451520E+00
          2   -1    0    0  502    0  0.00000000000E+00  0.00000000000E+00  0.21537014120E+03  0.21537014120E+03  0.00000000000E+00 0. -1.
          1   -1    0    0  501    0 -0.00000000000E+00 -0.00000000000E+00 -0.28351247352E+03  0.28351247352E+03  0.00000000000E+00 0. -1.
         25    2    1    2    0    0 -0.41985447982E+02  0.29595869428E+02  0.14063000417E+02  0.13587196650E+03  0.12499891988E+03 0.  0.
          2    1    1    2  501    0 -0.27109893374E+02 -0.23715670668E+02 -0.21243614676E+03  0.21546808535E+03  0.00000000000E+00 0. -1.
          1    1    1    2  502    0  0.69095341356E+02 -0.58801987599E+01  0.13023081403E+03  0.14754256286E+03  0.00000000000E+00 0. -1.
         22    1    3    3    0    0 -0.50571388137E+02 -0.35912822362E+02 -0.14810302371E+02  0.63769437542E+02  0.00000000000E+00 0. -1.
         22    1    3    3    0    0  0.85859401547E+01  0.65508691790E+02  0.28873302788E+02  0.72102528959E+02  0.00000000000E+00 0. -1.
</event>
<event>
 7    1  0.6443388E-006  0.4682003E+02  0.7818608E-02  0.1478655E+00
          2   -1    0    0  502    0  0.00000000000E+00  0.00000000000E+00  0.99289331383E+03  0.99289331383E+03  0.00000000000E+00 0. -1.
          1   -1    0    0  501    0 -0.00000000000E+00 -0.00000000000E+00 -0.48378111426E+03  0.48378111426E+03  0.00000000000E+00 0. -1.
         25    2    1    2    0    0 -0.86408759433E+01  0.54531651302E+01 -0.30361418827E+03  0.32849747239E+03  0.12499844919E+03 0.  0.
          2    1    1    2  501    0 -0.34470609642E+02 -0.23901819618E+02 -0.16453163380E+03  0.16979451826E+03  0.00000000000E+00 0. -1.
          1    1    1    2  502    0  0.43111485585E+02  0.18448654488E+02  0.97725802163E+03  0.97838243744E+03  0.00000000000E+00 0. -1.
         22    1    3    3    0    0  0.16488426852E+02 -0.55558174518E+02 -0.16729379451E+03  0.17704743053E+03  0.00000000000E+00 0.  1.
         22    1    3    3    0    0 -0.25129302795E+02  0.61011339648E+02 -0.13632039376E+03  0.15145004186E+03  0.00000000000E+00 0.  1.
</event>
<event>
 7    1  0.6443388E-006  0.3096144E+02  0.7818608E-02  0.1593640E+00
          2   -1    0    0  502    0  0.00000000000E+00  0.00000000000E+00  0.67373587273E+03  0.67373587273E+03  0.00000000000E+00 0. -1.
          1   -1    0    0  501    0 -0.00000000000E+00 -0.00000000000E+00 -0.16820997434E+03  0.16820997434E+03  0.00000000000E+00 0. -1.
         25    2    1    2    0    0  0.48636426896E+01  0.31752229223E+02  0.32207569735E+02  0.13300352649E+03  0.12498300457E+03 0.  0.
          2    1    1    2  501    0  0.23311587460E+02 -0.18661815102E+02 -0.11550368238E+03  0.11930127450E+03  0.00000000000E+00 0. -1.
          1    1    1    2  502    0 -0.28175230149E+02 -0.13090414120E+02  0.58882201104E+03  0.58964104608E+03  0.00000000000E+00 0. -1.
         22    1    3    3    0    0 -0.54002074041E+02  0.35064070581E+02  0.36278614240E+02  0.73904336122E+02  0.00000000000E+00 0. -1.
         22    1    3    3    0    0  0.58865716731E+02 -0.33118413582E+01 -0.40710445050E+01  0.59099190373E+02  0.00000000000E+00 0. -1.
</event>
<event>
 7    1  0.6443388E-006  0.9451787E+02  0.7818608E-02  0.1348210E+00
          2   -1    0    0  502    0  0.00000000000E+00  0.00000000000E+00  0.26605651899E+03  0.26605651899E+03  0.00000000000E+00 0. -1.
          1   -1    0    0  501    0 -0.00000000000E+00 -0.00000000000E+00 -0.15364209178E+03  0.15364209178E+03  0.00000000000E+00 0. -1.
         25    2    1    2    0    0  0.25252161232E+02 -0.53548974481E+02  0.18688792970E+02  0.13956547794E+03  0.12499634928E+03 0.  0.
          2    1    1    2  501    0 -0.15636764734E+02  0.11007398777E+03 -0.52585828057E+02  0.12298805026E+03  0.00000000000E+00 0. -1.
          1    1    1    2  502    0 -0.96153964985E+01 -0.56525013292E+02  0.14631146230E+03  0.15714508257E+03  0.00000000000E+00 0. -1.
         22    1    3    3    0    0 -0.65905659040E+00 -0.65579105394E+01 -0.51104449162E+02  0.51527713615E+02  0.00000000000E+00 0.  1.
         22    1    3    3    0    0  0.25911217822E+02 -0.46991063941E+02  0.69793242132E+02  0.88037764321E+02  0.00000000000E+00 0.  1.
</event>
<event>
 7    1  0.6443388E-006  0.8519396E+02  0.7818608E-02  0.1334094E+00
          2   -1    0    0  502    0  0.00000000000E+00  0.00000000000E+00  0.24034654741E+04  0.24034654741E+04  0.00000000000E+00 0. -1.
          1   -1    0    0  501    0 -0.00000000000E+00 -0.00000000000E+00 -0.53065032480E+03  0.53065032480E+03  0.00000000000E+00 0. -1.
         25    2    1    2    0    0 -0.64597492807E+02  0.36844835635E+02  0.17071087890E+04  0.17132944200E+04  0.12500789638E+03 0.  0.
          2    1    1    2  501    0 -0.14023861679E+02 -0.84031793250E+02 -0.52105087301E+03  0.52796971810E+03  0.00000000000E+00 0. -1.
          1    1    1    2  502    0  0.78621354485E+02  0.47186957616E+02  0.68675723334E+03  0.69285166081E+03  0.00000000000E+00 0. -1.
         22    1    3    3    0    0  0.30980747486E+02 -0.15967948153E+02  0.31947256052E+03  0.32136816738E+03  0.00000000000E+00 0.  1.
         22    1    3    3    0    0 -0.95578240293E+02  0.52812783788E+02  0.13876362284E+04  0.13919262526E+04  0.00000000000E+00 0.  1.
</event>
<event>
 7    1  0.6443388E-006  0.5621393E+02  0.7818608E-02  0.1532939E+00
          2   -1    0    0  502    0  0.00000000000E+00  0.00000000000E+00  0.88428217555E+03  0.88428217555E+03  0.00000000000E+00 0. -1.
          1   -1    0    0  501    0 -0.00000000000E+00 -0.00000000000E+00 -0.99546947283E+02  0.99546947283E+02  0.00000000000E+00 0. -1.
         25    2    1    2    0    0 -0.62396609822E+02  0.19911308727E+02  0.10155896502E+03  0.17387301938E+03  0.12501122494E+03 0.  0.
          2    1    1    2  501    0  0.18711348400E+02  0.15233079951E+02 -0.59999106533E+02  0.64668802900E+02  0.00000000000E+00 0. -1.
          1    1    1    2  502    0  0.43685261422E+02 -0.35144388678E+02  0.74317536978E+03  0.74528730055E+03  0.00000000000E+00 0. -1.
         22    1    3    3    0    0 -0.35540684709E+02 -0.40388354385E+02  0.12754177668E+01  0.53814367319E+02  0.00000000000E+00 0. -1.
         22    1    3    3    0    0 -0.26855925113E+02  0.60299663111E+02  0.10028354726E+03  0.12005865206E+03  0.00000000000E+00 0. -1.
</event>
<event>
 7    1  0.6443388E-006  0.1251374E+03  0.7818608E-02  0.1278038E+00
          2   -1    0    0  502    0  0.00000000000E+00  0.00000000000E+00  0.74558188856E+03  0.74558188856E+03  0.00000000000E+00 0. -1.
          1   -1    0    0  501    0 -0.00000000000E+00 -0.00000000000E+00 -0.54182888633E+03  0.54182888633E+03  0.00000000000E+00 0. -1.
         25    2    1    2    0    0 -0.84440082190E+02 -0.28618933705E+01 -0.21917559100E+03  0.26608520450E+03  0.12500031380E+03 0.  0.
          2    1    1    2  501    0  0.16382670102E+03  0.21954159156E+02 -0.27380249893E+03  0.31982648654E+03  0.00000000000E+00 0. -1.
          1    1    1    2  502    0 -0.79386618826E+02 -0.19092265786E+02  0.69673109216E+03  0.70149908385E+03  0.00000000000E+00 0. -1.
         22    1    3    3    0    0 -0.74104835495E+02  0.49454090977E+02 -0.91443076758E+02  0.12766781131E+03  0.00000000000E+00 0.  1.
         22    1    3    3    0    0 -0.10335246695E+02 -0.52315984347E+02 -0.12773251424E+03  0.13841739319E+03  0.00000000000E+00 0.  1.
</event>
<event>
 7    1  0.6443388E-006  0.8460286E+02  0.7818608E-02  0.1398515E+00
          2   -1    0    0  502    0  0.00000000000E+00  0.00000000000E+00  0.39173706525E+03  0.39173706525E+03  0.00000000000E+00 0. -1.
          1   -1    0    0  501    0 -0.00000000000E+00 -0.00000000000E+00 -0.50460215897E+03  0.50460215897E+03  0.00000000000E+00 0. -1.
         25    2    1    2    0    0  0.79350499639E+02  0.19326255859E+02  0.77177012661E+02  0.16808222918E+03  0.12500135410E+03 0.  0.
          2    1    1    2  501    0 -0.15804748492E+02  0.39259785641E+02 -0.45119369089E+03  0.45317421324E+03  0.00000000000E+00 0. -1.
          1    1    1    2  502    0 -0.63545751147E+02 -0.58586041501E+02  0.26115158451E+03  0.27508278179E+03  0.00000000000E+00 0. -1.
         22    1    3    3    0    0  0.46027684887E+02  0.47309546818E+02 -0.13620485680E+02  0.67396280508E+02  0.00000000000E+00 0. -1.
         22    1    3    3    0    0  0.33322814752E+02 -0.27983290959E+02  0.90797498341E+02  0.10068594868E+03  0.00000000000E+00 0. -1.
</event>
<event>
 7    1  0.6443388E-006  0.5100750E+02  0.7818608E-02  0.1522350E+00
          2   -1    0    0  502    0  0.00000000000E+00  0.00000000000E+00  0.34174359362E+03  0.34174359362E+03  0.00000000000E+00 0. -1.
          1   -1    0    0  501    0 -0.00000000000E+00 -0.00000000000E+00 -0.20866218752E+03  0.20866218752E+03  0.00000000000E+00 0. -1.
         25    2    1    2    0    0 -0.47234189473E+02 -0.58106498187E+02  0.22705955020E+03  0.26979307370E+03  0.12499931797E+03 0.  0.
          2    1    1    2  501    0  0.21432825854E+02  0.45952033680E+02 -0.18155826890E+03  0.18850559787E+03  0.00000000000E+00 0. -1.
          1    1    1    2  502    0  0.25801363619E+02  0.12154464507E+02  0.87580124801E+02  0.92107109564E+02  0.00000000000E+00 0. -1.
         22    1    3    3    0    0 -0.44968922008E+02 -0.46466603076E+02  0.24213045019E+03  0.25061624859E+03  0.00000000000E+00 0.  1.
         22    1    3    3    0    0 -0.22652674650E+01 -0.11639895111E+02 -0.15070899988E+02  0.19176825111E+02  0.00000000000E+00 0.  1.
</event>
<event>
 7    1  0.6443388E-006  0.4299986E+02  0.7818608E-02  0.1573243E+00
          2   -1    0    0  502    0  0.00000000000E+00  0.00000000000E+00  0.35542944043E+02  0.35542944043E+02  0.00000000000E+00 0. -1.
          1   -1    0    0  501    0 -0.00000000000E+00 -0.00000000000E+00 -0.22592473162E+04  0.22592473162E+04  0.00000000000E+00 0. -1.
         25    2    1    2    0    0 -0.13717567140E+02 -0.28010769080E+02 -0.10400279858E+04  0.10479774556E+04  0.12500304601E+03 0.  0.
          2    1    1    2  501    0  0.19314113518E+02 -0.14866767327E+02 -0.12002549563E+04  0.12005024015E+04  0.00000000000E+00 0. -1.
          1    1    1    2  502    0 -0.55965463780E+01  0.42877536407E+02  0.16578569917E+02  0.46310403153E+02  0.00000000000E+00 0. -1.
         22    1    3    3    0    0 -0.14927014024E+02  0.15290521411E+01 -0.98817025189E+03  0.98828416990E+03  0.00000000000E+00 0.  1.
         22    1    3    3    0    0  0.12094468849E+01 -0.29539821221E+02 -0.51857733870E+02  0.59693285733E+02  0.00000000000E+00 0.  1.
</event>
<event>
 7    1  0.6443388E-006  0.1549290E+03  0.7818608E-02  0.1254955E+00
          2   -1    0    0  502    0  0.00000000000E+00  0.00000000000E+00  0.10863990653E+04  0.10863990653E+04  0.00000000000E+00 0. -1.
          1   -1    0    0  501    0 -0.00000000000E+00 -0.00000000000E+00 -0.15679533336E+04  0.15679533336E+04  0.00000000000E+00 0. -1.
         25    2    1    2    0    0 -0.16433973850E+03  0.38639085683E+02  0.11790758403E+03  0.24088592855E+03  0.12499321425E+03 0.  0.
          2    1    1    2  501    0  0.14914819144E+03  0.42498243624E+02 -0.15005813194E+04  0.15085740220E+04  0.00000000000E+00 0. -1.
          1    1    1    2  502    0  0.15191547058E+02 -0.81137329308E+02  0.90111946698E+03  0.90489244835E+03  0.00000000000E+00 0. -1.
         22    1    3    3    0    0 -0.87232542159E+02  0.96266890201E+01  0.13078377714E+03  0.15750106639E+03  0.00000000000E+00 0.  1.
         22    1    3    3    0    0 -0.77107196339E+02  0.29012396663E+02 -0.12876193106E+02  0.83384862153E+02  0.00000000000E+00 0.  1.
</event>
<event>
 7    1  0.6443388E-006  0.1971848E+03  0.7818608E-02  0.1177039E+00
          2   -1    0    0  502    0  0.00000000000E+00  0.00000000000E+00  0.10932439031E+03  0.10932439031E+03  0.00000000000E+00 0. -1.
          1   -1    0    0  501    0 -0.00000000000E+00 -0.00000000000E+00 -0.11244100983E+04  0.11244100983E+04  0.00000000000E+00 0. -1.
         25    2    1    2    0    0 -0.21800316752E+03  0.87236128002E+02 -0.76583647939E+03  0.81071973269E+03  0.12500179492E+03 0.  0.
          2    1    1    2  501    0  0.83743930204E+02 -0.14929213339E+03 -0.20816708338E+03  0.26950829586E+03  0.00000000000E+00 0. -1.
          1    1    1    2  502    0  0.13425923732E+03  0.62056005386E+02 -0.41082145180E+02  0.15350646000E+03  0.00000000000E+00 0. -1.
         22    1    3    3    0    0 -0.20032194620E+03  0.76706352142E+02 -0.49977754902E+03  0.54386610952E+03  0.00000000000E+00 0. -1.
         22    1    3    3    0    0 -0.17681221326E+02  0.10529775859E+02 -0.26605893037E+03  0.26685362317E+03  0.00000000000E+00 0. -1.
</event>
<event>
 7    1  0.6443388E-006  0.1846020E+03  0.7818608E-02  0.1246907E+00
          2   -1    0    0  502    0  0.00000000000E+00  0.00000000000E+00  0.30881696854E+03  0.30881696854E+03  0.00000000000E+00 0. -1.
          1   -1    0    0  501    0 -0.00000000000E+00 -0.00000000000E+00 -0.56016438114E+03  0.56016438114E+03  0.00000000000E+00 0. -1.
         25    2    1    2    0    0  0.11466299859E+03 -0.21563155417E+03 -0.37582551812E+02  0.27692568282E+03  0.12502325864E+03 0.  0.
          2    1    1    2  501    0 -0.42752080086E+02  0.61705836199E+02 -0.36009141406E+03  0.36783308314E+03  0.00000000000E+00 0. -1.
          1    1    1    2  502    0 -0.71910918508E+02  0.15392571797E+03  0.14632655328E+03  0.22422258372E+03  0.00000000000E+00 0. -1.
         22    1    3    3    0    0  0.17839915509E+02 -0.81074315038E+02 -0.69310622407E+02  0.10814466941E+03  0.00000000000E+00 0. -1.
         22    1    3    3    0    0  0.96823083085E+02 -0.13455723913E+03  0.31728070595E+02  0.16878101340E+03  0.00000000000E+00 0. -1.
</event>
<event>
 7    1  0.6443388E-006  0.1161345E+03  0.7818608E-02  0.1301634E+00
          2   -1    0    0  502    0  0.00000000000E+00  0.00000000000E+00  0.13522572255E+04  0.13522572255E+04  0.00000000000E+00 0. -1.
          1   -1    0    0  501    0 -0.00000000000E+00 -0.00000000000E+00 -0.18146649983E+03  0.18146649983E+03  0.00000000000E+00 0. -1.
         25    2    1    2    0    0  0.82753216628E+02  0.14195842906E+03  0.10206306630E+03  0.23030882951E+03  0.12499998802E+03 0.  0.
          2    1    1    2  501    0  0.64789124755E+01 -0.70232778081E+02 -0.10369905711E+03  0.12541177724E+03  0.00000000000E+00 0. -1.
          1    1    1    2  502    0 -0.89232129103E+02 -0.71725650977E+02  0.11724267165E+04  0.11780031186E+04  0.00000000000E+00 0. -1.
         22    1    3    3    0    0  0.93055214893E+02  0.47335457887E+02  0.82672742114E+02  0.13317169700E+03  0.00000000000E+00 0.  1.
         22    1    3    3    0    0 -0.10301998265E+02  0.94622971170E+02  0.19390324183E+02  0.97137132515E+02  0.00000000000E+00 0.  1.
</event>
<event>
 7    1  0.6443388E-006  0.5348325E+02  0.7818608E-02  0.1484926E+00
          2   -1    0    0  502    0  0.00000000000E+00  0.00000000000E+00  0.59783364120E+02  0.59783364120E+02  0.00000000000E+00 0. -1.
          1   -1    0    0  501    0 -0.00000000000E+00 -0.00000000000E+00 -0.20853312089E+04  0.20853312089E+04  0.00000000000E+00 0. -1.
         25    2    1    2    0    0  0.69871421576E+02  0.39482601391E+01 -0.33180023857E+03  0.36140350621E+03  0.12499396655E+03 0.  0.
          2    1    1    2  501    0 -0.44898557274E+02 -0.28660818355E+02 -0.17313963942E+04  0.17322155745E+04  0.00000000000E+00 0. -1.
          1    1    1    2  502    0 -0.24972864302E+02  0.24712558215E+02  0.37648787983E+02  0.51495492245E+02  0.00000000000E+00 0. -1.
         22    1    3    3    0    0  0.17617519082E+02  0.25593237482E+02 -0.28851033500E+03  0.29017857293E+03  0.00000000000E+00 0. -1.
         22    1    3    3    0    0  0.52253902494E+02 -0.21644977343E+02 -0.43289903573E+02  0.71224933284E+02  0.00000000000E+00 0. -1.
</event>
<event>
 7    1  0.6443388E-006  0.5458944E+02  0.7818608E-02  0.1435778E+00
          2   -1    0    0  502    0  0.00000000000E+00  0.00000000000E+00  0.89595665473E+03  0.89595665473E+03  0.00000000000E+00 0. -1.
          1   -1    0    0  501    0 -0.00000000000E+00 -0.00000000000E+00 -0.60898498915E+02  0.60898498915E+02  0.00000000000E+00 0. -1.
         25    2    1    2    0    0  0.27524811072E+02 -0.14920069611E+02  0.55243158145E+03  0.56726195956E+03  0.12500101954E+03 0.  0.
          2    1    1    2  501    0 -0.27389603941E+02 -0.47220929712E+02 -0.35720589390E+02  0.65237773669E+02  0.00000000000E+00 0. -1.
          1    1    1    2  502    0 -0.13520713181E+00  0.62140999322E+02  0.31834716376E+03  0.32435542042E+03  0.00000000000E+00 0. -1.
         22    1    3    3    0    0  0.62370732649E+02 -0.11314644858E+02  0.14404561435E+03  0.15737620053E+03  0.00000000000E+00 0.  1.
         22    1    3    3    0    0 -0.34845921576E+02 -0.36054247531E+01  0.40838596710E+03  0.40988575904E+03  0.00000000000E+00 0.  1.
</event>
<event>
 7    1  0.6443388E-006  0.1061758E+03  0.7818608E-02  0.1381659E+00
          2   -1    0    0  502    0  0.00000000000E+00  0.00000000000E+00  0.43413551695E+03  0.43413551695E+03  0.00000000000E+00 0. -1.
          1   -1    0    0  501    0 -0.00000000000E+00 -0.00000000000E+00 -0.18073362634E+04  0.18073362634E+04  0.00000000000E+00 0. -1.
         25    2    1    2    0    0 -0.40875308714E+02  0.12099395758E+03 -0.27413908522E+02  0.18079576390E+03  0.12500102892E+03 0.  0.
          2    1    1    2  501    0  0.59767622320E+02 -0.87317908829E+02 -0.17005393471E+04  0.17038282358E+04  0.00000000000E+00 0. -1.
          1    1    1    2  502    0 -0.18892313607E+02 -0.33676048746E+02  0.35475250921E+03  0.35684778066E+03  0.00000000000E+00 0. -1.
         22    1    3    3    0    0 -0.10700166956E+02  0.14131627269E+03 -0.27758509534E+02  0.14441370209E+03  0.00000000000E+00 0. -1.
         22    1    3    3    0    0 -0.30175141757E+02 -0.20322315111E+02  0.34460101194E+00  0.36382061808E+02  0.00000000000E+00 0. -1.
</event>
<event>
 7    1  0.6443388E-006  0.1695118E+03  0.7818608E-02  0.1208487E+00
          2   -1    0    0  502    0  0.00000000000E+00  0.00000000000E+00  0.38494539858E+03  0.38494539858E+03  0.00000000000E+00 0. -1.
          1   -1    0    0  501    0 -0.00000000000E+00 -0.00000000000E+00 -0.20958575462E+03  0.20958575462E+03  0.00000000000E+00 0. -1.
         25    2    1    2    0    0 -0.74595528979E+02 -0.89410535805E+02  0.10025018002E+03  0.19807481343E+03  0.12499918506E+03 0.  0.
          2    1    1    2  501    0  0.19339269052E+03  0.62755366557E+02 -0.62508794559E+02  0.21271181955E+03  0.00000000000E+00 0. -1.
          1    1    1    2  502    0 -0.11879716154E+03  0.26655169249E+02  0.13761825850E+03  0.18374452022E+03  0.00000000000E+00 0. -1.
         22    1    3    3    0    0 -0.33168412511E+02 -0.20570907863E+02 -0.27088180378E+02  0.47508687153E+02  0.00000000000E+00 0. -1.
         22    1    3    3    0    0 -0.41427116468E+02 -0.68839627942E+02  0.12733836040E+03  0.15056612628E+03  0.00000000000E+00 0. -1.
</event>
<event>
 7    1  0.6443388E-006  0.9332128E+02  0.7818608E-02  0.1447861E+00
          2   -1    0    0  502    0  0.00000000000E+00  0.00000000000E+00  0.60091346535E+03  0.60091346535E+03  0.00000000000E+00 0. -1.
          1   -1    0    0  501    0 -0.00000000000E+00 -0.00000000000E+00 -0.13946473010E+03  0.13946473010E+03  0.00000000000E+00 0. -1.
         25    2    1    2    0    0 -0.22446931824E+02 -0.11319431304E+03  0.38382347650E+03  0.41983313276E+03  0.12499032360E+03 0.  0.
          2    1    1    2  501    0  0.28975445709E+02  0.87723524668E+02 -0.10280051373E+03  0.13821338161E+03  0.00000000000E+00 0. -1.
          1    1    1    2  502    0 -0.65285138849E+01  0.25470788370E+02  0.18042577247E+03  0.18233168108E+03  0.00000000000E+00 0. -1.
         22    1    3    3    0    0  0.48544927704E+02 -0.46949378870E+02  0.10757457765E+03  0.12701631367E+03  0.00000000000E+00 0. -1.
         22    1    3    3    0    0 -0.70991859529E+02 -0.66244934169E+02  0.27624889886E+03  0.29281681909E+03  0.00000000000E+00 0. -1.
</event>
<event>
 7    1  0.6443388E-006  0.2780900E+03  0.7818608E-02  0.1203420E+00
          2   -1    0    0  502    0  0.00000000000E+00  0.00000000000E+00  0.68256947495E+03  0.68256947495E+03  0.00000000000E+00 0. -1.
          1   -1    0    0  501    0 -0.00000000000E+00 -0.00000000000E+00 -0.13427912798E+04  0.13427912798E+04  0.00000000000E+00 0. -1.
         25    2    1    2    0    0 -0.31307486507E+02  0.34695004192E+03  0.10312307676E+03  0.38420588934E+03  0.12500122457E+03 0.  0.
          2    1    1    2  501    0  0.36541771947E+01 -0.27362207608E+03 -0.11830040594E+04  0.12142409143E+04  0.00000000000E+00 0. -1.
          1    1    1    2  502    0  0.27653309313E+02 -0.73327965842E+02  0.41965917780E+03  0.42691395105E+03  0.00000000000E+00 0. -1.
         22    1    3    3    0    0 -0.94875322727E+01  0.33136349257E+03  0.11996723791E+03  0.35253923987E+03  0.00000000000E+00 0. -1.
         22    1    3    3    0    0 -0.21819954235E+02  0.15586549349E+02 -0.16844161158E+02  0.31666649468E+02  0.00000000000E+00 0. -1.
</event>
<event>
 7    1  0.6443388E-006  0.7733187E+02  0.7818608E-02  0.1414541E+00
          2   -1    0    0  502    0  0.00000000000E+00  0.00000000000E+00  0.22085964522E+04  0.22085964522E+04  0.00000000000E+00 0. -1.
          1   -1    0    0  501    0 -0.00000000000E+00 -0.00000000000E+00 -0.18138358417E+04  0.18138358417E+04  0.00000000000E+00 0. -1.
         25    2    1    2    0    0  0.85970374986E+02 -0.40788709196E+02 -0.76474087953E+02  0.17471875082E+03  0.12499492624E+03 0.  0.
          2    1    1    2  501    0 -0.86940917386E+01  0.39895945263E+02 -0.16873009260E+04  0.16877949190E+04  0.00000000000E+00 0. -1.
          1    1    1    2  502    0 -0.77276283247E+02  0.89276393236E+00  0.21585356244E+04  0.21599186241E+04  0.00000000000E+00 0. -1.
         22    1    3    3    0    0 -0.44179025357E+01  0.14325809677E+02  0.24303439657E+02  0.28555277356E+02  0.00000000000E+00 0.  1.
         22    1    3    3    0    0  0.90388277521E+02 -0.55114518872E+02 -0.10077752761E+03  0.14616347346E+03  0.00000000000E+00 0.  1.
</event>
<event>
 7    1  0.6443388E-006  0.1282983E+03  0.7818608E-02  0.1319655E+00
          2   -1    0    0  502    0  0.00000000000E+00  0.00000000000E+00  0.12266962763E+04  0.12266962763E+04  0.00000000000E+00 0. -1.
          1   -1    0    0  501    0 -0.00000000000E+00 -0.00000000000E+00 -0.17669103071E+04  0.17669103071E+04  0.00000000000E+00 0. -1.
         25    2    1    2    0    0  0.20702765008E+02  0.83934524193E+02 -0.44252840964E+02  0.15829253546E+03  0.12499841607E+03 0.  0.
          2    1    1    2  501    0 -0.29147179811E+02  0.45721295176E+02 -0.16615857742E+04  0.16624702343E+04  0.00000000000E+00 0. -1.
          1    1    1    2  502    0  0.84444148029E+01 -0.12965581937E+03  0.11656245844E+04  0.11728438137E+04  0.00000000000E+00 0. -1.
         22    1    3    3    0    0 -0.19018932485E+02  0.73115770998E+02  0.23407181936E+02  0.79091920748E+02  0.00000000000E+00 0.  1.
         22    1    3    3    0    0  0.39721697493E+02  0.10818753195E+02 -0.67660022900E+02  0.79200614715E+02  0.00000000000E+00 0.  1.
</event>
<event>
 7    1  0.6443388E-006  0.1049727E+03  0.7818608E-02  0.1326999E+00
          2   -1    0    0  502    0  0.00000000000E+00  0.00000000000E+00  0.24092372747E+03  0.24092372747E+03  0.00000000000E+00 0. -1.
          1   -1    0    0  501    0 -0.00000000000E+00 -0.00000000000E+00 -0.20873198481E+03  0.20873198481E+03  0.00000000000E+00 0. -1.
         25    2    1    2    0    0  0.69795672561E+02 -0.24371868823E+02  0.79451942884E+01  0.14543946673E+03  0.12499635383E+03 0.  0.
          2    1    1    2  501    0  0.10214365766E+02 -0.61236171374E+02 -0.10982390847E+03  0.12615662022E+03  0.00000000000E+00 0. -1.
          1    1    1    2  502    0 -0.80010038326E+02  0.85608040197E+02  0.13407045684E+03  0.17805962534E+03  0.00000000000E+00 0. -1.
         22    1    3    3    0    0  0.49856117629E+02  0.29251790292E+02  0.48382795274E+02  0.75380332838E+02  0.00000000000E+00 0.  1.
         22    1    3    3    0    0  0.19939554932E+02 -0.53623659115E+02 -0.40437600985E+02  0.70059133889E+02  0.00000000000E+00 0.  1.
</event>
<event>
 7    1  0.6443388E-006  0.6152004E+02  0.7818608E-02  0.1438230E+00
          2   -1    0    0  502    0  0.00000000000E+00  0.00000000000E+00  0.34358212253E+03  0.34358212253E+03  0.00000000000E+00 0. -1.
          1   -1    0    0  501    0 -0.00000000000E+00 -0.00000000000E+00 -0.51179748257E+03  0.51179748257E+03  0.00000000000E+00 0. -1.
         25    2    1    2    0    0 -0.56315328356E+02 -0.47419754304E+01  0.11413027095E+03  0.17844866468E+03  0.12499721852E+03 0.  0.
          2    1    1    2  501    0  0.11378565807E+02 -0.41310851619E+02 -0.47339855447E+03  0.47533382964E+03  0.00000000000E+00 0. -1.
          1    1    1    2  502    0  0.44936762549E+02  0.46052827049E+02  0.19105292347E+03  0.20159711078E+03  0.00000000000E+00 0. -1.
         22    1    3    3    0    0  0.29670034845E+02 -0.34887566852E+02  0.43480384782E+02  0.63150591045E+02  0.00000000000E+00 0.  1.
         22    1    3    3    0    0 -0.85985363201E+02  0.30145591421E+02  0.70649886172E+02  0.11529807363E+03  0.00000000000E+00 0.  1.
</event>
<event>
 7    1  0.6443388E-006  0.1556679E+03  0.7818608E-02  0.1296344E+00
          2   -1    0    0  502    0  0.00000000000E+00  0.00000000000E+00  0.15673906396E+03  0.15673906396E+03  0.00000000000E+00 0. -1.
          1   -1    0    0  501    0 -0.00000000000E+00 -0.00000000000E+00 -0.20877179840E+04  0.20877179840E+04  0.00000000000E+00 0. -1.
         25    2    1    2    0    0  0.17899775846E+03  0.94365349394E+02 -0.55705761178E+03  0.60570849393E+03  0.12499832029E+03 0.  0.
          2    1    1    2  501    0 -0.12590560369E+03 -0.79065737463E+02 -0.14967232298E+04  0.15040891059E+04  0.00000000000E+00 0. -1.
          1    1    1    2  502    0 -0.53092154768E+02 -0.15299611930E+02  0.12280192156E+03  0.13465944810E+03  0.00000000000E+00 0. -1.
         22    1    3    3    0    0  0.28201406863E+02 -0.30577256095E+02 -0.11183596346E+03  0.11932129174E+03  0.00000000000E+00 0. -1.
         22    1    3    3    0    0  0.15079635160E+03  0.12494260549E+03 -0.44522164832E+03  0.48638720219E+03  0.00000000000E+00 0. -1.
</event>
<event>
 7    1  0.6443388E-006  0.8580412E+02  0.7818608E-02  0.1481937E+00
          2   -1    0    0  502    0  0.00000000000E+00  0.00000000000E+00  0.18498436933E+04  0.18498436933E+04  0.00000000000E+00 0. -1.
          1   -1    0    0  501    0 -0.00000000000E+00 -0.00000000000E+00 -0.35104992881E+02  0.35104992881E+02  0.00000000000E+00 0. -1.
         25    2    1    2    0    0  0.96431614965E+02 -0.91602097503E+01  0.49092099532E+03  0.51576415064E+03  0.12500507840E+03 0.  0.
          2    1    1    2  501    0 -0.80574904747E+02  0.24931434055E+02  0.56161731355E+02  0.10133129698E+03  0.00000000000E+00 0. -1.
          1    1    1    2  502    0 -0.15856710217E+02 -0.15771224305E+02  0.12676559738E+04  0.12678532386E+04  0.00000000000E+00 0. -1.
         22    1    3    3    0    0  0.20066513538E+02  0.52890318057E+02  0.13223920921E+03  0.14383066142E+03  0.00000000000E+00 0.  1.
         22    1    3    3    0    0  0.76365101427E+02 -0.62050527807E+02  0.35868178611E+03  0.37193348922E+03  0.00000000000E+00 0.  1.
</event>
<event>
 7    1  0.6443388E-006  0.1972526E+03  0.7818608E-02  0.1225247E+00
          2   -1    0    0  502    0  0.00000000000E+00  0.00000000000E+00  0.46303332831E+03  0.46303332831E+03  0.00000000000E+00 0. -1.
          1   -1    0    0  501    0 -0.00000000000E+00 -0.00000000000E+00 -0.19708228828E+04  0.19708228828E+04  0.00000000000E+00 0. -1.
         25    2    1    2    0    0 -0.15617364407E+03  0.19323828314E+03  0.36025847462E+02  0.28045382001E+03  0.12500096919E+03 0.  0.
          2    1    1    2  501    0  0.17520550491E+01 -0.87647446676E+02 -0.18187491270E+04  0.18208606568E+04  0.00000000000E+00 0. -1.
          1    1    1    2  502    0  0.15442158902E+03 -0.10559083647E+03  0.27493372502E+03  0.33254173430E+03  0.00000000000E+00 0. -1.
         22    1    3    3    0    0 -0.11449224347E+03  0.19598640552E+03  0.56543176270E+02  0.23391510371E+03  0.00000000000E+00 0. -1.
         22    1    3    3    0    0 -0.41681400607E+02 -0.27481223762E+01 -0.20517328809E+02  0.46538716298E+02  0.00000000000E+00 0. -1.
</event>
<event>
 7    1  0.6443388E-006  0.1600262E+03  0.7818608E-02  0.1367862E+00
          2   -1    0    0  502    0  0.00000000000E+00  0.00000000000E+00  0.62630321707E+03  0.62630321707E+03  0.00000000000E+00 0. -1.
          1   -1    0    0  501    0 -0.00000000000E+00 -0.00000000000E+00 -0.20398121564E+04  0.20398121564E+04  0.00000000000E+00 0. -1.
         25    2    1    2    0    0 -0.17756801835E+02 -0.13543362638E+03 -0.40116747006E+01  0.18520025774E+03  0.12500188305E+03 0.  0.
          2    1    1    2  501    0  0.83855563561E+01 -0.27443465902E+02 -0.19326759252E+04  0.19328889500E+04  0.00000000000E+00 0. -1.
          1    1    1    2  502    0  0.93712454793E+01  0.16287709228E+03  0.52317866056E+03  0.54802616570E+03  0.00000000000E+00 0. -1.
         22    1    3    3    0    0 -0.50398152495E+02 -0.63867013919E+01  0.84807148048E+01  0.51504235294E+02  0.00000000000E+00 0.  1.
         22    1    3    3    0    0  0.32641350660E+02 -0.12904692499E+03 -0.12492389505E+02  0.13369602245E+03  0.00000000000E+00 0.  1.
</event>
<event>
 7    1  0.6443388E-006  0.9329854E+02  0.7818608E-02  0.1311475E+00
          2   -1    0    0  502    0  0.00000000000E+00  0.00000000000E+00  0.29239351736E+03  0.29239351736E+03  0.00000000000E+00 0. -1.
          1   -1    0    0  501    0 -0.00000000000E+00 -0.00000000000E+00 -0.18432398245E+03  0.18432398245E+03  0.00000000000E+00 0. -1.
         25    2    1    2    0    0  0.32919278724E+02 -0.21912649681E+02 -0.93541465125E+01  0.13144578594E+03  0.12500660566E+03 0.  0.
          2    1    1    2  501    0  0.70406392725E+01  0.10622055318E+03 -0.75813151632E+02  0.13069051412E+03  0.00000000000E+00 0. -1.
          1    1    1    2  502    0 -0.39959917996E+02 -0.84307903500E+02  0.19323683305E+03  0.21458119975E+03  0.00000000000E+00 0. -1.
         22    1    3    3    0    0  0.72100151017E+02  0.18782097783E+02 -0.25881802655E+01  0.74551308847E+02  0.00000000000E+00 0.  1.
         22    1    3    3    0    0 -0.39180872293E+02 -0.40694747464E+02 -0.67659662470E+01  0.56894477096E+02  0.00000000000E+00 0.  1.
</event>
<event>
 7    1  0.6443388E-006  0.4213499E+02  0.7818608E-02  0.1495576E+00
          2   -1    0    0  502    0  0.00000000000E+00  0.00000000000E+00  0.64262511667E+03  0.64262511667E+03  0.00000000000E+00 0. -1.
          1   -1    0    0  501    0 -0.00000000000E+00 -0.00000000000E+00 -0.84445271971E+02  0.84445271971E+02  0.00000000000E+00 0. -1.
         25    2    1    2    0    0 -0.48534550329E+02  0.16756071110E+02  0.30819774782E+03  0.33652162648E+03  0.12499833934E+03 0.  0.
          2    1    1    2  501    0  0.33968998674E+02  0.23680225655E+02 -0.62583372026E+02  0.75042150903E+02  0.00000000000E+00 0. -1.
          1    1    1    2  502    0  0.14565551655E+02 -0.40436296765E+02  0.31256546891E+03  0.31550661125E+03  0.00000000000E+00 0. -1.
         22    1    3    3    0    0 -0.90335404936E+02  0.83888242547E+01  0.23365140536E+03  0.25064683718E+03  0.00000000000E+00 0. -1.
         22    1    3    3    0    0  0.41800854607E+02  0.83672468553E+01  0.74546342451E+02  0.85874789307E+02  0.00000000000E+00 0. -1.
</event>
<event>
 7    1  0.6443388E-006  0.1703779E+03  0.7818608E-02  0.1194058E+00
          2   -1    0    0  502    0  0.00000000000E+00  0.00000000000E+00  0.12221771589E+04  0.12221771589E+04  0.00000000000E+00 0. -1.
          1   -1    0    0  501    0 -0.00000000000E+00 -0.00000000000E+00 -0.10463743108E+04  0.10463743108E+04  0.00000000000E+00 0. -1.
         25    2    1    2    0    0 -0.27237453128E+02  0.44781382526E+02  0.62632047115E+02  0.14931187228E+03  0.12499604315E+03 0.  0.
          2    1    1    2  501    0 -0.49583626054E+02  0.13267112681E+03 -0.98957968692E+03  0.99966400387E+03  0.00000000000E+00 0. -1.
          1    1    1    2  502    0  0.76821079182E+02 -0.17745250933E+03  0.11027504879E+04  0.11195755936E+04  0.00000000000E+00 0. -1.
         22    1    3    3    0    0 -0.31167257274E+02  0.86754696673E+02  0.33558253863E+02  0.98101639757E+02  0.00000000000E+00 0.  1.
         22    1    3    3    0    0  0.39298041452E+01 -0.41973314146E+02  0.29073793252E+02  0.51210232524E+02  0.00000000000E+00 0.  1.
</event>
<event>
 7    1  0.6443388E-006  0.8543579E+02  0.7818608E-02  0.1411271E+00
          2   -1    0    0  502    0  0.00000000000E+00  0.00000000000E+00  0.12624080222E+04  0.12624080222E+04  0.00000000000E+00 0. -1.
          1   -1    0    0  501    0 -0.00000000000E+00 -0.00000000000E+00 -0.63039104163E+03  0.63039104163E+03  0.00000000000E+00 0. -1.
         25    2    1    2    0    0  0.56800514400E+02  0.39921372725E+02  0.61613762596E+01  0.14312163219E+03  0.12500329838E+03 0.  0.
          2    1    1    2  501    0 -0.14630337396E+02  0.34973225419E+02 -0.55971396589E+03  0.56099634302E+03  0.00000000000E+00 0. -1.
          1    1    1    2  502    0 -0.42170177005E+02 -0.74894598144E+02  0.11855695702E+04  0.11886810887E+04  0.00000000000E+00 0. -1.
         22    1    3    3    0    0 -0.29924393758E+02 -0.44767256342E+01  0.30222306786E+02  0.42765619856E+02  0.00000000000E+00 0.  1.
         22    1    3    3    0    0  0.86724908158E+02  0.44398098359E+02 -0.24060930526E+02  0.10035601233E+03  0.00000000000E+00 0.  1.
</event>
<event>
 7    1  0.6443388E-006  0.1161770E+03  0.7818608E-02  0.1272576E+00
          2   -1    0    0  502    0  0.00000000000E+00  0.00000000000E+00  0.11944185514E+04  0.11944185514E+04  0.00000000000E+00 0. -1.
          1   -1    0    0  501    0 -0.00000000000E+00 -0.00000000000E+00 -0.71878393650E+03  0.71878393650E+03  0.00000000000E+00 0. -1.
         25    2    1    2    0    0 -0.47746008024E+02  0.18934395189E+03 -0.28471174801E+03  0.36717331927E+03  0.12499861410E+03 0.  0.
          2    1    1    2  501    0  0.32501297236E+02 -0.97930890916E+02 -0.38416042399E+03  0.39777635057E+03  0.00000000000E+00 0. -1.
          1    1    1    2  502    0  0.15244710787E+02 -0.91413060976E+02  0.11445067869E+04  0.11482528180E+04  0.00000000000E+00 0. -1.
         22    1    3    3    0    0 -0.22644553293E+02  0.12812538558E+02 -0.12537607141E+03  0.12804724214E+03  0.00000000000E+00 0.  1.
         22    1    3    3    0    0 -0.25101454730E+02  0.17653141333E+03 -0.15933567660E+03  0.23912607712E+03  0.00000000000E+00 0.  1.
</event>
<event>
 7    1  0.6443388E-006  0.1525255E+03  0.7818608E-02  0.1336447E+00
          2   -1    0    0  502    0  0.00000000000E+00  0.00000000000E+00  0.25445627532E+04  0.25445627532E+04  0.00000000000E+00 0. -1.
          1   -1    0    0  501    0 -0.00000000000E+00 -0.00000000000E+00 -0.20706681755E+03  0.20706681755E+03  0.00000000000E+00 0. -1.
         25    2    1    2    0    0  0.12190851450E+03 -0.29759632164E+02  0.59153294248E+02  0.18673826835E+03  0.12499898812E+03 0.  0.
          2    1    1    2  501    0 -0.15430350330E+03  0.52058946594E+02 -0.96784554863E+02  0.18943852595E+03  0.00000000000E+00 0. -1.
          1    1    1    2  502    0  0.32394988803E+02 -0.22299314429E+02  0.23751271963E+04  0.23754527765E+04  0.00000000000E+00 0. -1.
         22    1    3    3    0    0  0.49489920114E+02 -0.13773163454E+02  0.92200996880E+02  0.10554608496E+03  0.00000000000E+00 0. -1.
         22    1    3    3    0    0  0.72418594387E+02 -0.15986468710E+02 -0.33047702632E+02  0.81192183393E+02  0.00000000000E+00 0. -1.
</event>
<event>
 7    1  0.6443388E-006  0.2017521E+03  0.7818608E-02  0.1325675E+00
          2   -1    0    0  502    0  0.00000000000E+00  0.00000000000E+00  0.14716457714E+03  0.14716457714E+03  0.00000000000E+00 0. -1.
          1   -1    0    0  501    0 -0.00000000000E+00 -0.00000000000E+00 -0.50589588195E+03  0.50589588195E+03  0.00000000000E+00 0. -1.
         25    2    1    2    0    0  0.18120930944E+03  0.63908977156E+01 -0.28368115188E+03  0.35913312071E+03  0.12499578015E+03 0.  0.
          2    1    1    2  501    0  0.25511645459E+02  0.20427860740E+02 -0.78939597604E+02  0.85437706069E+02  0.00000000000E+00 0. -1.
          1    1    1    2  502    0 -0.20672095490E+03 -0.26818758455E+02  0.38894446749E+01  0.20848963231E+03  0.00000000000E+00 0. -1.
         22    1    3    3    0    0  0.11783827397E+03 -0.48862341503E+02 -0.21743538246E+03  0.25209429342E+03  0.00000000000E+00 0.  1.
         22    1    3    3    0    0  0.63371035478E+02  0.55253239219E+02 -0.66245769416E+02  0.10703882729E+03  0.00000000000E+00 0.  1.
</event>
<event>
 7    1  0.6443388E-006  0.8588902E+02  0.7818608E-02  0.1387000E+00
          2   -1    0    0  502    0  0.00000000000E+00  0.00000000000E+00  0.81239477766E+02  0.81239477766E+02  0.00000000000E+00 0. -1.
          1   -1    0    0  501    0 -0.00000000000E+00 -0.00000000000E+00 -0.87430259098E+03  0.87430259098E+03  0.00000000000E+00 0. -1.
         25    2    1    2    0    0  0.26021822073E+02 -0.80344480823E+02 -0.44538282042E+03  0.47023586090E+03  0.12499414919E+03 0.  0.
          2    1    1    2  501    0  0.39287262524E+02  0.23368403291E+02 -0.38731577129E+03  0.39000394608E+03  0.00000000000E+00 0. -1.
          1    1    1    2  502    0 -0.65309084596E+02  0.56976077531E+02  0.39635478495E+02  0.95302261763E+02  0.00000000000E+00 0. -1.
         22    1    3    3    0    0 -0.83088658774E+01  0.14560654408E+02 -0.36982558143E+01  0.17167615007E+02  0.00000000000E+00 0. -1.
         22    1    3    3    0    0  0.34330687950E+02 -0.94905135231E+02 -0.44168456460E+03  0.45306824589E+03  0.00000000000E+00 0. -1.
</event>
<event>
 7    1  0.6443388E-006  0.1113139E+03  0.7818608E-02  0.1353777E+00
          2   -1    0    0  502    0  0.00000000000E+00  0.00000000000E+00  0.27618716403E+03  0.27618716403E+03  0.00000000000E+00 0. -1.
          1   -1    0    0  501    0 -0.00000000000E+00 -0.00000000000E+00 -0.38583547455E+03  0.38583547455E+03  0.00000000000E+00 0. -1.
         25    2    1    2    0    0  0.12561929037E+03 -0.67278855822E+02  0.53173630742E+02  0.19687347462E+03  0.12500031780E+03 0.  0.
          2    1    1    2  501    0 -0.10634271636E+03  0.25039078432E+02 -0.30055785024E+03  0.31979798328E+03  0.00000000000E+00 0. -1.
          1    1    1    2  502    0 -0.19276574006E+02  0.42239777389E+02  0.13773590898E+03  0.14535118067E+03  0.00000000000E+00 0. -1.
         22    1    3    3    0    0  0.53389346138E+02  0.17366939590E+02  0.63926763201E+02  0.85080338064E+02  0.00000000000E+00 0.  1.
         22    1    3    3    0    0  0.72229944228E+02 -0.84645795411E+02 -0.10753132459E+02  0.11179313656E+03  0.00000000000E+00 0.  1.
</event>
<event>
 7    1  0.6443388E-006  0.8445126E+02  0.7818608E-02  0.1340692E+00
          2   -1    0    0  502    0  0.00000000000E+00  0.00000000000E+00  0.95023178809E+03  0.95023178809E+03  0.00000000000E+00 0. -1.
          1   -1    0    0  501    0 -0.00000000000E+00 -0.00000000000E+00 -0.26104045473E+02  0.26104045473E+02  0.00000000000E+00 0. -1.
         25    2    1    2    0    0 -0.51362066507E+02  0.51205052218E+01  0.42228556524E+03  0.44341248248E+03  0.12500099821E+03 0.  0.
          2    1    1    2  501    0  0.89219678656E+02 -0.62159929861E+02  0.26661977610E+03  0.28794116230E+03  0.00000000000E+00 0. -1.
          1    1    1    2  502    0 -0.37857612148E+02  0.57039424639E+02  0.23522240128E+03  0.24498218879E+03  0.00000000000E+00 0. -1.
         22    1    3    3    0    0  0.27940618146E+02  0.28677259682E+02  0.23888474038E+03  0.24221680898E+03  0.00000000000E+00 0.  1.
         22    1    3    3    0    0 -0.79302684653E+02 -0.23556754460E+02  0.18340082486E+03  0.20119567350E+03  0.00000000000E+00 0.  1.
</event>
<event>
 7    1  0.6443388E-006  0.6894837E+02  0.7818608E-02  0.1511416E+00
          2   -1    0    0  502    0  0.00000000000E+00  0.00000000000E+00  0.41058967474E+03  0.41058967474E+03  0.00000000000E+00 0. -1.
          1   -1    0    0  501    0 -0.00000000000E+00 -0.00000000000E+00 -0.47618959037E+03  0.47618959037E+03  0.00000000000E+00 0. -1.
         25    2    1    2    0    0  0.86143438062E+02  0.26666117838E+02 -0.26248735450E+03  0.30439767948E+03  0.12500624880E+03 0.  0.
          2    1    1    2  501    0 -0.18865115452E+02 -0.12637946799E+02 -0.18903180409E+03  0.19039073832E+03  0.00000000000E+00 0. -1.
          1    1    1    2  502    0 -0.67278322610E+02 -0.14028171039E+02  0.38591924297E+03  0.39199084731E+03  0.00000000000E+00 0. -1.
         22    1    3    3    0    0  0.55901391829E+02  0.46955074494E+02 -0.25748958745E+03  0.26763899618E+03  0.00000000000E+00 0. -1.
         22    1    3    3    0    0  0.30242046232E+02 -0.20288956656E+02 -0.49977670483E+01  0.36758683300E+02  0.00000000000E+00 0. -1.
</event>
<event>
 7    1  0.6443388E-006  0.3381591E+02  0.7818608E-02  0.1560719E+00
          2   -1    0    0  502    0  0.00000000000E+00  0.00000000000E+00  0.22322973899E+04  0.22322973899E+04  0.00000000000E+00 0. -1.
          1   -1    0    0  501    0 -0.00000000000E+00 -0.00000000000E+00 -0.90334214295E+01  0.90334214295E+01  0.00000000000E+00 0. -1.
         25    2    1    2    0    0 -0.73945459926E+01 -0.16234851282E+02  0.11334689592E+04  0.11404803321E+04  0.12500102648E+03 0.  0.
          2    1    1    2  501    0 -0.28435972148E+02  0.18300574866E+02  0.49566101694E+02  0.60002616523E+02  0.00000000000E+00 0. -1.
          1    1    1    2  502    0  0.35830518140E+02 -0.20657235840E+01  0.10402289075E+04  0.10408478627E+04  0.00000000000E+00 0. -1.
         22    1    3    3    0    0 -0.15159294459E+02  0.53653650493E+02  0.46999782608E+03  0.47329322300E+03  0.00000000000E+00 0.  1.
         22    1    3    3    0    0  0.77647484665E+01 -0.69888501775E+02  0.66347113316E+03  0.66718710909E+03  0.00000000000E+00 0.  1.
</event>
<event>
 7    1  0.6443388E-006  0.8250260E+02  0.7818608E-02  0.1365004E+00
          2   -1    0    0  502    0  0.00000000000E+00  0.00000000000E+00  0.43590698228E+04  0.43590698228E+04  0.00000000000E+00 0. -1.
          1   -1    0    0  501    0 -0.00000000000E+00 -0.00000000000E+00 -0.26657578917E+02  0.26657578917E+02  0.00000000000E+00 0. -1.
         25    2    1    2    0    0  0.48937807367E+02 -0.79105807944E+02  0.29796551921E+04  0.29837263909E+04  0.12500189432E+03 0.  0.
          2    1    1    2  501    0 -0.77210919943E+02  0.29611827416E+02  0.47232765792E+02  0.95232980872E+02  0.00000000000E+00 0. -1.
          1    1    1    2  502    0  0.28273112576E+02  0.49493980528E+02  0.13055242859E+04  0.13067680300E+04  0.00000000000E+00 0. -1.
         22    1    3    3    0    0 -0.37013811460E+02 -0.37516067197E+02  0.15441121270E+04  0.15450112421E+04  0.00000000000E+00 0.  1.
         22    1    3    3    0    0  0.85951618828E+02 -0.41589740747E+02  0.14355430652E+04  0.14387151488E+04  0.00000000000E+00 0.  1.
</event>
<event>
 7    1  0.6443388E-006  0.2179905E+03  0.7818608E-02  0.1227106E+00
          2   -1    0    0  502    0  0.00000000000E+00  0.00000000000E+00  0.16534335394E+04  0.16534335394E+04  0.00000000000E+00 0. -1.
          1   -1    0    0  501    0 -0.00000000000E+00 -0.00000000000E+00 -0.19731978273E+04  0.19731978273E+04  0.00000000000E+00 0. -1.
         25    2    1    2    0    0 -0.52412620551E+02 -0.13116061557E+03  0.43949129206E+03  0.47825372300E+03  0.12499535151E+03 0.  0.
          2    1    1    2  501    0  0.78554046897E+02  0.20444580954E+03 -0.19464012116E+04  0.19586848914E+04  0.00000000000E+00 0. -1.
          1    1    1    2  502    0 -0.26141426346E+02 -0.73285193978E+02  0.11871456317E+04  0.11896927523E+04  0.00000000000E+00 0. -1.
         22    1    3    3    0    0  0.83983527565E+00 -0.47421680185E+02  0.28242675913E+02  0.55201175871E+02  0.00000000000E+00 0. -1.
         22    1    3    3    0    0 -0.53252455826E+02 -0.83738935380E+02  0.41124861615E+03  0.42305254713E+03  0.00000000000E+00 0. -1.
</event>
<event>
 7    1  0.6443388E-006  0.1161951E+03  0.7818608E-02  0.1433584E+00
          2   -1    0    0  502    0  0.00000000000E+00  0.00000000000E+00  0.71818410458E+02  0.71818410458E+02  0.00000000000E+00 0. -1.
          1   -1    0    0  501    0 -0.00000000000E+00 -0.00000000000E+00 -0.24871729528E+04  0.24871729528E+04  0.00000000000E+00 0. -1.
         25    2    1    2    0    0  0.66961292396E+02  0.87007471122E+02 -0.58516498904E+03  0.60835625796E+03  0.12500062995E+03 0.  0.
          2    1    1    2  501    0 -0.52182054133E+02 -0.10526932034E+03 -0.18862215554E+04  0.18898773380E+04  0.00000000000E+00 0. -1.
          1    1    1    2  502    0 -0.14779238264E+02  0.18261849218E+02  0.56032002139E+02  0.60757767274E+02  0.00000000000E+00 0. -1.
         22    1    3    3    0    0 -0.27764619165E+02 -0.10948432806E+02 -0.11878396766E+03  0.12247601084E+03  0.00000000000E+00 0. -1.
         22    1    3    3    0    0  0.94725911561E+02  0.97955903928E+02 -0.46638102138E+03  0.48588024712E+03  0.00000000000E+00 0. -1.
</event>
<event>
 7    1  0.6443388E-006  0.3202087E+02  0.7818608E-02  0.1592775E+00
          2   -1    0    0  502    0  0.00000000000E+00  0.00000000000E+00  0.24038842520E+03  0.24038842520E+03  0.00000000000E+00 0. -1.
          1   -1    0    0  501    0 -0.00000000000E+00 -0.00000000000E+00 -0.30196993217E+03  0.30196993217E+03  0.00000000000E+00 0. -1.
         25    2    1    2    0    0  0.13058121576E+02 -0.31245863611E+02 -0.77299127996E+02  0.15082104521E+03  0.12500005583E+03 0.  0.
          2    1    1    2  501    0 -0.31259428558E+02  0.86366536456E+01 -0.18546126340E+03  0.18827539372E+03  0.00000000000E+00 0. -1.
          1    1    1    2  502    0  0.18201306982E+02  0.22609209965E+02  0.20117888442E+03  0.20326191844E+03  0.00000000000E+00 0. -1.
         22    1    3    3    0    0  0.94227224823E+01  0.43946072924E+02 -0.57499403882E+02  0.72981000755E+02  0.00000000000E+00 0. -1.
         22    1    3    3    0    0  0.36353990938E+01 -0.75191936535E+02 -0.19799724114E+02  0.77840044459E+02  0.00000000000E+00 0. -1.
</event>
<event>
 7    1  0.6443388E-006  0.1270728E+03  0.7818608E-02  0.1353271E+00
          2   -1    0    0  502    0  0.00000000000E+00  0.00000000000E+00  0.82767359509E+03  0.82767359509E+03  0.00000000000E+00 0. -1.
          1   -1    0    0  501    0 -0.00000000000E+00 -0.00000000000E+00 -0.27284741755E+03  0.27284741755E+03  0.00000000000E+00 0. -1.
         25    2    1    2    0    0 -0.14053499717E+03  0.41207382958E+02  0.14443429689E+03  0.24069547774E+03  0.12499965219E+03 0.  0.
          2    1    1    2  501    0  0.15454664458E+02 -0.37810895490E+02 -0.21662653569E+03  0.22044402109E+03  0.00000000000E+00 0. -1.
          1    1    1    2  502    0  0.12508033271E+03 -0.33964874687E+01  0.62701841635E+03  0.63938151381E+03  0.00000000000E+00 0. -1.
         22    1    3    3    0    0 -0.12738415741E+02  0.32955511915E+02  0.98498199077E+02  0.10464333817E+03  0.00000000000E+00 0. -1.
         22    1    3    3    0    0 -0.12779658143E+03  0.82518710436E+01  0.45936097809E+02  0.13605213958E+03  0.00000000000E+00 0. -1.
</event>
<event>
 7    1  0.6443388E-006  0.4287912E+02  0.7818608E-02  0.1530197E+00
          2   -1    0    0  502    0  0.00000000000E+00  0.00000000000E+00  0.48632787998E+03  0.48632787998E+03  0.00000000000E+00 0. -1.
          1   -1    0    0  501    0 -0.00000000000E+00 -0.00000000000E+00 -0.64022652106E+03  0.64022652106E+03  0.00000000000E+00 0. -1.
         25    2    1    2    0    0 -0.53985123751E+02 -0.49473037918E+02  0.17988324095E+03  0.23096644434E+03  0.12500217184E+03 0.  0.
          2    1    1    2  501    0  0.24832281058E+02  0.20510579898E+02 -0.61275679248E+03  0.61360265058E+03  0.00000000000E+00 0. -1.
          1    1    1    2  502    0  0.29152842693E+02  0.28962458020E+02  0.27897491044E+03  0.28198530612E+03  0.00000000000E+00 0. -1.
         22    1    3    3    0    0  0.13534636225E+01  0.28117011495E+02  0.10796109817E+03  0.11157059163E+03  0.00000000000E+00 0.  1.
         22    1    3    3    0    0 -0.55338587373E+02 -0.77590049413E+02  0.71922142787E+02  0.11939585271E+03  0.00000000000E+00 0.  1.
</event>
<event>
 7    1  0.6443388E-006  0.5890253E+02  0.7818608E-02  0.1409851E+00
          2   -1    0    0  502    0  0.00000000000E+00  0.00000000000E+00  0.39985746020E+03  0.39985746020E+03  0.00000000000E+00 0. -1.
          1   -1    0    0  501    0 -0.00000000000E+00 -0.00000000000E+00 -0.59436538170E+03  0.59436538170E+03  0.00000000000E+00 0. -1.
         25    2    1    2    0    0  0.45319492147E+02 -0.10009857066E+03  0.25176203415E+02  0.16832534160E+03  0.12500399669E+03 0.  0.
          2    1    1    2  501    0 -0.10994195235E+02  0.54501464369E+02 -0.51860503018E+03  0.52157689680E+03  0.00000000000E+00 0. -1.
          1    1    1    2  502    0 -0.34325296913E+02  0.45597106292E+02  0.29892090527E+03  0.30432060351E+03  0.00000000000E+00 0. -1.
         22    1    3    3    0    0  0.72469968737E+01  0.25706076256E+02  0.25440704205E+02  0.36885644235E+02  0.00000000000E+00 0. -1.
         22    1    3    3    0    0  0.38072495274E+02 -0.12580464692E+03 -0.26450078983E+00  0.13143969736E+03  0.00000000000E+00 0. -1.
</event>
<event>
 7    1  0.6443388E-006  0.6710766E+02  0.7818608E-02  0.1371552E+00
          2   -1    0    0  502    0  0.00000000000E+00  0.00000000000E+00  0.38078772690E+04  0.38078772690E+04  0.00000000000E+00 0. -1.
          1   -1    0    0  501    0 -0.00000000000E+00 -0.00000000000E+00 -0.13868449104E+04  0.13868449104E+04  0.00000000000E+00 0. -1.
         25    2    1    2    0    0 -0.27673534242E-01  0.11153661948E+02 -0.18796104958E+02  0.12689598570E+03  0.12499957073E+03 0.  0.
          2    1    1    2  501    0 -0.66984545371E+02 -0.75758351518E+01 -0.13128340775E+04  0.13145636682E+04  0.00000000000E+00 0. -1.
          1    1    1    2  502    0  0.67012218905E+02 -0.35778267961E+01  0.37526625411E+04  0.37532625255E+04  0.00000000000E+00 0. -1.
         22    1    3    3    0    0 -0.55938953902E+02  0.30961510784E+02  0.21993056208E+01  0.63973577819E+02  0.00000000000E+00 0.  1.
         22    1    3    3    0    0  0.55911280368E+02 -0.19807848836E+02 -0.20995410579E+02  0.62922407879E+02  0.00000000000E+00 0.  1.
</event>
<event>
 7    1  0.6443388E-006  0.1871814E+03  0.7818608E-02  0.1319182E+00
          2   -1    0    0  502    0  0.00000000000E+00  0.00000000000E+00  0.48162608661E+03  0.48162608661E+03  0.00000000000E+00 0. -1.
          1   -1    0    0  501    0 -0.00000000000E+00 -0.00000000000E+00 -0.32344491439E+04  0.32344491439E+04  0.00000000000E+00 0. -1.
         25    2    1    2    0    0 -0.51929707578E+02 -0.20653981438E+03 -0.30721381164E+03  0.39415878147E+03  0.12500171796E+03 0.  0.
          2    1    1    2  501    0  0.67716247917E+02  0.17272077615E+03 -0.28799780171E+04  0.28859472164E+04  0.00000000000E+00 0. -1.
          1    1    1    2  502    0 -0.15786540339E+02  0.33819038228E+02  0.43436877146E+03  0.43596923266E+03  0.00000000000E+00 0. -1.
         22    1    3    3    0    0 -0.78567784700E+02 -0.77257952394E+02 -0.17864462861E+03  0.20989423845E+03  0.00000000000E+00 0. -1.
         22    1    3    3    0    0  0.26638077122E+02 -0.12928186198E+03 -0.12856918303E+03  0.18426454302E+03  0.00000000000E+00 0. -1.
</event>
<event>
 7    1  0.6443388E-006  0.9471780E+02  0.7818608E-02  0.1327260E+00
          2   -1    0    0  502    0  0.00000000000E+00  0.00000000000E+00  0.11316038298E+03  0.11316038298E+03  0.00000000000E+00 0. -1.
          1   -1    0    0  501    0 -0.00000000000E+00 -0.00000000000E+00 -0.26840599572E+03  0.26840599572E+03  0.00000000000E+00 0. -1.
         25    2    1    2    0    0 -0.57646109714E+01  0.25610670326E+02 -0.69312435259E+02  0.14532229240E+03  0.12500087124E+03 0.  0.
          2    1    1    2  501    0 -0.83831210446E+02 -0.56336076311E+02 -0.98035222412E+02  0.14075627934E+03  0.00000000000E+00 0. -1.
          1    1    1    2  502    0  0.89595821417E+02  0.30725405985E+02  0.12102044929E+02  0.95487806970E+02  0.00000000000E+00 0. -1.
         22    1    3    3    0    0 -0.37813478024E+01  0.34266256265E+02 -0.10397456532E+03  0.10954079214E+03  0.00000000000E+00 0. -1.
         22    1    3    3    0    0 -0.19832631690E+01 -0.86555859391E+01  0.34662130057E+02  0.35781500259E+02  0.00000000000E+00 0. -1.
</event>
<event>
 7    1  0.6443388E-006  0.8132635E+02  0.7818608E-02  0.1427144E+00
          2   -1    0    0  502    0  0.00000000000E+00  0.00000000000E+00  0.19566894159E+03  0.19566894159E+03  0.00000000000E+00 0. -1.
          1   -1    0    0  501    0 -0.00000000000E+00 -0.00000000000E+00 -0.10866145836E+04  0.10866145836E+04  0.00000000000E+00 0. -1.
         25    2    1    2    0    0 -0.76815509385E+02 -0.28983029034E+02 -0.31114435543E+03  0.34521881185E+03  0.12499831871E+03 0.  0.
          2    1    1    2  501    0  0.57588184811E+02  0.58520286876E+02 -0.75444545051E+03  0.75889983582E+03  0.00000000000E+00 0. -1.
          1    1    1    2  502    0  0.19227324574E+02 -0.29537257841E+02  0.17464416390E+03  0.17816487755E+03  0.00000000000E+00 0. -1.
         22    1    3    3    0    0 -0.70100501382E+02 -0.53744974970E+00 -0.59691488433E+02  0.92073030457E+02  0.00000000000E+00 0. -1.
         22    1    3    3    0    0 -0.67150080033E+01 -0.28445579284E+02 -0.25145286700E+03  0.25314578139E+03  0.00000000000E+00 0. -1.
</event>
<event>
 7    1  0.6443388E-006  0.8902339E+02  0.7818608E-02  0.1338410E+00
          2   -1    0    0  502    0  0.00000000000E+00  0.00000000000E+00  0.48316325998E+03  0.48316325998E+03  0.00000000000E+00 0. -1.
          1   -1    0    0  501    0 -0.00000000000E+00 -0.00000000000E+00 -0.45017427229E+03  0.45017427229E+03  0.00000000000E+00 0. -1.
         25    2    1    2    0    0 -0.12207989417E+03 -0.81449784307E+02 -0.97315684020E+02  0.21595036476E+03  0.12500659886E+03 0.  0.
          2    1    1    2  501    0  0.60261480817E+02  0.57652007040E+02 -0.28493913162E+03  0.29689309307E+03  0.00000000000E+00 0. -1.
          1    1    1    2  502    0  0.61818413357E+02  0.23797777268E+02  0.41524380333E+03  0.42049407443E+03  0.00000000000E+00 0. -1.
         22    1    3    3    0    0 -0.27591394983E+02 -0.55193270110E+02  0.18282837358E+02  0.64357161874E+02  0.00000000000E+00 0.  1.
         22    1    3    3    0    0 -0.94488499191E+02 -0.26256514197E+02 -0.11559852138E+03  0.15159320289E+03  0.00000000000E+00 0.  1.
</event>
<event>
 7    1  0.6443388E-006  0.4403427E+02  0.7818608E-02  0.1515591E+00
          2   -1    0    0  502    0  0.00000000000E+00  0.00000000000E+00  0.19250620525E+03  0.19250620525E+03  0.00000000000E+00 0. -1.
          1   -1    0    0  501    0 -0.00000000000E+00 -0.00000000000E+00 -0.23440833074E+03  0.23440833074E+03  0.00000000000E+00 0. -1.
         25    2    1    2    0    0 -0.76437638162E+02  0.20006794707E+01  0.11545735644E+02  0.14698770057E+03  0.12500145944E+03 0.  0.
          2    1    1    2  501    0  0.42608175088E+02  0.51020132713E+01 -0.16117488695E+03  0.16678978178E+03  0.00000000000E+00 0. -1.
          1    1    1    2  502    0  0.33829463075E+02 -0.71026927420E+01  0.10772702581E+03  0.11313705364E+03  0.00000000000E+00 0. -1.
         22    1    3    3    0    0 -0.69209941492E+02 -0.39258511028E+02 -0.32729938110E+02  0.86037756469E+02  0.00000000000E+00 0. -1.
         22    1    3    3    0    0 -0.72276966699E+01  0.41259190498E+02  0.44275673754E+02  0.60949944103E+02  0.00000000000E+00 0. -1.
</event>
<event>
 7    1  0.6443388E-006  0.6902304E+02  0.7818608E-02  0.1466793E+00
          2   -1    0    0  502    0  0.00000000000E+00  0.00000000000E+00  0.13294603490E+04  0.13294603490E+04  0.00000000000E+00 0. -1.
          1   -1    0    0  501    0 -0.00000000000E+00 -0.00000000000E+00 -0.15658877331E+04  0.15658877331E+04  0.00000000000E+00 0. -1.
         25    2    1    2    0    0  0.11862727446E+02 -0.36827111217E+02  0.35044684382E+03  0.37407862260E+03  0.12499946047E+03 0.  0.
          2    1    1    2  501    0 -0.28549895056E+02  0.62912942184E+02 -0.15530558173E+04  0.15545917491E+04  0.00000000000E+00 0. -1.
          1    1    1    2  502    0  0.16687167610E+02 -0.26085830967E+02  0.96618158932E+03  0.96667771035E+03  0.00000000000E+00 0. -1.
         22    1    3    3    0    0  0.24799255371E+02  0.34127549443E+02  0.51592891830E+02  0.66644723613E+02  0.00000000000E+00 0. -1.
         22    1    3    3    0    0 -0.12936527925E+02 -0.70954660660E+02  0.29885395199E+03  0.30743389898E+03  0.00000000000E+00 0. -1.
</event>
<event>
 7    1  0.6443388E-006  0.3649196E+03  0.7818608E-02  0.1234484E+00
          2   -1    0    0  502    0  0.00000000000E+00  0.00000000000E+00  0.10276741564E+04  0.10276741564E+04  0.00000000000E+00 0. -1.
          1   -1    0    0  501    0 -0.00000000000E+00 -0.00000000000E+00 -0.94107827653E+03  0.94107827653E+03  0.00000000000E+00 0. -1.
         25    2    1    2    0    0  0.26415926245E+03  0.24510554106E+03  0.15018321278E+03  0.40992401781E+03  0.12500344308E+03 0.  0.
          2    1    1    2  501    0 -0.29560343020E+03 -0.21566501993E+03 -0.76925429963E+03  0.85184797134E+03  0.00000000000E+00 0. -1.
          1    1    1    2  502    0  0.31444167752E+02 -0.29440521131E+02  0.70566696675E+03  0.70698044381E+03  0.00000000000E+00 0. -1.
         22    1    3    3    0    0  0.16402138403E+03  0.76007776706E+02  0.10204833509E+03  0.20759108660E+03  0.00000000000E+00 0.  1.
         22    1    3    3    0    0  0.10013787841E+03  0.16909776436E+03  0.48134877684E+02  0.20233293121E+03  0.00000000000E+00 0.  1.
</event>
<event>
 7    1  0.6443388E-006  0.7772516E+02  0.7818608E-02  0.1347948E+00
          2   -1    0    0  502    0  0.00000000000E+00  0.00000000000E+00  0.34076791157E+03  0.34076791157E+03  0.00000000000E+00 0. -1.
          1   -1    0    0  501    0 -0.00000000000E+00 -0.00000000000E+00 -0.23293648629E+04  0.23293648629E+04  0.00000000000E+00 0. -1.
         25    2    1    2    0    0 -0.97447398651E+02 -0.87064839971E+02 -0.26542685338E+03  0.32117976224E+03  0.12501497238E+03 0.  0.
          2    1    1    2  501    0  0.73633436205E+02  0.21366457188E+02 -0.20314275221E+04  0.20328738736E+04  0.00000000000E+00 0. -1.
          1    1    1    2  502    0  0.23813962446E+02  0.65698382783E+02  0.30825742417E+03  0.31607913861E+03  0.00000000000E+00 0. -1.
         22    1    3    3    0    0 -0.11655047686E+03 -0.34783959418E+02 -0.20966831018E+03  0.24239376597E+03  0.00000000000E+00 0.  1.
         22    1    3    3    0    0  0.19103078212E+02 -0.52280880554E+02 -0.55758543201E+02  0.78785996272E+02  0.00000000000E+00 0.  1.
</event>
<event>
 7    1  0.6443388E-006  0.5656100E+02  0.7818608E-02  0.1422401E+00
          2   -1    0    0  502    0  0.00000000000E+00  0.00000000000E+00  0.11543402461E+04  0.11543402461E+04  0.00000000000E+00 0. -1.
          1   -1    0    0  501    0 -0.00000000000E+00 -0.00000000000E+00 -0.16964868544E+03  0.16964868544E+03  0.00000000000E+00 0. -1.
         25    2    1    2    0    0  0.72809460335E+02  0.25811254029E+02  0.45513945289E+03  0.47826832400E+03  0.12498491836E+03 0.  0.
          2    1    1    2  501    0 -0.26221197181E+02 -0.50111787315E+02 -0.15198179538E+03  0.16216414073E+03  0.00000000000E+00 0. -1.
          1    1    1    2  502    0 -0.46588263153E+02  0.24300533286E+02  0.68153390310E+03  0.68355646677E+03  0.00000000000E+00 0. -1.
         22    1    3    3    0    0  0.10669762129E+03  0.23523920589E+02  0.38707363477E+03  0.40219865236E+03  0.00000000000E+00 0. -1.
         22    1    3    3    0    0 -0.33888160952E+02  0.22873334398E+01  0.68065818118E+02  0.76069671637E+02  0.00000000000E+00 0. -1.
</event>
<event>
 7    1  0.6443388E-006  0.3863405E+03  0.7818608E-02  0.1108094E+00
          2   -1    0    0  502    0  0.00000000000E+00  0.00000000000E+00  0.62628914696E+03  0.62628914696E+03  0.00000000000E+00 0. -1.
          1   -1    0    0  501    0 -0.00000000000E+00 -0.00000000000E+00 -0.82995122800E+03  0.82995122800E+03  0.00000000000E+00 0. -1.
         25    2    1    2    0    0  0.10927293584E+03  0.26717180744E+03 -0.95375603515E+02  0.32870001582E+03  0.12500338179E+03 0.  0.
          2    1    1    2  501    0 -0.15222965100E+03 -0.43460971795E+03 -0.51185064033E+03  0.68851329078E+03  0.00000000000E+00 0. -1.
          1    1    1    2  502    0  0.42956715162E+02  0.16743791051E+03  0.40356416280E+03  0.43902706835E+03  0.00000000000E+00 0. -1.
         22    1    3    3    0    0  0.47684128993E+02  0.91169565349E+01 -0.69134438630E+01  0.49037646358E+02  0.00000000000E+00 0.  1.
         22    1    3    3    0    0  0.61588806848E+02  0.25805485091E+03 -0.88462159652E+02  0.27966236947E+03  0.00000000000E+00 0.  1.
</event>
<event>
 7    1  0.6443388E-006  0.6828692E+02  0.7818608E-02  0.1497336E+00
          2   -1    0    0  502    0  0.00000000000E+00  0.00000000000E+00  0.65461701018E+03  0.65461701018E+03  0.00000000000E+00 0. -1.
          1   -1    0    0  501    0 -0.00000000000E+00 -0.00000000000E+00 -0.96762001458E+03  0.96762001458E+03  0.00000000000E+00 0. -1.
         25    2    1    2    0    0  0.38596161932E+02  0.44004334968E+02 -0.15842814489E+03  0.21011802712E+03  0.12499625201E+03 0.  0.
          2    1    1    2  501    0 -0.61008986777E+02 -0.32394135422E+02 -0.78156971066E+03  0.78461626870E+03  0.00000000000E+00 0. -1.
          1    1    1    2  502    0  0.22412824846E+02 -0.11610199546E+02  0.62699485115E+03  0.62750272894E+03  0.00000000000E+00 0. -1.
         22    1    3    3    0    0 -0.11444258963E+02  0.58894520561E+02 -0.21765323863E+02  0.63822135174E+02  0.00000000000E+00 0. -1.
         22    1    3    3    0    0  0.50040420895E+02 -0.14890185593E+02 -0.13666282102E+03  0.14629589195E+03  0.00000000000E+00 0. -1.
</event>
<event>
 7    1  0.6443388E-006  0.5536301E+02  0.7818608E-02  0.1462993E+00
          2   -1    0    0  502    0  0.00000000000E+00  0.00000000000E+00  0.18983518250E+04  0.18983518250E+04  0.00000000000E+00 0. -1.
          1   -1    0    0  501    0 -0.00000000000E+00 -0.00000000000E+00 -0.22241886021E+03  0.22241886021E+03  0.00000000000E+00 0. -1.
         25    2    1    2    0    0  0.67699615625E+02  0.65289109881E+02  0.14209383697E+03  0.21133411286E+03  0.12500217170E+03 0.  0.
          2    1    1    2  501    0 -0.37522483334E+02 -0.39523746386E+02 -0.18361094358E+03  0.19152817518E+03  0.00000000000E+00 0. -1.
          1    1    1    2  502    0 -0.30177132291E+02 -0.25765363495E+02  0.17174500714E+04  0.17179083971E+04  0.00000000000E+00 0. -1.
         22    1    3    3    0    0  0.24666131028E+01  0.71484153140E+02  0.12433991174E+03  0.14344504865E+03  0.00000000000E+00 0. -1.
         22    1    3    3    0    0  0.65233002522E+02 -0.61950432594E+01  0.17753925231E+02  0.67889064216E+02  0.00000000000E+00 0. -1.
</event>
<event>
 7    1  0.6443388E-006  0.4671042E+02  0.7818608E-02  0.1516753E+00
          2   -1    0    0  502    0  0.00000000000E+00  0.00000000000E+00  0.15921038532E+04  0.15921038532E+04  0.00000000000E+00 0. -1.
          1   -1    0    0  501    0 -0.00000000000E+00 -0.00000000000E+00 -0.68230758068E+02  0.68230758068E+02  0.00000000000E+00 0. -1.
         25    2    1    2    0    0  0.33608495631E+01  0.18260043019E+02  0.75417913795E+03  0.76469208592E+03  0.12499235839E+03 0.  0.
          2    1    1    2  501    0  0.66675666303E+01  0.31638184656E+02 -0.57990203684E+02  0.66394991501E+02  0.00000000000E+00 0. -1.
          1    1    1    2  502    0 -0.10028416193E+02 -0.49898227675E+02  0.82768416083E+03  0.82924753382E+03  0.00000000000E+00 0. -1.
         22    1    3    3    0    0 -0.20872026849E+02  0.17074135213E+02  0.72979851248E+03  0.73029654005E+03  0.00000000000E+00 0. -1.
         22    1    3    3    0    0  0.24232876412E+02  0.11859078060E+01  0.24380625475E+02  0.34395545861E+02  0.00000000000E+00 0. -1.
</event>
<event>
 7    1  0.6443388E-006  0.1158055E+03  0.7818608E-02  0.1269436E+00
          2   -1    0    0  502    0  0.00000000000E+00  0.00000000000E+00  0.56064919550E+02  0.56064919550E+02  0.00000000000E+00 0. -1.
          1   -1    0    0  501    0 -0.00000000000E+00 -0.00000000000E+00 -0.18546239352E+04  0.18546239352E+04  0.00000000000E+00 0. -1.
         25    2    1    2    0    0 -0.37970631626E+02  0.11499074511E+02 -0.11044829587E+04  0.11122416088E+04  0.12499917083E+03 0.  0.
          2    1    1    2  501    0 -0.25377066818E+02  0.92413673804E+02 -0.66689959109E+03  0.67375021130E+03  0.00000000000E+00 0. -1.
          1    1    1    2  502    0  0.63347698444E+02 -0.10391274832E+03 -0.27176465892E+02  0.12469703468E+03  0.00000000000E+00 0. -1.
         22    1    3    3    0    0  0.39895075599E+02  0.84065500014E+01 -0.63740399499E+03  0.63870661495E+03  0.00000000000E+00 0.  1.
         22    1    3    3    0    0 -0.77865707225E+02  0.30925245101E+01 -0.46707896366E+03  0.47353499381E+03  0.00000000000E+00 0.  1.
</event>
<event>
 7    1  0.6443388E-006  0.9185370E+02  0.7818608E-02  0.1452831E+00
          2   -1    0    0  502    0  0.00000000000E+00  0.00000000000E+00  0.67833716326E+03  0.67833716326E+03  0.00000000000E+00 0. -1.
          1   -1    0    0  501    0 -0.00000000000E+00 -0.00000000000E+00 -0.23433585200E+03  0.23433585200E+03  0.00000000000E+00 0. -1.
         25    2    1    2    0    0  0.62968696562E+02  0.29774939202E+02  0.25519336382E+03  0.29257407710E+03  0.12499733558E+03 0.  0.
          2    1    1    2  501    0 -0.77265725867E+02 -0.51196355038E+02 -0.20524598308E+03  0.22520429111E+03  0.00000000000E+00 0. -1.
          1    1    1    2  502    0  0.14297029304E+02  0.21421415836E+02  0.39405393052E+03  0.39489464705E+03  0.00000000000E+00 0. -1.
         22    1    3    3    0    0  0.48305601318E+02  0.60747196952E+02  0.24473364350E+03  0.25674541732E+03  0.00000000000E+00 0. -1.
         22    1    3    3    0    0  0.14663095244E+02 -0.30972257750E+02  0.10459720321E+02  0.35828659778E+02  0.00000000000E+00 0. -1.
</event>
<event>
 7    1  0.1457128E-005  0.1230159E+03  0.7818608E-02  0.1382757E+00
          2   -1    0    0  502    0  0.00000000000E+00  0.00000000000E+00  0.16017772791E+04  0.16017772791E+04  0.00000000000E+00 0. -1.
          1   -1    0    0  501    0 -0.00000000000E+00 -0.00000000000E+00 -0.11830372543E+04  0.11830372543E+04  0.00000000000E+00 0. -1.
         25    2    1    2    0    0 -0.42602940447E+02 -0.88296346758E+02 -0.51083061503E+03  0.53495865259E+03  0.12498634865E+03 0.  0.
          2    1    1    2  501    0 -0.31454544990E+02 -0.10083195189E+02 -0.65734275261E+03  0.65817213070E+03  0.00000000000E+00 0. -1.
          1    1    1    2  502    0  0.74057485437E+02  0.98379541947E+02  0.15869133924E+04  0.15916837501E+04  0.00000000000E+00 0. -1.
         22    1    3    3    0    0 -0.60208364852E+02 -0.60754174411E+02 -0.15018111410E+03  0.17283079569E+03  0.00000000000E+00 0. -1.
         22    1    3    3    0    0  0.17605424405E+02 -0.27542172347E+02 -0.36064950093E+03  0.36212785690E+03  0.00000000000E+00 0. -1.
</event>
<event>
 7    1  0.6443388E-006  0.1219569E+03  0.7818608E-02  0.1302018E+00
          2   -1    0    0  502    0  0.00000000000E+00  0.00000000000E+00  0.15928447895E+04  0.15928447895E+04  0.00000000000E+00 0. -1.
          1   -1    0    0  501    0 -0.00000000000E+00 -0.00000000000E+00 -0.11553206003E+04  0.11553206003E+04  0.00000000000E+00 0. -1.
         25    2    1    2    0    0 -0.43491035047E+02 -0.51857644638E+02  0.10621570087E+03  0.17744703575E+03  0.12499995979E+03 0.  0.
          2    1    1    2  501    0  0.11033229119E+03  0.55245436159E+02 -0.11155296335E+04  0.11223331216E+04  0.00000000000E+00 0. -1.
          1    1    1    2  502    0 -0.66841256143E+02 -0.33877915210E+01  0.14468381219E+04  0.14483852324E+04  0.00000000000E+00 0. -1.
         22    1    3    3    0    0  0.35158138371E+02 -0.52138663759E+02  0.55416140381E+02  0.83818157740E+02  0.00000000000E+00 0.  1.
         22    1    3    3    0    0 -0.78649173419E+02  0.28101912079E+00  0.50799560488E+02  0.93628878007E+02  0.00000000000E+00 0.  1.
</event>
<event>
 7    1  0.6443388E-006  0.8836099E+02  0.7818608E-02  0.1423189E+00
          2   -1    0    0  502    0  0.00000000000E+00  0.00000000000E+00  0.48107512635E+03  0.48107512635E+03  0.00000000000E+00 0. -1.
          1   -1    0    0  501    0 -0.00000000000E+00 -0.00000000000E+00 -0.13757610976E+04  0.13757610976E+04  0.00000000000E+00 0. -1.
         25    2    1    2    0    0  0.75255606979E+02 -0.13449004592E+01  0.28084097428E+03  0.31647972442E+03  0.12499019160E+03 0.  0.
          2    1    1    2  501    0 -0.82750484679E+02 -0.31236769780E+02 -0.13549557127E+04  0.13578395936E+04  0.00000000000E+00 0. -1.
          1    1    1    2  502    0  0.74948776998E+01  0.32581670239E+02  0.17942876723E+03  0.18251690589E+03  0.00000000000E+00 0. -1.
         22    1    3    3    0    0 -0.29837390470E+02  0.66449765522E+01  0.24030938146E+02  0.38883307107E+02  0.00000000000E+00 0. -1.
         22    1    3    3    0    0  0.10509299745E+03 -0.79898770114E+01  0.25681003614E+03  0.27759641732E+03  0.00000000000E+00 0. -1.
</event>
<event>
 7    1  0.6443388E-006  0.4864475E+02  0.7818608E-02  0.1563739E+00
          2   -1    0    0  502    0  0.00000000000E+00  0.00000000000E+00  0.40269738943E+03  0.40269738943E+03  0.00000000000E+00 0. -1.
          1   -1    0    0  501    0 -0.00000000000E+00 -0.00000000000E+00 -0.14013336207E+03  0.14013336207E+03  0.00000000000E+00 0. -1.
         25    2    1    2    0    0  0.65771339547E+02 -0.12371695391E+02  0.23172474174E+03  0.27166246331E+03  0.12500084034E+03 0.  0.
          2    1    1    2  501    0 -0.20228174590E+02  0.10664834430E+02 -0.11557977197E+03  0.11782020807E+03  0.00000000000E+00 0. -1.
          1    1    1    2  502    0 -0.45543164957E+02  0.17068609605E+01  0.14641905760E+03  0.15334808012E+03  0.00000000000E+00 0. -1.
         22    1    3    3    0    0 -0.20996913317E+02 -0.42568563371E+02  0.10408460168E+03  0.11439649148E+03  0.00000000000E+00 0.  1.
         22    1    3    3    0    0  0.86768252864E+02  0.30196867980E+02  0.12764014007E+03  0.15726597183E+03  0.00000000000E+00 0.  1.
</event>
<event>
 7    1  0.6443388E-006  0.1782061E+03  0.7818608E-02  0.1294499E+00
          2   -1    0    0  502    0  0.00000000000E+00  0.00000000000E+00  0.35822209046E+04  0.35822209046E+04  0.00000000000E+00 0. -1.
          1   -1    0    0  501    0 -0.00000000000E+00 -0.00000000000E+00 -0.35819673426E+02  0.35819673426E+02  0.00000000000E+00 0. -1.
         25    2    1    2    0    0  0.19298509912E+02  0.13716131103E+03  0.20546369224E+04  0.20630907974E+04  0.12500039073E+03 0.  0.
          2    1    1    2  501    0 -0.47627485587E+02 -0.17726323193E+03  0.23961232763E+03  0.30183554849E+03  0.00000000000E+00 0. -1.
          1    1    1    2  502    0  0.28328975675E+02  0.40101920904E+02  0.12521519812E+04  0.12531142322E+04  0.00000000000E+00 0. -1.
         22    1    3    3    0    0 -0.47766623225E+02  0.65596746530E+02  0.12233233092E+04  0.12260116240E+04  0.00000000000E+00 0.  1.
         22    1    3    3    0    0  0.67065133137E+02  0.71564564495E+02  0.83131361325E+03  0.83707917340E+03  0.00000000000E+00 0.  1.
</event>
<event>
 7    1  0.6443388E-006  0.6927280E+02  0.7818608E-02  0.1449286E+00
          2   -1    0    0  502    0  0.00000000000E+00  0.00000000000E+00  0.33302157074E+04  0.33302157074E+04  0.00000000000E+00 0. -1.
          1   -1    0    0  501    0 -0.00000000000E+00 -0.00000000000E+00 -0.18335509730E+03  0.18335509730E+03  0.00000000000E+00 0. -1.
         25    2    1    2    0    0  0.78630031181E+02  0.61341734250E+02  0.61644469504E+03  0.63684734482E+03  0.12499995359E+03 0.  0.
          2    1    1    2  501    0 -0.33464190553E+02 -0.10429396514E+02 -0.17094687232E+03  0.17450345990E+03  0.00000000000E+00 0. -1.
          1    1    1    2  502    0 -0.45165840628E+02 -0.50912337736E+02  0.27013627873E+04  0.27022199999E+04  0.00000000000E+00 0. -1.
         22    1    3    3    0    0 -0.17557644877E+01  0.59382082195E+02  0.11964482626E+03  0.13358218012E+03  0.00000000000E+00 0. -1.
         22    1    3    3    0    0  0.80385795669E+02  0.19596520556E+01  0.49679986878E+03  0.50326516470E+03  0.00000000000E+00 0. -1.
</event>
<event>
 7    1  0.6443388E-006  0.8937314E+02  0.7818608E-02  0.1366638E+00
          2   -1    0    0  502    0  0.00000000000E+00  0.00000000000E+00  0.29747344612E+03  0.29747344612E+03  0.00000000000E+00 0. -1.
          1   -1    0    0  501    0 -0.00000000000E+00 -0.00000000000E+00 -0.69557148242E+03  0.69557148242E+03  0.00000000000E+00 0. -1.
         25    2    1    2    0    0  0.14557597790E+02  0.44723262799E+02 -0.24606302075E+03  0.27997061531E+03  0.12499776546E+03 0.  0.
          2    1    1    2  501    0  0.47137480395E+02  0.21733825300E+02 -0.42360064056E+03  0.42676902875E+03  0.00000000000E+00 0. -1.
          1    1    1    2  502    0 -0.61695078184E+02 -0.66457088099E+02  0.27156562501E+03  0.28630528447E+03  0.00000000000E+00 0. -1.
         22    1    3    3    0    0  0.23538665116E+01 -0.36131212389E+02 -0.24283615277E+02  0.43597008695E+02  0.00000000000E+00 0. -1.
         22    1    3    3    0    0  0.12203731278E+02  0.80854475187E+02 -0.22177940547E+03  0.23637360662E+03  0.00000000000E+00 0. -1.
</event>
<event>
 7    1  0.6443388E-006  0.5816760E+02  0.7818608E-02  0.1434118E+00
          2   -1    0    0  502    0  0.00000000000E+00  0.00000000000E+00  0.16681042568E+04  0.16681042568E+04  0.00000000000E+00 0. -1.
          1   -1    0    0  501    0 -0.00000000000E+00 -0.00000000000E+00 -0.39790427683E+03  0.39790427683E+03  0.00000000000E+00 0. -1.
         25    2    1    2    0    0  0.32370216212E+02 -0.28141059227E+01 -0.16946122673E+03  0.21306663836E+03  0.12499813970E+03 0.  0.
          2    1    1    2  501    0 -0.16640016556E+01 -0.46711314828E+02 -0.20347410556E+03  0.20877362733E+03  0.00000000000E+00 0. -1.
          1    1    1    2  502    0 -0.30706214556E+02  0.49525420751E+02  0.16431353122E+04  0.16441682679E+04  0.00000000000E+00 0. -1.
         22    1    3    3    0    0 -0.20868124180E+02  0.48873781533E+02 -0.88631043306E+02  0.10334208710E+03  0.00000000000E+00 0. -1.
         22    1    3    3    0    0  0.53238340391E+02 -0.51687887456E+02 -0.80830183428E+02  0.10972455127E+03  0.00000000000E+00 0. -1.
</event>
<event>
 7    1  0.6443388E-006  0.5522679E+02  0.7818608E-02  0.1432226E+00
          2   -1    0    0  502    0  0.00000000000E+00  0.00000000000E+00  0.88237810992E+02  0.88237810992E+02  0.00000000000E+00 0. -1.
          1   -1    0    0  501    0 -0.00000000000E+00 -0.00000000000E+00 -0.32251931106E+03  0.32251931106E+03  0.00000000000E+00 0. -1.
         25    2    1    2    0    0 -0.36384757254E+02 -0.19941814756E+02 -0.10598825536E+03  0.16905298026E+03  0.12499549322E+03 0.  0.
          2    1    1    2  501    0  0.53920914583E+02 -0.26815556455E+02 -0.16763972629E+03  0.17812809135E+03  0.00000000000E+00 0. -1.
          1    1    1    2  502    0 -0.17536157329E+02  0.46757371211E+02  0.39346481582E+02  0.63576050438E+02  0.00000000000E+00 0. -1.
         22    1    3    3    0    0 -0.50693723281E+02 -0.64346858278E+02 -0.84499786145E+02  0.11768851095E+03  0.00000000000E+00 0. -1.
         22    1    3    3    0    0  0.14308966027E+02  0.44405043521E+02 -0.21488469212E+02  0.51364469315E+02  0.00000000000E+00 0. -1.
</event>
<event>
 7    1  0.6443388E-006  0.9936393E+02  0.7818608E-02  0.1335754E+00
          2   -1    0    0  502    0  0.00000000000E+00  0.00000000000E+00  0.45893220046E+03  0.45893220046E+03  0.00000000000E+00 0. -1.
          1   -1    0    0  501    0 -0.00000000000E+00 -0.00000000000E+00 -0.22693026073E+03  0.22693026073E+03  0.00000000000E+00 0. -1.
         25    2    1    2    0    0 -0.35230771377E+02 -0.83034803888E+02  0.23683780083E+02  0.15595661635E+03  0.12500223533E+03 0.  0.
          2    1    1    2  501    0 -0.52415733220E+02  0.30681744301E+02 -0.14761461365E+03  0.15962096568E+03  0.00000000000E+00 0. -1.
          1    1    1    2  502    0  0.87646504597E+02  0.52353059587E+02  0.35593277330E+03  0.37028487915E+03  0.00000000000E+00 0. -1.
         22    1    3    3    0    0  0.35725562132E+02 -0.68614243824E+02  0.30664920783E+02  0.83213986876E+02  0.00000000000E+00 0. -1.
         22    1    3    3    0    0 -0.70956333509E+02 -0.14420560063E+02 -0.69811406998E+01  0.72742629476E+02  0.00000000000E+00 0. -1.
</event>
<event>
 7    1  0.6443388E-006  0.7144282E+02  0.7818608E-02  0.1522668E+00
          2   -1    0    0  502    0  0.00000000000E+00  0.00000000000E+00  0.78650279001E+03  0.78650279001E+03  0.00000000000E+00 0. -1.
          1   -1    0    0  501    0 -0.00000000000E+00 -0.00000000000E+00 -0.75879924063E+02  0.75879924063E+02  0.00000000000E+00 0. -1.
         25    2    1    2    0    0  0.70130231633E+02  0.39176486732E+02  0.18206014293E+03  0.23499893333E+03  0.12500222606E+03 0.  0.
          2    1    1    2  501    0 -0.18189548632E+02  0.90573464330E+01 -0.45043421675E+02  0.49414623747E+02  0.00000000000E+00 0. -1.
          1    1    1    2  502    0 -0.51940683001E+02 -0.48233833165E+02  0.57360614469E+03  0.57796915700E+03  0.00000000000E+00 0. -1.
         22    1    3    3    0    0  0.33664554145E+02  0.72419510635E+02  0.50498445570E+02  0.94487992525E+02  0.00000000000E+00 0. -1.
         22    1    3    3    0    0  0.36465677488E+02 -0.33243023903E+02  0.13156169736E+03  0.14051094080E+03  0.00000000000E+00 0. -1.
</event>
<event>
 7    1  0.6443388E-006  0.3395398E+03  0.7818608E-02  0.1284926E+00
          2   -1    0    0  502    0  0.00000000000E+00  0.00000000000E+00  0.23518814709E+03  0.23518814709E+03  0.00000000000E+00 0. -1.
          1   -1    0    0  501    0 -0.00000000000E+00 -0.00000000000E+00 -0.11772163974E+04  0.11772163974E+04  0.00000000000E+00 0. -1.
         25    2    1    2    0    0  0.99657512050E+02  0.30529096097E+03 -0.29749578007E+03  0.45526193685E+03  0.12500200570E+03 0.  0.
          2    1    1    2  501    0  0.12302508325E+02  0.25360908821E+02 -0.60518313243E+03  0.60583921232E+03  0.00000000000E+00 0. -1.
          1    1    1    2  502    0 -0.11196002037E+03 -0.33065186979E+03 -0.39349337785E+02  0.35130339529E+03  0.00000000000E+00 0. -1.
         22    1    3    3    0    0  0.89337902815E+02  0.27320553106E+03 -0.30668145599E+03  0.42032848884E+03  0.00000000000E+00 0. -1.
         22    1    3    3    0    0  0.10319609234E+02  0.32085429917E+02  0.91856759286E+01  0.34933448011E+02  0.00000000000E+00 0. -1.
</event>
<event>
 7    1  0.6443388E-006  0.1047830E+03  0.7818608E-02  0.1309424E+00
          2   -1    0    0  502    0  0.00000000000E+00  0.00000000000E+00  0.19383557627E+04  0.19383557627E+04  0.00000000000E+00 0. -1.
          1   -1    0    0  501    0 -0.00000000000E+00 -0.00000000000E+00 -0.61480204107E+03  0.61480204107E+03  0.00000000000E+00 0. -1.
         25    2    1    2    0    0  0.61647860609E+02  0.77962943807E+01  0.25908486369E+03  0.29429883917E+03  0.12500239687E+03 0.  0.
          2    1    1    2  501    0  0.33060288650E+02 -0.64861498810E+02 -0.59312758593E+03  0.59757872277E+03  0.00000000000E+00 0. -1.
          1    1    1    2  502    0 -0.94708149259E+02  0.57065204429E+02  0.16575964439E+04  0.16612802419E+04  0.00000000000E+00 0. -1.
         22    1    3    3    0    0  0.76859233175E+02  0.44933670642E+01  0.26625363243E+03  0.27716155732E+03  0.00000000000E+00 0.  1.
         22    1    3    3    0    0 -0.15211372566E+02  0.33029273165E+01 -0.71687687436E+01  0.17137281858E+02  0.00000000000E+00 0.  1.
</event>
<event>
 7    1  0.6443388E-006  0.8217278E+02  0.7818608E-02  0.1446216E+00
          2   -1    0    0  502    0  0.00000000000E+00  0.00000000000E+00  0.36994696650E+03  0.36994696650E+03  0.00000000000E+00 0. -1.
          1   -1    0    0  501    0 -0.00000000000E+00 -0.00000000000E+00 -0.30601480183E+03  0.30601480183E+03  0.00000000000E+00 0. -1.
         25    2    1    2    0    0  0.62590222788E+02  0.73023004487E+02 -0.60348490301E+02  0.16886973325E+03  0.12500060541E+03 0.  0.
          2    1    1    2  501    0  0.65709049480E+01 -0.29504375898E+02 -0.18486983062E+03  0.18732468941E+03  0.00000000000E+00 0. -1.
          1    1    1    2  502    0 -0.69161127736E+02 -0.43518628589E+02  0.30915048558E+03  0.31976734568E+03  0.00000000000E+00 0. -1.
         22    1    3    3    0    0  0.89093700754E+02  0.12612852399E+02 -0.47176637394E+02  0.10159924545E+03  0.00000000000E+00 0.  1.
         22    1    3    3    0    0 -0.26503477967E+02  0.60410152088E+02 -0.13171852907E+02  0.67270487799E+02  0.00000000000E+00 0.  1.
</event>
<event>
 7    1  0.6443388E-006  0.1285786E+03  0.7818608E-02  0.1232287E+00
          2   -1    0    0  502    0  0.00000000000E+00  0.00000000000E+00  0.24942005502E+03  0.24942005502E+03  0.00000000000E+00 0. -1.
          1   -1    0    0  501    0 -0.00000000000E+00 -0.00000000000E+00 -0.97158184103E+03  0.97158184103E+03  0.00000000000E+00 0. -1.
         25    2    1    2    0    0 -0.50695103776E+02  0.29240783472E+01  0.63655244156E+01  0.13506881314E+03  0.12499808239E+03 0.  0.
          2    1    1    2  501    0 -0.12618096033E+03 -0.24715053023E+02 -0.85677611411E+03  0.86637046251E+03  0.00000000000E+00 0. -1.
          1    1    1    2  502    0  0.17687606410E+03  0.21790974676E+02  0.12824880368E+03  0.21956262040E+03  0.00000000000E+00 0. -1.
         22    1    3    3    0    0  0.24192335386E+02 -0.32134642254E+02  0.28706479174E+02  0.49416255127E+02  0.00000000000E+00 0. -1.
         22    1    3    3    0    0 -0.74887439162E+02  0.35058720601E+02 -0.22340954759E+02  0.85652558012E+02  0.00000000000E+00 0. -1.
</event>
<event>
 7    1  0.6443388E-006  0.6633636E+02  0.7818608E-02  0.1460110E+00
          2   -1    0    0  502    0  0.00000000000E+00  0.00000000000E+00  0.24880900590E+03  0.24880900590E+03  0.00000000000E+00 0. -1.
          1   -1    0    0  501    0 -0.00000000000E+00 -0.00000000000E+00 -0.14833173820E+04  0.14833173820E+04  0.00000000000E+00 0. -1.
         25    2    1    2    0    0  0.84499827832E+02  0.49706419154E+02 -0.66673700179E+02  0.17228173560E+03  0.12499866046E+03 0.  0.
          2    1    1    2  501    0 -0.60625378374E+02 -0.25758435148E+02 -0.13615790049E+04  0.13631714200E+04  0.00000000000E+00 0. -1.
          1    1    1    2  502    0 -0.23874449458E+02 -0.23947984005E+02  0.19374432904E+03  0.19667323232E+03  0.00000000000E+00 0. -1.
         22    1    3    3    0    0  0.49206314804E+02  0.89001967993E+02 -0.62342384520E+02  0.11928614601E+03  0.00000000000E+00 0. -1.
         22    1    3    3    0    0  0.35293513028E+02 -0.39295548840E+02 -0.43313156586E+01  0.52995589588E+02  0.00000000000E+00 0. -1.
</event>
<event>
 7    1  0.6443388E-006  0.2775563E+03  0.7818608E-02  0.1244454E+00
          2   -1    0    0  502    0  0.00000000000E+00  0.00000000000E+00  0.68617650505E+03  0.68617650505E+03  0.00000000000E+00 0. -1.
          1   -1    0    0  501    0 -0.00000000000E+00 -0.00000000000E+00 -0.16203672338E+04  0.16203672338E+04  0.00000000000E+00 0. -1.
         25    2    1    2    0    0 -0.30349459503E+03  0.22388273822E+01 -0.16981559285E+03  0.36956219749E+03  0.12499960270E+03 0.  0.
          2    1    1    2  501    0  0.31362023660E+02 -0.40440111848E+02 -0.13179546018E+04  0.13189478047E+04  0.00000000000E+00 0. -1.
          1    1    1    2  502    0  0.27213257137E+03  0.38201284465E+02  0.55357946591E+03  0.61803373663E+03  0.00000000000E+00 0. -1.
         22    1    3    3    0    0 -0.15803289810E+02 -0.34099625433E+02 -0.12179702451E+02  0.39507892569E+02  0.00000000000E+00 0.  1.
         22    1    3    3    0    0 -0.28769130522E+03  0.36338452815E+02 -0.15763589040E+03  0.33005430492E+03  0.00000000000E+00 0.  1.
</event>
<event>
 7    1  0.6443388E-006  0.1163426E+03  0.7818608E-02  0.1265693E+00
          2   -1    0    0  502    0  0.00000000000E+00  0.00000000000E+00  0.54053952646E+03  0.54053952646E+03  0.00000000000E+00 0. -1.
          1   -1    0    0  501    0 -0.00000000000E+00 -0.00000000000E+00 -0.76071969496E+03  0.76071969496E+03  0.00000000000E+00 0. -1.
         25    2    1    2    0    0 -0.49998935050E+02  0.20922429389E+02 -0.15040074490E+03  0.20294043682E+03  0.12500718088E+03 0.  0.
          2    1    1    2  501    0 -0.16103472377E+02 -0.11666209364E+03 -0.57138616000E+03  0.58339652875E+03  0.00000000000E+00 0. -1.
          1    1    1    2  502    0  0.66102407427E+02  0.95739664246E+02  0.50160673640E+03  0.51492225585E+03  0.00000000000E+00 0. -1.
         22    1    3    3    0    0  0.29382890332E+02  0.10538579946E+02  0.14809567550E+01  0.31250746303E+02  0.00000000000E+00 0.  1.
         22    1    3    3    0    0 -0.79381825382E+02  0.10383849443E+02 -0.15188170166E+03  0.17168969051E+03  0.00000000000E+00 0.  1.
</event>
<event>
 7    1  0.6443388E-006  0.7707901E+02  0.7818608E-02  0.1417077E+00
          2   -1    0    0  502    0  0.00000000000E+00  0.00000000000E+00  0.14267168150E+04  0.14267168150E+04  0.00000000000E+00 0. -1.
          1   -1    0    0  501    0 -0.00000000000E+00 -0.00000000000E+00 -0.27907219598E+03  0.27907219598E+03  0.00000000000E+00 0. -1.
         25    2    1    2    0    0 -0.76525110747E+02 -0.84184378348E+02  0.68417221657E+02  0.18234400335E+03  0.12500126882E+03 0.  0.
          2    1    1    2  501    0  0.43379528891E+02  0.61490653007E+02 -0.21541433127E+03  0.22818023150E+03  0.00000000000E+00 0. -1.
          1    1    1    2  502    0  0.33145581856E+02  0.22693725341E+02  0.12946417287E+04  0.12952647762E+04  0.00000000000E+00 0. -1.
         22    1    3    3    0    0 -0.67450571190E+01 -0.89309739056E+02  0.67868628786E+02  0.11237382284E+03  0.00000000000E+00 0. -1.
         22    1    3    3    0    0 -0.69780053628E+02  0.51253607083E+01  0.54859287115E+00  0.69970180512E+02  0.00000000000E+00 0. -1.
</event>
<event>
 7    1  0.6443388E-006  0.2011952E+03  0.7818608E-02  0.1289520E+00
          2   -1    0    0  502    0  0.00000000000E+00  0.00000000000E+00  0.11098859940E+04  0.11098859940E+04  0.00000000000E+00 0. -1.
          1   -1    0    0  501    0 -0.00000000000E+00 -0.00000000000E+00 -0.29283190824E+03  0.29283190824E+03  0.00000000000E+00 0. -1.
         25    2    1    2    0    0  0.42300114112E+02 -0.18274578585E+03  0.27165673682E+03  0.35299865049E+03  0.12500137076E+03 0.  0.
          2    1    1    2  501    0 -0.17493312188E+01  0.20350967306E+03 -0.21029863922E+03  0.29265126831E+03  0.00000000000E+00 0. -1.
          1    1    1    2  502    0 -0.40550782893E+02 -0.20763887213E+02  0.75569598812E+03  0.75706798338E+03  0.00000000000E+00 0. -1.
         22    1    3    3    0    0  0.83821874733E+02 -0.88663722877E+02  0.15975690804E+03  0.20102147175E+03  0.00000000000E+00 0. -1.
         22    1    3    3    0    0 -0.41521760621E+02 -0.94082062968E+02  0.11189982878E+03  0.15197717874E+03  0.00000000000E+00 0. -1.
</event>
<event>
 7    1  0.6443388E-006  0.5426369E+02  0.7818608E-02  0.1502294E+00
          2   -1    0    0  502    0  0.00000000000E+00  0.00000000000E+00  0.32146063745E+02  0.32146063745E+02  0.00000000000E+00 0. -1.
          1   -1    0    0  501    0 -0.00000000000E+00 -0.00000000000E+00 -0.73242075139E+03  0.73242075139E+03  0.00000000000E+00 0. -1.
         25    2    1    2    0    0 -0.13668868599E+02 -0.22598118101E+02 -0.47238162211E+03  0.48935390728E+03  0.12500134698E+03 0.  0.
          2    1    1    2  501    0 -0.23587817343E+02 -0.19649991395E+02 -0.21532011672E+03  0.21749772402E+03  0.00000000000E+00 0. -1.
          1    1    1    2  502    0  0.37256685943E+02  0.42248109496E+02 -0.12572948810E+02  0.57715183836E+02  0.00000000000E+00 0. -1.
         22    1    3    3    0    0 -0.64553414922E+02 -0.27880317426E+02 -0.34481362690E+03  0.35191034764E+03  0.00000000000E+00 0. -1.
         22    1    3    3    0    0  0.50884546323E+02  0.52821993251E+01 -0.12756799521E+03  0.13744355964E+03  0.00000000000E+00 0. -1.
</event>
<event>
 7    1  0.6443388E-006  0.2029910E+03  0.7818608E-02  0.1301687E+00
          2   -1    0    0  502    0  0.00000000000E+00  0.00000000000E+00  0.34250329350E+03  0.34250329350E+03  0.00000000000E+00 0. -1.
          1   -1    0    0  501    0 -0.00000000000E+00 -0.00000000000E+00 -0.87549865520E+03  0.87549865520E+03  0.00000000000E+00 0. -1.
         25    2    1    2    0    0  0.39103505493E+02  0.16609286596E+03 -0.12080422678E+03  0.24358724515E+03  0.12500064211E+03 0.  0.
          2    1    1    2  501    0 -0.47678678781E+00  0.40329608799E+02 -0.65337284843E+03  0.65461651654E+03  0.00000000000E+00 0. -1.
          1    1    1    2  502    0 -0.38626718705E+02 -0.20642247476E+03  0.24118171351E+03  0.31979818701E+03  0.00000000000E+00 0. -1.
         22    1    3    3    0    0  0.57866900641E+02  0.15707863630E+02 -0.33240981285E+02  0.68558573544E+02  0.00000000000E+00 0. -1.
         22    1    3    3    0    0 -0.18763395148E+02  0.15038500233E+03 -0.87563245491E+02  0.17502867161E+03  0.00000000000E+00 0. -1.
</event>
<event>
 7    1  0.6443388E-006  0.1137626E+03  0.7818608E-02  0.1367008E+00
          2   -1    0    0  502    0  0.00000000000E+00  0.00000000000E+00  0.61646444429E+03  0.61646444429E+03  0.00000000000E+00 0. -1.
          1   -1    0    0  501    0 -0.00000000000E+00 -0.00000000000E+00 -0.91210701218E+02  0.91210701218E+02  0.00000000000E+00 0. -1.
         25    2    1    2    0    0 -0.51854038529E+02 -0.77485866246E+02  0.37228846402E+03  0.40362899755E+03  0.12499906575E+03 0.  0.
          2    1    1    2  501    0  0.31190001653E+02  0.11249562714E+03 -0.26771027977E+02  0.11976965504E+03  0.00000000000E+00 0. -1.
          1    1    1    2  502    0  0.20664036876E+02 -0.35009760898E+02  0.17973630703E+03  0.18427649292E+03  0.00000000000E+00 0. -1.
         22    1    3    3    0    0  0.34668590295E+02 -0.57330434892E+02  0.16739798747E+03  0.18030744889E+03  0.00000000000E+00 0.  1.
         22    1    3    3    0    0 -0.86522628824E+02 -0.20155431354E+02  0.20489047655E+03  0.22332154866E+03  0.00000000000E+00 0.  1.
</event>
<event>
 7    1  0.6443388E-006  0.5845147E+02  0.7818608E-02  0.1469808E+00
          2   -1    0    0  502    0  0.00000000000E+00  0.00000000000E+00  0.47705003272E+03  0.47705003272E+03  0.00000000000E+00 0. -1.
          1   -1    0    0  501    0 -0.00000000000E+00 -0.00000000000E+00 -0.55799120187E+03  0.55799120187E+03  0.00000000000E+00 0. -1.
         25    2    1    2    0    0  0.70435652409E+02 -0.15332927974E+02 -0.31426595963E+02  0.14768014062E+03  0.12500205274E+03 0.  0.
          2    1    1    2  501    0 -0.55690475886E+02 -0.17272053021E+02 -0.46585295208E+03  0.46948772708E+03  0.00000000000E+00 0. -1.
          1    1    1    2  502    0 -0.14745176523E+02  0.32604980995E+02  0.41633837889E+03  0.41787336689E+03  0.00000000000E+00 0. -1.
         22    1    3    3    0    0  0.52187516375E+02 -0.69595419758E+02 -0.16866207916E+02  0.88608849931E+02  0.00000000000E+00 0. -1.
         22    1    3    3    0    0  0.18248136034E+02  0.54262491784E+02 -0.14560388048E+02  0.59071290687E+02  0.00000000000E+00 0. -1.
</event>
<event>
 7    1  0.6443388E-006  0.1199131E+03  0.7818608E-02  0.1288937E+00
          2   -1    0    0  502    0  0.00000000000E+00  0.00000000000E+00  0.75512990432E+02  0.75512990432E+02  0.00000000000E+00 0. -1.
          1   -1    0    0  501    0 -0.00000000000E+00 -0.00000000000E+00 -0.26885688807E+04  0.26885688807E+04  0.00000000000E+00 0. -1.
         25    2    1    2    0    0 -0.79801367839E+02  0.15174190952E+03 -0.31463005643E+03  0.37948703130E+03  0.12499787638E+03 0.  0.
          2    1    1    2  501    0  0.90657149234E+02 -0.75654739098E+02 -0.23044762804E+04  0.23074993575E+04  0.00000000000E+00 0. -1.
          1    1    1    2  502    0 -0.10855781395E+02 -0.76087170424E+02  0.60504464968E+01  0.77095482330E+02  0.00000000000E+00 0. -1.
         22    1    3    3    0    0  0.31046328558E+02  0.11734622076E+02 -0.41145249416E+02  0.52863100758E+02  0.00000000000E+00 0.  1.
         22    1    3    3    0    0 -0.11084769640E+03  0.14000728745E+03 -0.27348480702E+03  0.32662393054E+03  0.00000000000E+00 0.  1.
</event>
<event>
 7    1  0.6443388E-006  0.2019851E+03  0.7818608E-02  0.1297134E+00
          2   -1    0    0  502    0  0.00000000000E+00  0.00000000000E+00  0.12757556207E+04  0.12757556207E+04  0.00000000000E+00 0. -1.
          1   -1    0    0  501    0 -0.00000000000E+00 -0.00000000000E+00 -0.49873715600E+03  0.49873715600E+03  0.00000000000E+00 0. -1.
         25    2    1    2    0    0  0.18831333600E+03  0.14174846110E+03  0.86906509629E+01  0.26693623299E+03  0.12499954532E+03 0.  0.
          2    1    1    2  501    0 -0.14853685405E+03 -0.12743880501E+03 -0.34327645817E+03  0.39514879827E+03  0.00000000000E+00 0. -1.
          1    1    1    2  502    0 -0.39776481951E+02 -0.14309656087E+02  0.11116042719E+04  0.11124077454E+04  0.00000000000E+00 0. -1.
         22    1    3    3    0    0  0.12671193011E+03  0.14945713078E+03  0.35813311188E+02  0.19918820355E+03  0.00000000000E+00 0.  1.
         22    1    3    3    0    0  0.61601405893E+02 -0.77086696840E+01 -0.27122660225E+02  0.67748029448E+02  0.00000000000E+00 0.  1.
</event>
<event>
 7    1  0.6443388E-006  0.4816914E+02  0.7818608E-02  0.1559482E+00
          2   -1    0    0  502    0  0.00000000000E+00  0.00000000000E+00  0.37869510198E+03  0.37869510198E+03  0.00000000000E+00 0. -1.
          1   -1    0    0  501    0 -0.00000000000E+00 -0.00000000000E+00 -0.66731633463E+03  0.66731633463E+03  0.00000000000E+00 0. -1.
         25    2    1    2    0    0 -0.27568303891E+02 -0.29465046210E+02  0.74492205525E+02  0.15100468834E+03  0.12500050756E+03 0.  0.
          2    1    1    2  501    0  0.11472526838E+02  0.46892715234E+02 -0.62760220758E+03  0.62945617526E+03  0.00000000000E+00 0. -1.
          1    1    1    2  502    0  0.16095777054E+02 -0.17427669024E+02  0.26448876940E+03  0.26555057301E+03  0.00000000000E+00 0. -1.
         22    1    3    3    0    0 -0.52455948820E+02  0.32618531154E+02  0.20620338872E+02  0.65121375266E+02  0.00000000000E+00 0.  1.
         22    1    3    3    0    0  0.24887644929E+02 -0.62083577364E+02  0.53871866653E+02  0.85883313077E+02  0.00000000000E+00 0.  1.
</event>
<event>
 7    1  0.6443388E-006  0.1931281E+03  0.7818608E-02  0.1212562E+00
          2   -1    0    0  502    0  0.00000000000E+00  0.00000000000E+00  0.20109823150E+04  0.20109823150E+04  0.00000000000E+00 0. -1.
          1   -1    0    0  501    0 -0.00000000000E+00 -0.00000000000E+00 -0.23307848265E+03  0.23307848265E+03  0.00000000000E+00 0. -1.
         25    2    1    2    0    0  0.24769530922E+03  0.59594916009E+02  0.27238745602E+03  0.39334913564E+03  0.12499638429E+03 0.  0.
          2    1    1    2  501    0 -0.60171680547E+02 -0.82754549862E+02 -0.15157825507E+03  0.18287950698E+03  0.00000000000E+00 0. -1.
          1    1    1    2  502    0 -0.18752362868E+03  0.23159633853E+02  0.16570946314E+04  0.16678321550E+04  0.00000000000E+00 0. -1.
         22    1    3    3    0    0 -0.13574188641E+02  0.74174850923E+01  0.60007346795E+01  0.16591759975E+02  0.00000000000E+00 0.  1.
         22    1    3    3    0    0  0.26126949786E+03  0.52177430917E+02  0.26638672134E+03  0.37675737566E+03  0.00000000000E+00 0.  1.
</event>
<event>
 7    1  0.6443388E-006  0.7979050E+02  0.7818608E-02  0.1355397E+00
          2   -1    0    0  502    0  0.00000000000E+00  0.00000000000E+00  0.21610258821E+04  0.21610258821E+04  0.00000000000E+00 0. -1.
          1   -1    0    0  501    0 -0.00000000000E+00 -0.00000000000E+00 -0.71714465272E+02  0.71714465272E+02  0.00000000000E+00 0. -1.
         25    2    1    2    0    0 -0.11895662065E+03  0.47230703537E+02  0.23762033046E+03  0.29743597548E+03  0.12499328425E+03 0.  0.
          2    1    1    2  501    0  0.74565458162E+02 -0.12792283428E+01 -0.75574423978E+01  0.74958381197E+02  0.00000000000E+00 0. -1.
          1    1    1    2  502    0  0.44391162491E+02 -0.45951475194E+02  0.18592485288E+04  0.18603459907E+04  0.00000000000E+00 0. -1.
         22    1    3    3    0    0 -0.12422609076E+03  0.78623108121E+02  0.19256633661E+03  0.24227155993E+03  0.00000000000E+00 0.  1.
         22    1    3    3    0    0  0.52694701101E+01 -0.31392404584E+02  0.45053993845E+02  0.55164415543E+02  0.00000000000E+00 0.  1.
</event>
<event>
 7    1  0.6443388E-006  0.1464275E+03  0.7818608E-02  0.1407481E+00
          2   -1    0    0  502    0  0.00000000000E+00  0.00000000000E+00  0.54872548632E+03  0.54872548632E+03  0.00000000000E+00 0. -1.
          1   -1    0    0  501    0 -0.00000000000E+00 -0.00000000000E+00 -0.60705633156E+03  0.60705633156E+03  0.00000000000E+00 0. -1.
         25    2    1    2    0    0  0.14764078204E+03  0.75022233302E+02  0.16511986392E+03  0.26517035654E+03  0.12499845006E+03 0.  0.
          2    1    1    2  501    0 -0.13410315837E+03 -0.56696443209E+02 -0.54710987642E+03  0.56615135841E+03  0.00000000000E+00 0. -1.
          1    1    1    2  502    0 -0.13537623663E+02 -0.18325790093E+02  0.32365916726E+03  0.32446010292E+03  0.00000000000E+00 0. -1.
         22    1    3    3    0    0 -0.58061112262E+01 -0.67667144878E+01  0.62771858583E+02  0.63401936741E+02  0.00000000000E+00 0.  1.
         22    1    3    3    0    0  0.15344689326E+03  0.81788947789E+02  0.10234800533E+03  0.20176841980E+03  0.00000000000E+00 0.  1.
</event>
<event>
 7    1  0.6443388E-006  0.5347118E+02  0.7818608E-02  0.1484309E+00
          2   -1    0    0  502    0  0.00000000000E+00  0.00000000000E+00  0.42937816962E+04  0.42937816962E+04  0.00000000000E+00 0. -1.
          1   -1    0    0  501    0 -0.00000000000E+00 -0.00000000000E+00 -0.17253058056E+02  0.17253058056E+02  0.00000000000E+00 0. -1.
         25    2    1    2    0    0  0.21546813953E+02  0.35288572317E+01  0.24171504641E+04  0.24204788554E+04  0.12499922123E+03 0.  0.
          2    1    1    2  501    0 -0.45292660512E+02 -0.29639986974E+02  0.32088803621E+02  0.62925712089E+02  0.00000000000E+00 0. -1.
          1    1    1    2  502    0  0.23745846559E+02  0.26111129743E+02  0.18272893703E+04  0.18276301867E+04  0.00000000000E+00 0. -1.
         22    1    3    3    0    0  0.18630521177E+02  0.89120662191E+01  0.62566562117E+02  0.65886993700E+02  0.00000000000E+00 0.  1.
         22    1    3    3    0    0  0.29162927761E+01 -0.53832089874E+01  0.23545839020E+04  0.23545918617E+04  0.00000000000E+00 0.  1.
</event>
<event>
 7    1  0.6443388E-006  0.4268847E+02  0.7818608E-02  0.1530158E+00
          2   -1    0    0  502    0  0.00000000000E+00  0.00000000000E+00  0.99550453272E+03  0.99550453272E+03  0.00000000000E+00 0. -1.
          1   -1    0    0  501    0 -0.00000000000E+00 -0.00000000000E+00 -0.58294767991E+02  0.58294767991E+02  0.00000000000E+00 0. -1.
         25    2    1    2    0    0 -0.38851496323E+02 -0.38374719793E+02  0.29616069983E+03  0.32605843071E+03  0.12498352781E+03 0.  0.
          2    1    1    2  501    0  0.32147391668E+02 -0.37003591131E+01 -0.36542647031E+02  0.48810987499E+02  0.00000000000E+00 0. -1.
          1    1    1    2  502    0  0.67041046548E+01  0.42075078906E+02  0.67759171193E+03  0.67892988251E+03  0.00000000000E+00 0. -1.
         22    1    3    3    0    0 -0.31521856058E+02 -0.34030061426E+02  0.21260612798E+02  0.51026327974E+02  0.00000000000E+00 0. -1.
         22    1    3    3    0    0 -0.73296402654E+01 -0.43446583677E+01  0.27490008703E+03  0.27503210273E+03  0.00000000000E+00 0. -1.
</event>
<event>
 7    1  0.6443388E-006  0.1699306E+03  0.7818608E-02  0.1208396E+00
          2   -1    0    0  502    0  0.00000000000E+00  0.00000000000E+00  0.13327785940E+04  0.13327785940E+04  0.00000000000E+00 0. -1.
          1   -1    0    0  501    0 -0.00000000000E+00 -0.00000000000E+00 -0.16253022242E+04  0.16253022242E+04  0.00000000000E+00 0. -1.
         25    2    1    2    0    0 -0.19201934793E+03 -0.94291246924E+02  0.45302167126E+02  0.25187235840E+03  0.12500051741E+03 0.  0.
          2    1    1    2  501    0  0.82968728026E+02  0.14802312161E+03 -0.15141450561E+04  0.15236239382E+04  0.00000000000E+00 0. -1.
          1    1    1    2  502    0  0.10905061991E+03 -0.53731874688E+02  0.11763192588E+04  0.11825845216E+04  0.00000000000E+00 0. -1.
         22    1    3    3    0    0 -0.14661883443E+03 -0.45722726114E+02 -0.24443726361E+02  0.15551574214E+03  0.00000000000E+00 0.  1.
         22    1    3    3    0    0 -0.45400513500E+02 -0.48568520810E+02  0.69745893487E+02  0.96356616265E+02  0.00000000000E+00 0.  1.
</event>
<event>
 7    1  0.6443388E-006  0.4605781E+02  0.7818608E-02  0.1479236E+00
          2   -1    0    0  502    0  0.00000000000E+00  0.00000000000E+00  0.33449630149E+03  0.33449630149E+03  0.00000000000E+00 0. -1.
          1   -1    0    0  501    0 -0.00000000000E+00 -0.00000000000E+00 -0.16234115173E+03  0.16234115173E+03  0.00000000000E+00 0. -1.
         25    2    1    2    0    0 -0.18702116053E+02  0.12750362888E+02  0.12986625990E+03  0.18166789098E+03  0.12500254499E+03 0.  0.
          2    1    1    2  501    0 -0.71025974022E+01 -0.46476688165E+02 -0.12972974346E+03  0.13798672317E+03  0.00000000000E+00 0. -1.
          1    1    1    2  502    0  0.25804713455E+02  0.33726325277E+02  0.17201863332E+03  0.17718283908E+03  0.00000000000E+00 0. -1.
         22    1    3    3    0    0 -0.16157727572E+00  0.32169965178E+02  0.14656196836E+03  0.15005113573E+03  0.00000000000E+00 0.  1.
         22    1    3    3    0    0 -0.18540538777E+02 -0.19419602290E+02 -0.16695708457E+02  0.31616755244E+02  0.00000000000E+00 0.  1.
</event>
<event>
 7    1  0.6443388E-006  0.1398803E+03  0.7818608E-02  0.1326876E+00
          2   -1    0    0  502    0  0.00000000000E+00  0.00000000000E+00  0.16303689635E+04  0.16303689635E+04  0.00000000000E+00 0. -1.
          1   -1    0    0  501    0 -0.00000000000E+00 -0.00000000000E+00 -0.37535824538E+03  0.37535824538E+03  0.00000000000E+00 0. -1.
         25    2    1    2    0    0  0.12790700667E+03  0.13792284890E+02 -0.51424875962E+02  0.18660062442E+03  0.12499938275E+03 0.  0.
          2    1    1    2  501    0 -0.13173544376E+03 -0.60274888981E+02 -0.23549691774E+03  0.27648885628E+03  0.00000000000E+00 0. -1.
          1    1    1    2  502    0  0.38284370877E+01  0.46482604091E+02  0.15419325118E+04  0.15426377282E+04  0.00000000000E+00 0. -1.
         22    1    3    3    0    0  0.27116775706E+02 -0.42143043693E+02  0.16555168104E+02  0.52777165966E+02  0.00000000000E+00 0.  1.
         22    1    3    3    0    0  0.10079023096E+03  0.55935328583E+02 -0.67980044066E+02  0.13382345845E+03  0.00000000000E+00 0.  1.
</event>
<event>
 7    1  0.6443388E-006  0.4948235E+02  0.7818608E-02  0.1509241E+00
          2   -1    0    0  502    0  0.00000000000E+00  0.00000000000E+00  0.47169003197E+03  0.47169003197E+03  0.00000000000E+00 0. -1.
          1   -1    0    0  501    0 -0.00000000000E+00 -0.00000000000E+00 -0.92871913413E+03  0.92871913413E+03  0.00000000000E+00 0. -1.
         25    2    1    2    0    0 -0.14952704711E+02 -0.48234202721E+02  0.19466142106E+03  0.23679110543E+03  0.12500734806E+03 0.  0.
          2    1    1    2  501    0 -0.26027020202E+02  0.18804543611E+02 -0.90488062812E+03  0.90545014650E+03  0.00000000000E+00 0. -1.
          1    1    1    2  502    0  0.40979724913E+02  0.29429659110E+02  0.25319010490E+03  0.25816791417E+03  0.00000000000E+00 0. -1.
         22    1    3    3    0    0 -0.81453443656E+01 -0.84162886802E+02  0.17704608974E+03  0.19620156992E+03  0.00000000000E+00 0. -1.
         22    1    3    3    0    0 -0.68073603457E+01  0.35928684081E+02  0.17615331321E+02  0.40589535501E+02  0.00000000000E+00 0. -1.
</event>
<event>
 7    1  0.6443388E-006  0.1528295E+03  0.7818608E-02  0.1258418E+00
          2   -1    0    0  502    0  0.00000000000E+00  0.00000000000E+00  0.20129729065E+03  0.20129729065E+03  0.00000000000E+00 0. -1.
          1   -1    0    0  501    0 -0.00000000000E+00 -0.00000000000E+00 -0.28619603395E+04  0.28619603395E+04  0.00000000000E+00 0. -1.
         25    2    1    2    0    0 -0.52839149408E+02 -0.20445777216E+03 -0.16808076040E+03  0.29744128505E+03  0.12500087891E+03 0.  0.
          2    1    1    2  501    0 -0.78129278952E+01  0.15097177222E+03 -0.26148551233E+04  0.26192214175E+04  0.00000000000E+00 0. -1.
          1    1    1    2  502    0  0.60652077303E+02  0.53485999937E+02  0.12227283485E+03  0.14659492765E+03  0.00000000000E+00 0. -1.
         22    1    3    3    0    0 -0.47415874327E+02 -0.57803827644E+02 -0.12296378893E+03  0.14390844664E+03  0.00000000000E+00 0. -1.
         22    1    3    3    0    0 -0.54232750811E+01 -0.14665394451E+03 -0.45116971479E+02  0.15353283841E+03  0.00000000000E+00 0. -1.
</event>
<event>
 7    1  0.6443388E-006  0.7712231E+02  0.7818608E-02  0.1468745E+00
          2   -1    0    0  502    0  0.00000000000E+00  0.00000000000E+00  0.56271254312E+03  0.56271254312E+03  0.00000000000E+00 0. -1.
          1   -1    0    0  501    0 -0.00000000000E+00 -0.00000000000E+00 -0.57459109583E+02  0.57459109583E+02  0.00000000000E+00 0. -1.
         25    2    1    2    0    0 -0.13834994152E+02  0.72262378708E+02  0.11977244037E+03  0.18810464514E+03  0.12499864644E+03 0.  0.
          2    1    1    2  501    0 -0.26736633052E+02 -0.56567518491E+01 -0.99009224325E+01  0.29066727602E+02  0.00000000000E+00 0. -1.
          1    1    1    2  502    0  0.40571627204E+02 -0.66605626859E+02  0.39538191560E+03  0.40300027996E+03  0.00000000000E+00 0. -1.
         22    1    3    3    0    0 -0.64912777776E+01  0.92607901082E+02  0.32762873883E+02  0.98446767012E+02  0.00000000000E+00 0.  1.
         22    1    3    3    0    0 -0.73437163740E+01 -0.20345522375E+02  0.87009566487E+02  0.89657878132E+02  0.00000000000E+00 0.  1.
</event>
<event>
 7    1  0.6443388E-006  0.6941232E+02  0.7818608E-02  0.1511448E+00
          2   -1    0    0  502    0  0.00000000000E+00  0.00000000000E+00  0.53279585070E+02  0.53279585070E+02  0.00000000000E+00 0. -1.
          1   -1    0    0  501    0 -0.00000000000E+00 -0.00000000000E+00 -0.14093385611E+04  0.14093385611E+04  0.00000000000E+00 0. -1.
         25    2    1    2    0    0  0.58990103344E+02  0.26748334729E+02 -0.14759100654E+03  0.20396995945E+03  0.12500133377E+03 0.  0.
          2    1    1    2  501    0  0.12104316699E+02 -0.19026412532E+02 -0.11822744698E+04  0.11824895098E+04  0.00000000000E+00 0. -1.
          1    1    1    2  502    0 -0.71094420043E+02 -0.77219221980E+01 -0.26193499696E+02  0.76158676919E+02  0.00000000000E+00 0. -1.
         22    1    3    3    0    0  0.69567625639E+02 -0.31564691163E+02 -0.55376343445E+02  0.94353185843E+02  0.00000000000E+00 0.  1.
         22    1    3    3    0    0 -0.10577522295E+02  0.58313025893E+02 -0.92214663093E+02  0.10961677361E+03  0.00000000000E+00 0.  1.
</event>
<event>
 7    1  0.6443388E-006  0.4467758E+02  0.7818608E-02  0.1595176E+00
          2   -1    0    0  502    0  0.00000000000E+00  0.00000000000E+00  0.94008361172E+03  0.94008361172E+03  0.00000000000E+00 0. -1.
          1   -1    0    0  501    0 -0.00000000000E+00 -0.00000000000E+00 -0.14523840126E+04  0.14523840126E+04  0.00000000000E+00 0. -1.
         25    2    1    2    0    0  0.28167397941E+02 -0.24154964547E+02 -0.67536600713E+03  0.68783807611E+03  0.12500044299E+03 0.  0.
          2    1    1    2  501    0 -0.11187909750E+02 -0.17180234617E+02 -0.77011087616E+03  0.77038372995E+03  0.00000000000E+00 0. -1.
          1    1    1    2  502    0 -0.16979488191E+02  0.41335199163E+02  0.93317648238E+03  0.93424581829E+03  0.00000000000E+00 0. -1.
         22    1    3    3    0    0  0.21775218446E+02 -0.60469980169E+02 -0.18051809730E+03  0.19161827182E+03  0.00000000000E+00 0. -1.
         22    1    3    3    0    0  0.63921794953E+01  0.36315015622E+02 -0.49484790982E+03  0.49621980429E+03  0.00000000000E+00 0. -1.
</event>
<event>
 7    1  0.6443388E-006  0.5707714E+02  0.7818608E-02  0.1461411E+00
          2   -1    0    0  502    0  0.00000000000E+00  0.00000000000E+00  0.68443978492E+03  0.68443978492E+03  0.00000000000E+00 0. -1.
          1   -1    0    0  501    0 -0.00000000000E+00 -0.00000000000E+00 -0.40005853482E+03  0.40005853482E+03  0.00000000000E+00 0. -1.
         25    2    1    2    0    0 -0.40146357760E+02 -0.24775529277E+02 -0.23127167955E+03  0.26709513926E+03  0.12501066659E+03 0.  0.
          2    1    1    2  501    0 -0.16030104704E+02  0.35478750963E+02 -0.14711162016E+03  0.15217599946E+03  0.00000000000E+00 0. -1.
          1    1    1    2  502    0  0.56176462464E+02 -0.10703221686E+02  0.66276454981E+03  0.66522718102E+03  0.00000000000E+00 0. -1.
         22    1    3    3    0    0  0.25626429214E+02 -0.51741646067E+02 -0.13975937092E+03  0.15121704128E+03  0.00000000000E+00 0. -1.
         22    1    3    3    0    0 -0.65772786974E+02  0.26966116791E+02 -0.91512308627E+02  0.11587809798E+03  0.00000000000E+00 0. -1.
</event>
<event>
 7    1  0.6443388E-006  0.1045764E+03  0.7818608E-02  0.1447553E+00
          2   -1    0    0  502    0  0.00000000000E+00  0.00000000000E+00  0.14660447616E+04  0.14660447616E+04  0.00000000000E+00 0. -1.
          1   -1    0    0  501    0 -0.00000000000E+00 -0.00000000000E+00 -0.89962526696E+02  0.89962526696E+02  0.00000000000E+00 0. -1.
         25    2    1    2    0    0 -0.13915991802E+02 -0.12586275665E+03  0.67476403701E+03  0.69782915887E+03  0.12499576387E+03 0.  0.
          2    1    1    2  501    0  0.15092155492E+02  0.10237444307E+03 -0.44030274808E+02  0.11245872510E+03  0.00000000000E+00 0. -1.
          1    1    1    2  502    0 -0.11761636906E+01  0.23488313585E+02  0.74534847269E+03  0.74571940432E+03  0.00000000000E+00 0. -1.
         22    1    3    3    0    0 -0.46543516350E+02 -0.55540509395E+02  0.51693111178E+03  0.52198546093E+03  0.00000000000E+00 0.  1.
         22    1    3    3    0    0  0.32627524549E+02 -0.70322247257E+02  0.15783292523E+03  0.17584369794E+03  0.00000000000E+00 0.  1.
</event>
<event>
 7    1  0.6443388E-006  0.7371926E+02  0.7818608E-02  0.1421491E+00
          2   -1    0    0  502    0  0.00000000000E+00  0.00000000000E+00  0.12062735082E+03  0.12062735082E+03  0.00000000000E+00 0. -1.
          1   -1    0    0  501    0 -0.00000000000E+00 -0.00000000000E+00 -0.52023089797E+03  0.52023089797E+03  0.00000000000E+00 0. -1.
         25    2    1    2    0    0  0.52237991411E+02  0.26766243521E+01 -0.96103780653E+01  0.13584286480E+03  0.12499980995E+03 0.  0.
          2    1    1    2  501    0  0.24290225386E+02  0.32529111220E+02 -0.41512740920E+03  0.41710780860E+03  0.00000000000E+00 0. -1.
          1    1    1    2  502    0 -0.76528216797E+02 -0.35205735572E+02  0.25134240113E+02  0.87907575381E+02  0.00000000000E+00 0. -1.
         22    1    3    3    0    0  0.41518161418E+02 -0.58176709589E+02 -0.17410126670E+02  0.73562217047E+02  0.00000000000E+00 0.  1.
         22    1    3    3    0    0  0.10719829993E+02  0.60853333941E+02  0.77997486050E+01  0.62280647758E+02  0.00000000000E+00 0.  1.
</event>
<event>
 7    1  0.6443388E-006  0.1996013E+03  0.7818608E-02  0.1242477E+00
          2   -1    0    0  502    0  0.00000000000E+00  0.00000000000E+00  0.17104453769E+03  0.17104453769E+03  0.00000000000E+00 0. -1.
          1   -1    0    0  501    0 -0.00000000000E+00 -0.00000000000E+00 -0.14456273830E+04  0.14456273830E+04  0.00000000000E+00 0. -1.
         25    2    1    2    0    0  0.16120190911E+03  0.46197704756E+02 -0.68283949268E+02  0.22001737209E+03  0.12499865147E+03 0.  0.
          2    1    1    2  501    0  0.49210338021E+02  0.53373197161E+02 -0.11562826198E+04  0.11585593866E+04  0.00000000000E+00 0. -1.
          1    1    1    2  502    0 -0.21041224713E+03 -0.99570901917E+02 -0.50016276221E+02  0.23809516194E+03  0.00000000000E+00 0. -1.
         22    1    3    3    0    0  0.83929472079E+02 -0.11235302064E+02  0.22574896386E+02  0.87635690462E+02  0.00000000000E+00 0. -1.
         22    1    3    3    0    0  0.77272437029E+02  0.57433006820E+02 -0.90858845654E+02  0.13238168163E+03  0.00000000000E+00 0. -1.
</event>
<event>
 7    1  0.6443388E-006  0.8695764E+02  0.7818608E-02  0.1323481E+00
          2   -1    0    0  502    0  0.00000000000E+00  0.00000000000E+00  0.48477184241E+03  0.48477184241E+03  0.00000000000E+00 0. -1.
          1   -1    0    0  501    0 -0.00000000000E+00 -0.00000000000E+00 -0.37929633904E+03  0.37929633904E+03  0.00000000000E+00 0. -1.
         25    2    1    2    0    0 -0.84133631987E+02  0.99009675684E+02 -0.98563375783E+01  0.18056525162E+03  0.12500111517E+03 0.  0.
          2    1    1    2  501    0  0.81132016901E+01 -0.84909470657E+02 -0.27379270589E+03  0.28677149100E+03  0.00000000000E+00 0. -1.
          1    1    1    2  502    0  0.76020430297E+02 -0.14100205027E+02  0.38912454684E+03  0.39673143883E+03  0.00000000000E+00 0. -1.
         22    1    3    3    0    0 -0.46332904543E+02  0.10753958665E+03  0.34106034369E+02  0.12196197080E+03  0.00000000000E+00 0.  1.
         22    1    3    3    0    0 -0.37800727444E+02 -0.85299109667E+01 -0.43962371947E+02  0.58603280827E+02  0.00000000000E+00 0.  1.
</event>
<event>
 7    1  0.6443388E-006  0.1155520E+03  0.7818608E-02  0.1360556E+00
          2   -1    0    0  502    0  0.00000000000E+00  0.00000000000E+00  0.26496690839E+03  0.26496690839E+03  0.00000000000E+00 0. -1.
          1   -1    0    0  501    0 -0.00000000000E+00 -0.00000000000E+00 -0.10501556536E+04  0.10501556536E+04  0.00000000000E+00 0. -1.
         25    2    1    2    0    0 -0.21999465035E+02 -0.86407505351E+02 -0.11534085927E+03  0.19203894748E+03  0.12500084036E+03 0.  0.
          2    1    1    2  501    0  0.61466986545E+02  0.10145976744E+03 -0.89052946666E+03  0.89839579576E+03  0.00000000000E+00 0. -1.
          1    1    1    2  502    0 -0.39467521509E+02 -0.15052262087E+02  0.22068158069E+03  0.22468781877E+03  0.00000000000E+00 0. -1.
         22    1    3    3    0    0  0.48333756765E+01  0.29795630643E+02 -0.43052671942E+02  0.52580164389E+02  0.00000000000E+00 0. -1.
         22    1    3    3    0    0 -0.26832840712E+02 -0.11620313599E+03 -0.72288187324E+02  0.13945878309E+03  0.00000000000E+00 0. -1.
</event>
<event>
 7    1  0.6443388E-006  0.2390990E+03  0.7818608E-02  0.1331947E+00
          2   -1    0    0  502    0  0.00000000000E+00  0.00000000000E+00  0.60834706099E+03  0.60834706099E+03  0.00000000000E+00 0. -1.
          1   -1    0    0  501    0 -0.00000000000E+00 -0.00000000000E+00 -0.40556333891E+03  0.40556333891E+03  0.00000000000E+00 0. -1.
         25    2    1    2    0    0 -0.14495858197E+03 -0.21045310802E+03  0.15306312492E+03  0.32304225784E+03  0.12499791591E+03 0.  0.
          2    1    1    2  501    0  0.11979273053E+03  0.20355408533E+03 -0.27647823974E+03  0.36362725557E+03  0.00000000000E+00 0. -1.
          1    1    1    2  502    0  0.25165851435E+02  0.68990226933E+01  0.32619883690E+03  0.32724088649E+03  0.00000000000E+00 0. -1.
         22    1    3    3    0    0 -0.15057133482E+03 -0.15932589437E+03  0.79305675318E+02  0.23312198014E+03  0.00000000000E+00 0. -1.
         22    1    3    3    0    0  0.56127528573E+01 -0.51127213648E+02  0.73757449599E+02  0.89920277699E+02  0.00000000000E+00 0. -1.
</event>
<event>
 7    1  0.6443388E-006  0.9138688E+02  0.7818608E-02  0.1379060E+00
          2   -1    0    0  502    0  0.00000000000E+00  0.00000000000E+00  0.65599124828E+03  0.65599124828E+03  0.00000000000E+00 0. -1.
          1   -1    0    0  501    0 -0.00000000000E+00 -0.00000000000E+00 -0.17396696149E+03  0.17396696149E+03  0.00000000000E+00 0. -1.
         25    2    1    2    0    0 -0.93872924666E+02 -0.87439590959E+02  0.10403675776E+03  0.20713838192E+03  0.12499941698E+03 0.  0.
          2    1    1    2  501    0  0.43516670190E+02  0.14353368764E+02 -0.11401365912E+03  0.12287731379E+03  0.00000000000E+00 0. -1.
          1    1    1    2  502    0  0.50356254476E+02  0.73086222195E+02  0.49200118813E+03  0.49994251406E+03  0.00000000000E+00 0. -1.
         22    1    3    3    0    0  0.26999807204E+02 -0.42063803048E+02  0.27532697934E+02  0.57064897892E+02  0.00000000000E+00 0. -1.
         22    1    3    3    0    0 -0.12087273187E+03 -0.45375787910E+02  0.76504059830E+02  0.15007348403E+03  0.00000000000E+00 0. -1.
</event>
<event>
 7    1  0.6443388E-006  0.7336955E+02  0.7818608E-02  0.1375331E+00
          2   -1    0    0  502    0  0.00000000000E+00  0.00000000000E+00  0.18546039846E+02  0.18546039846E+02  0.00000000000E+00 0. -1.
          1   -1    0    0  501    0 -0.00000000000E+00 -0.00000000000E+00 -0.31570227008E+04  0.31570227008E+04  0.00000000000E+00 0. -1.
         25    2    1    2    0    0  0.19006665692E+02 -0.49785867151E+02 -0.33198643738E+03  0.35872000288E+03  0.12500063982E+03 0.  0.
          2    1    1    2  501    0  0.37930601162E+02  0.64648395857E+02 -0.26247348042E+04  0.26258048172E+04  0.00000000000E+00 0. -1.
          1    1    1    2  502    0 -0.56937266854E+02 -0.14862528706E+02 -0.18175541937E+03  0.19104392057E+03  0.00000000000E+00 0. -1.
         22    1    3    3    0    0  0.65013928967E+02 -0.59708766870E+02 -0.23147384820E+03  0.24773391008E+03  0.00000000000E+00 0. -1.
         22    1    3    3    0    0 -0.46007263275E+02  0.99228997191E+01 -0.10051258917E+03  0.11098609280E+03  0.00000000000E+00 0. -1.
</event>
<event>
 7    1  0.6443388E-006  0.2272891E+02  0.7818608E-02  0.1711500E+00
          2   -1    0    0  502    0  0.00000000000E+00  0.00000000000E+00  0.11147528665E+04  0.11147528665E+04  0.00000000000E+00 0. -1.
          1   -1    0    0  501    0 -0.00000000000E+00 -0.00000000000E+00 -0.83504686887E+01  0.83504686887E+01  0.00000000000E+00 0. -1.
         25    2    1    2    0    0  0.19699054027E+02  0.30968274376E+01  0.75299015170E+03  0.76355555361E+03  0.12500108729E+03 0.  0.
          2    1    1    2  501    0 -0.15729342260E+02  0.17458005811E+02  0.48247172537E+02  0.53665480829E+02  0.00000000000E+00 0. -1.
          1    1    1    2  502    0 -0.39697117671E+01 -0.20554833249E+02  0.30516507360E+03  0.30588230077E+03  0.00000000000E+00 0. -1.
         22    1    3    3    0    0 -0.45773107490E+02 -0.14792871382E+02  0.17153042591E+03  0.17814795376E+03  0.00000000000E+00 0. -1.
         22    1    3    3    0    0  0.65472161517E+02  0.17889698819E+02  0.58145972579E+03  0.58540759986E+03  0.00000000000E+00 0. -1.
</event>
<event>
 7    1  0.6443388E-006  0.2776629E+03  0.7818608E-02  0.1156974E+00
          2   -1    0    0  502    0  0.00000000000E+00  0.00000000000E+00  0.81179187457E+03  0.81179187457E+03  0.00000000000E+00 0. -1.
          1   -1    0    0  501    0 -0.00000000000E+00 -0.00000000000E+00 -0.24853913074E+04  0.24853913074E+04  0.00000000000E+00 0. -1.
         25    2    1    2    0    0  0.36721131007E+03  0.66623726633E+02  0.24681113529E+03  0.46456661773E+03  0.12499415430E+03 0.  0.
          2    1    1    2  501    0 -0.27443069750E+03  0.27679634518E+02 -0.23587124664E+04  0.23747848048E+04  0.00000000000E+00 0. -1.
          1    1    1    2  502    0 -0.92780612570E+02 -0.94303361151E+02  0.43830189825E+03  0.45783175949E+03  0.00000000000E+00 0. -1.
         22    1    3    3    0    0  0.21097408179E+03  0.53032421749E+02  0.70674360819E+02  0.22872989796E+03  0.00000000000E+00 0.  1.
         22    1    3    3    0    0  0.15623722828E+03  0.13591304884E+02  0.17613677447E+03  0.23583671977E+03  0.00000000000E+00 0.  1.
</event>
<event>
 7    1  0.6443388E-006  0.8253912E+02  0.7818608E-02  0.1329719E+00
          2   -1    0    0  502    0  0.00000000000E+00  0.00000000000E+00  0.10914891217E+04  0.10914891217E+04  0.00000000000E+00 0. -1.
          1   -1    0    0  501    0 -0.00000000000E+00 -0.00000000000E+00 -0.12801201188E+03  0.12801201188E+03  0.00000000000E+00 0. -1.
         25    2    1    2    0    0  0.50793725082E+02 -0.47097819827E+02  0.19338977575E+03  0.24046342617E+03  0.12499938728E+03 0.  0.
          2    1    1    2  501    0 -0.83160849961E+02 -0.22862077577E+02 -0.84640786448E+02  0.12084065660E+03  0.00000000000E+00 0. -1.
          1    1    1    2  502    0  0.32367124879E+02  0.69959897403E+02  0.85472812047E+03  0.85819705076E+03  0.00000000000E+00 0. -1.
         22    1    3    3    0    0 -0.31886211266E+02 -0.48885141218E+02  0.99417997950E+02  0.11528410913E+03  0.00000000000E+00 0.  1.
         22    1    3    3    0    0  0.82679936348E+02  0.17873213910E+01  0.93971777804E+02  0.12517931705E+03  0.00000000000E+00 0.  1.
</event>
<event>
 7    1  0.6443388E-006  0.1035046E+03  0.7818608E-02  0.1372238E+00
          2   -1    0    0  502    0  0.00000000000E+00  0.00000000000E+00  0.85395018276E+03  0.85395018276E+03  0.00000000000E+00 0. -1.
          1   -1    0    0  501    0 -0.00000000000E+00 -0.00000000000E+00 -0.10090382713E+04  0.10090382713E+04  0.00000000000E+00 0. -1.
         25    2    1    2    0    0  0.66365722273E+02 -0.90608072035E+02  0.15520056293E+03  0.22875030234E+03  0.12500101710E+03 0.  0.
          2    1    1    2  501    0 -0.41658258931E+02 -0.97669473973E+01 -0.96775229351E+03  0.96869773685E+03  0.00000000000E+00 0. -1.
          1    1    1    2  502    0 -0.24707463342E+02  0.10037501943E+03  0.65746364202E+03  0.66554041489E+03  0.00000000000E+00 0. -1.
         22    1    3    3    0    0  0.78360737666E+02 -0.38641649586E+01  0.55784346562E+02  0.96266454695E+02  0.00000000000E+00 0. -1.
         22    1    3    3    0    0 -0.11995015393E+02 -0.86743907076E+02  0.99416216368E+02  0.13248384764E+03  0.00000000000E+00 0. -1.
</event>
<event>
 7    1  0.6443388E-006  0.8283520E+02  0.7818608E-02  0.1496546E+00
          2   -1    0    0  502    0  0.00000000000E+00  0.00000000000E+00  0.57401474886E+03  0.57401474886E+03  0.00000000000E+00 0. -1.
          1   -1    0    0  501    0 -0.00000000000E+00 -0.00000000000E+00 -0.14896710753E+04  0.14896710753E+04  0.00000000000E+00 0. -1.
         25    2    1    2    0    0 -0.94987927549E+02  0.34896733884E+02  0.27945840712E+03  0.32243111808E+03  0.12499734468E+03 0.  0.
          2    1    1    2  501    0  0.80318800975E+02 -0.19978766379E+02 -0.14666154815E+04  0.14689490228E+04  0.00000000000E+00 0. -1.
          1    1    1    2  502    0  0.14669126574E+02 -0.14917967505E+02  0.27150074794E+03  0.27230568331E+03  0.00000000000E+00 0. -1.
         22    1    3    3    0    0 -0.97548515322E+02  0.36062242555E+02  0.10444081606E+03  0.14739091641E+03  0.00000000000E+00 0.  1.
         22    1    3    3    0    0  0.25605877734E+01 -0.11655086710E+01  0.17501759106E+03  0.17504020167E+03  0.00000000000E+00 0.  1.
</event>
<event>
 7    1  0.6443388E-006  0.1617130E+03  0.7818608E-02  0.1305177E+00
          2   -1    0    0  502    0  0.00000000000E+00  0.00000000000E+00  0.46332232241E+04  0.46332232241E+04  0.00000000000E+00 0. -1.
          1   -1    0    0  501    0 -0.00000000000E+00 -0.00000000000E+00 -0.21177865355E+03  0.21177865355E+03  0.00000000000E+00 0. -1.
         25    2    1    2    0    0 -0.80212537076E+02  0.16642188276E+03  0.19705633235E+02  0.22392982069E+03  0.12500383373E+03 0.  0.
          2    1    1    2  501    0 -0.23764830627E+02 -0.42889097323E+02 -0.10266595625E+03  0.11377407621E+03  0.00000000000E+00 0. -1.
          1    1    1    2  502    0  0.10397736770E+03 -0.12353278543E+03  0.45044048936E+04  0.45072979807E+04  0.00000000000E+00 0. -1.
         22    1    3    3    0    0 -0.53983936752E+02  0.38150080260E+02  0.57548754813E+02  0.87644470628E+02  0.00000000000E+00 0.  1.
         22    1    3    3    0    0 -0.26228600323E+02  0.12827180250E+03 -0.37843121578E+02  0.13628535006E+03  0.00000000000E+00 0.  1.
</event>
<event>
 7    1  0.6443388E-006  0.2227886E+03  0.7818608E-02  0.1211288E+00
          2   -1    0    0  502    0  0.00000000000E+00  0.00000000000E+00  0.96496449926E+03  0.96496449926E+03  0.00000000000E+00 0. -1.
          1   -1    0    0  501    0 -0.00000000000E+00 -0.00000000000E+00 -0.19446698764E+03  0.19446698764E+03  0.00000000000E+00 0. -1.
         25    2    1    2    0    0  0.10378079065E+03 -0.17519546639E+03  0.52201838649E+03  0.57410033266E+03  0.12499636866E+03 0.  0.
          2    1    1    2  501    0 -0.29465659655E+02  0.22579578174E+03 -0.82625450452E+02  0.24223733241E+03  0.00000000000E+00 0. -1.
          1    1    1    2  502    0 -0.74315130998E+02 -0.50600315345E+02  0.33110457558E+03  0.34309382183E+03  0.00000000000E+00 0. -1.
         22    1    3    3    0    0  0.46901191507E+00 -0.20815336282E+02  0.20957711752E+03  0.21060879940E+03  0.00000000000E+00 0. -1.
         22    1    3    3    0    0  0.10331177874E+03 -0.15438013011E+03  0.31244126897E+03  0.36349153326E+03  0.00000000000E+00 0. -1.
</event>
<event>
 7    1  0.6443388E-006  0.1480479E+03  0.7818608E-02  0.1279398E+00
          2   -1    0    0  502    0  0.00000000000E+00  0.00000000000E+00  0.26271935302E+03  0.26271935302E+03  0.00000000000E+00 0. -1.
          1   -1    0    0  501    0 -0.00000000000E+00 -0.00000000000E+00 -0.14516847902E+04  0.14516847902E+04  0.00000000000E+00 0. -1.
         25    2    1    2    0    0  0.13518440057E+03  0.56392091361E+02 -0.41171371249E+03  0.45452178021E+03  0.12500790977E+03 0.  0.
          2    1    1    2  501    0 -0.38061851832E+02  0.56501454002E+02 -0.99431408835E+03  0.99664518519E+03  0.00000000000E+00 0. -1.
          1    1    1    2  502    0 -0.97122548739E+02 -0.11289354536E+03  0.21706236367E+03  0.26323717781E+03  0.00000000000E+00 0. -1.
         22    1    3    3    0    0  0.19493206905E+02 -0.34978059594E+02 -0.50970479305E+02  0.64818512240E+02  0.00000000000E+00 0. -1.
         22    1    3    3    0    0  0.11569119367E+03  0.91370150955E+02 -0.36074323318E+03  0.38970326797E+03  0.00000000000E+00 0. -1.
</event>
<event>
 7    1  0.6443388E-006  0.6806762E+02  0.7818608E-02  0.1465282E+00
          2   -1    0    0  502    0  0.00000000000E+00  0.00000000000E+00  0.20404464760E+03  0.20404464760E+03  0.00000000000E+00 0. -1.
          1   -1    0    0  501    0 -0.00000000000E+00 -0.00000000000E+00 -0.29935853506E+03  0.29935853506E+03  0.00000000000E+00 0. -1.
         25    2    1    2    0    0 -0.36924533025E+02  0.14937922956E+02 -0.12806931976E+03  0.18333953859E+03  0.12500029226E+03 0.  0.
          2    1    1    2  501    0 -0.31524201144E+02 -0.37363138305E+01 -0.13492254298E+03  0.13860673831E+03  0.00000000000E+00 0. -1.
          1    1    1    2  502    0  0.68448734169E+02 -0.11201609125E+02  0.16767797528E+03  0.18145690577E+03  0.00000000000E+00 0. -1.
         22    1    3    3    0    0 -0.69311196288E+01 -0.17372393075E+02  0.20862708826E+02  0.28019512487E+02  0.00000000000E+00 0.  1.
         22    1    3    3    0    0 -0.29993413397E+02  0.32310316030E+02 -0.14893202859E+03  0.15532002610E+03  0.00000000000E+00 0.  1.
</event>
<event>
 7    1  0.6443388E-006  0.1299477E+03  0.7818608E-02  0.1276618E+00
          2   -1    0    0  502    0  0.00000000000E+00  0.00000000000E+00  0.40019005402E+03  0.40019005402E+03  0.00000000000E+00 0. -1.
          1   -1    0    0  501    0 -0.00000000000E+00 -0.00000000000E+00 -0.32240003614E+03  0.32240003614E+03  0.00000000000E+00 0. -1.
         25    2    1    2    0    0  0.16595443335E+03 -0.73963057646E+02  0.72231711946E+02  0.23206373360E+03  0.12499899359E+03 0.  0.
          2    1    1    2  501    0 -0.44506674865E+02  0.66117671338E+02 -0.22013076209E+03  0.23411523442E+03  0.00000000000E+00 0. -1.
          1    1    1    2  502    0 -0.12144775848E+03  0.78453863082E+01  0.22568906803E+03  0.25641112214E+03  0.00000000000E+00 0. -1.
         22    1    3    3    0    0  0.93468810096E+01 -0.73803764689E+00 -0.29854152813E+02  0.31291841179E+02  0.00000000000E+00 0. -1.
         22    1    3    3    0    0  0.15660755234E+03 -0.73225019999E+02  0.10208586476E+03  0.20077189242E+03  0.00000000000E+00 0. -1.
</event>
<event>
 7    1  0.6443388E-006  0.6841200E+02  0.7818608E-02  0.1524686E+00
          2   -1    0    0  502    0  0.00000000000E+00  0.00000000000E+00  0.12359262031E+04  0.12359262031E+04  0.00000000000E+00 0. -1.
          1   -1    0    0  501    0 -0.00000000000E+00 -0.00000000000E+00 -0.14482262675E+03  0.14482262675E+03  0.00000000000E+00 0. -1.
         25    2    1    2    0    0  0.23264992750E+02  0.82969519245E+02  0.59330493654E+03  0.61242211993E+03  0.12499961701E+03 0.  0.
          2    1    1    2  501    0 -0.68654678654E+01 -0.19779363975E+02 -0.13275837627E+03  0.13439919776E+03  0.00000000000E+00 0. -1.
          1    1    1    2  502    0 -0.16399524885E+02 -0.63190155270E+02  0.63055701607E+03  0.63392751215E+03  0.00000000000E+00 0. -1.
         22    1    3    3    0    0  0.55520518675E+02  0.45070481131E+01  0.35766400141E+03  0.36197566131E+03  0.00000000000E+00 0.  1.
         22    1    3    3    0    0 -0.32255525925E+02  0.78462471132E+02  0.23564093513E+03  0.25044645862E+03  0.00000000000E+00 0.  1.
</event>
<event>
 7    1  0.6443388E-006  0.4212020E+02  0.7818608E-02  0.1498235E+00
          2   -1    0    0  502    0  0.00000000000E+00  0.00000000000E+00  0.76784434936E+03  0.76784434936E+03  0.00000000000E+00 0. -1.
          1   -1    0    0  501    0 -0.00000000000E+00 -0.00000000000E+00 -0.41666782515E+02  0.41666782515E+02  0.00000000000E+00 0. -1.
         25    2    1    2    0    0 -0.57476048148E+01  0.76437994780E+01  0.34413615394E+03  0.36625974831E+03  0.12500019261E+03 0.  0.
          2    1    1    2  501    0  0.14430284067E+02  0.38023437071E+02 -0.15112200662E+02  0.43386558677E+02  0.00000000000E+00 0. -1.
          1    1    1    2  502    0 -0.86826792522E+01 -0.45667236549E+02  0.39715361357E+03  0.39986482489E+03  0.00000000000E+00 0. -1.
         22    1    3    3    0    0  0.47134460263E+02  0.97571085728E+00  0.55850878789E+02  0.73088508108E+02  0.00000000000E+00 0.  1.
         22    1    3    3    0    0 -0.52882065077E+02  0.66680886208E+01  0.28828527515E+03  0.29317124020E+03  0.00000000000E+00 0.  1.
</event>
<event>
 7    1  0.6443388E-006  0.7025193E+02  0.7818608E-02  0.1393660E+00
          2   -1    0    0  502    0  0.00000000000E+00  0.00000000000E+00  0.62818284432E+03  0.62818284432E+03  0.00000000000E+00 0. -1.
          1   -1    0    0  501    0 -0.00000000000E+00 -0.00000000000E+00 -0.32975384354E+03  0.32975384354E+03  0.00000000000E+00 0. -1.
         25    2    1    2    0    0 -0.82157426745E+02 -0.77775625985E+02  0.27205480018E+03  0.32006123096E+03  0.12500594585E+03 0.  0.
          2    1    1    2  501    0  0.63868740318E+02  0.28056443882E+02 -0.29960524835E+03  0.30761938312E+03  0.00000000000E+00 0. -1.
          1    1    1    2  502    0  0.18288686427E+02  0.49719182104E+02  0.32597944895E+03  0.33025607377E+03  0.00000000000E+00 0. -1.
         22    1    3    3    0    0 -0.44901832229E+02 -0.97769539115E+01  0.10340397546E+02  0.47102942442E+02  0.00000000000E+00 0.  1.
         22    1    3    3    0    0 -0.37255594515E+02 -0.67998672074E+02  0.26171440263E+03  0.27295828852E+03  0.00000000000E+00 0.  1.
</event>
<event>
 7    1  0.6443388E-006  0.2584342E+03  0.7818608E-02  0.1250112E+00
          2   -1    0    0  502    0  0.00000000000E+00  0.00000000000E+00  0.17170609270E+04  0.17170609270E+04  0.00000000000E+00 0. -1.
          1   -1    0    0  501    0 -0.00000000000E+00 -0.00000000000E+00 -0.14500945602E+04  0.14500945602E+04  0.00000000000E+00 0. -1.
         25    2    1    2    0    0  0.20695634971E+03 -0.22348646358E+02 -0.42182446655E+03  0.48671460114E+03  0.12499931880E+03 0.  0.
          2    1    1    2  501    0  0.51852075194E+02  0.28300009908E+01 -0.98514035427E+03  0.98650806597E+03  0.00000000000E+00 0. -1.
          1    1    1    2  502    0 -0.25880842490E+03  0.19518645367E+02  0.16739311876E+04  0.16939328201E+04  0.00000000000E+00 0. -1.
         22    1    3    3    0    0  0.16125773930E+02 -0.17138959160E+02 -0.16522068285E+03  0.16688816180E+03  0.00000000000E+00 0.  1.
         22    1    3    3    0    0  0.19083057578E+03 -0.52096871976E+01 -0.25660378370E+03  0.31982643934E+03  0.00000000000E+00 0.  1.
</event>
<event>
 7    1  0.6472644E-006  0.9822458E+02  0.7818608E-02  0.1406639E+00
          2   -1    0    0  502    0  0.00000000000E+00  0.00000000000E+00  0.15868108141E+04  0.15868108141E+04  0.00000000000E+00 0. -1.
          1   -1    0    0  501    0 -0.00000000000E+00 -0.00000000000E+00 -0.16160671457E+04  0.16160671457E+04  0.00000000000E+00 0. -1.
         25    2    1    2    0    0  0.69665577143E+02  0.64138952558E+02 -0.64152784969E+02  0.16943683581E+03  0.12500465445E+03 0.  0.
          2    1    1    2  501    0 -0.24897420251E+02  0.23431811736E+02 -0.14975007808E+04  0.14978910240E+04  0.00000000000E+00 0. -1.
          1    1    1    2  502    0 -0.44768156892E+02 -0.87570764295E+02  0.15323972341E+04  0.15355501001E+04  0.00000000000E+00 0. -1.
         22    1    3    3    0    0 -0.34666904004E+02  0.20110569816E+02 -0.33194116350E+02  0.52039202644E+02  0.00000000000E+00 0.  1.
         22    1    3    3    0    0  0.10433248115E+03  0.44028382742E+02 -0.30958668618E+02  0.11739763316E+03  0.00000000000E+00 0.  1.
</event>
<event>
 7    1  0.6443388E-006  0.1091490E+03  0.7818608E-02  0.1398124E+00
          2   -1    0    0  502    0  0.00000000000E+00  0.00000000000E+00  0.77498118554E+02  0.77498118554E+02  0.00000000000E+00 0. -1.
          1   -1    0    0  501    0 -0.00000000000E+00 -0.00000000000E+00 -0.92094649178E+03  0.92094649178E+03  0.00000000000E+00 0. -1.
         25    2    1    2    0    0  0.50409745460E+02 -0.10345093493E+03 -0.66298376869E+03  0.68440607381E+03  0.12498383075E+03 0.  0.
          2    1    1    2  501    0 -0.17504643669E+02  0.10368050652E+03 -0.23095934997E+03  0.25376816451E+03  0.00000000000E+00 0. -1.
          1    1    1    2  502    0 -0.32905101791E+02 -0.22957158669E+00  0.50494745428E+02  0.60270372015E+02  0.00000000000E+00 0. -1.
         22    1    3    3    0    0 -0.24575242358E+02 -0.78872350914E+01 -0.31066045342E+03  0.31173076257E+03  0.00000000000E+00 0.  1.
         22    1    3    3    0    0  0.74984987817E+02 -0.95563699837E+02 -0.35232331527E+03  0.37267531124E+03  0.00000000000E+00 0.  1.
</event>
<event>
 7    1  0.6443388E-006  0.9878197E+02  0.7818608E-02  0.1292212E+00
          2   -1    0    0  502    0  0.00000000000E+00  0.00000000000E+00  0.11908222309E+04  0.11908222309E+04  0.00000000000E+00 0. -1.
          1   -1    0    0  501    0 -0.00000000000E+00 -0.00000000000E+00 -0.11054675179E+03  0.11054675179E+03  0.00000000000E+00 0. -1.
         25    2    1    2    0    0  0.15897134730E+02  0.20358965331E+02  0.17239687917E+03  0.21450108712E+03  0.12499130397E+03 0.  0.
          2    1    1    2  501    0  0.89789909714E+02  0.11177422569E+02 -0.62673792179E+02  0.11006891881E+03  0.00000000000E+00 0. -1.
          1    1    1    2  502    0 -0.10568704444E+03 -0.31536387900E+02  0.97055239209E+03  0.97679897672E+03  0.00000000000E+00 0. -1.
         22    1    3    3    0    0 -0.34762313689E+02  0.25981488576E+01  0.15378068390E+03  0.15768217264E+03  0.00000000000E+00 0.  1.
         22    1    3    3    0    0  0.50659448418E+02  0.17760816474E+02  0.18616195270E+02  0.56818914476E+02  0.00000000000E+00 0.  1.
</event>
<event>
 7    1  0.6443388E-006  0.6240263E+02  0.7818608E-02  0.1456418E+00
          2   -1    0    0  502    0  0.00000000000E+00  0.00000000000E+00  0.13230701694E+04  0.13230701694E+04  0.00000000000E+00 0. -1.
          1   -1    0    0  501    0 -0.00000000000E+00 -0.00000000000E+00 -0.13935986181E+03  0.13935986181E+03  0.00000000000E+00 0. -1.
         25    2    1    2    0    0 -0.81463360263E+01  0.76775814744E+02  0.23783363766E+03  0.27955292384E+03  0.12499643797E+03 0.  0.
          2    1    1    2  501    0 -0.26803500851E+02 -0.25400152008E+02 -0.11469186075E+03  0.12048990954E+03  0.00000000000E+00 0. -1.
          1    1    1    2  502    0  0.34949836878E+02 -0.51375662736E+02  0.10605685307E+04  0.10623871979E+04  0.00000000000E+00 0. -1.
         22    1    3    3    0    0 -0.12722732086E+01  0.93936782937E+02  0.24285835561E+03  0.26039569650E+03  0.00000000000E+00 0.  1.
         22    1    3    3    0    0 -0.68740628177E+01 -0.17160968193E+02 -0.50247179480E+01  0.19157227341E+02  0.00000000000E+00 0.  1.
</event>
<event>
 7    1  0.6443388E-006  0.8495570E+02  0.7818608E-02  0.1450007E+00
          2   -1    0    0  502    0  0.00000000000E+00  0.00000000000E+00  0.26623151793E+04  0.26623151793E+04  0.00000000000E+00 0. -1.
          1   -1    0    0  501    0 -0.00000000000E+00 -0.00000000000E+00 -0.67997716426E+03  0.67997716426E+03  0.00000000000E+00 0. -1.
         25    2    1    2    0    0 -0.35612611985E+02  0.91655973192E+02  0.13551875832E+03  0.20894882798E+03  0.12500081322E+03 0.  0.
          2    1    1    2  501    0 -0.15354214725E+02 -0.23926689905E+02 -0.64222621934E+03  0.64285515881E+03  0.00000000000E+00 0. -1.
          1    1    1    2  502    0  0.50966826709E+02 -0.67729283287E+02  0.24890454761E+04  0.24904883568E+04  0.00000000000E+00 0. -1.
         22    1    3    3    0    0  0.38834490210E+02  0.76089512436E+01  0.10559517743E+02  0.40957504610E+02  0.00000000000E+00 0. -1.
         22    1    3    3    0    0 -0.74447102195E+02  0.84047021948E+02  0.12495924057E+03  0.16799132337E+03  0.00000000000E+00 0. -1.
</event>
<event>
 7    1  0.6443388E-006  0.1895964E+03  0.7818608E-02  0.1319810E+00
          2   -1    0    0  502    0  0.00000000000E+00  0.00000000000E+00  0.16585708738E+04  0.16585708738E+04  0.00000000000E+00 0. -1.
          1   -1    0    0  501    0 -0.00000000000E+00 -0.00000000000E+00 -0.61697070546E+03  0.61697070546E+03  0.00000000000E+00 0. -1.
         25    2    1    2    0    0 -0.16953162569E+03 -0.53162964538E+02 -0.37752495323E+03  0.43556516952E+03  0.12499861472E+03 0.  0.
          2    1    1    2  501    0  0.20597981074E+03  0.49413624045E+02 -0.15685081556E+03  0.26357459479E+03  0.00000000000E+00 0. -1.
          1    1    1    2  502    0 -0.36448185053E+02  0.37493404927E+01  0.15759759372E+04  0.15764018150E+04  0.00000000000E+00 0. -1.
         22    1    3    3    0    0 -0.10908668405E+03 -0.53452857344E+02 -0.11894677318E+03  0.17001602115E+03  0.00000000000E+00 0.  1.
         22    1    3    3    0    0 -0.60444941639E+02  0.28989280553E+00 -0.25857818005E+03  0.26554914838E+03  0.00000000000E+00 0.  1.
</event>
<event>
 7    1  0.6443388E-006  0.5885659E+02  0.7818608E-02  0.1523714E+00
          2   -1    0    0  502    0  0.00000000000E+00  0.00000000000E+00  0.13159868366E+04  0.13159868366E+04  0.00000000000E+00 0. -1.
          1   -1    0    0  501    0 -0.00000000000E+00 -0.00000000000E+00 -0.45824837943E+03  0.45824837943E+03  0.00000000000E+00 0. -1.
         25    2    1    2    0    0 -0.41411438545E+02 -0.45123477142E+02 -0.33780758676E+03  0.36536308993E+03  0.12500074550E+03 0.  0.
          2    1    1    2  501    0 -0.12348466912E+02  0.21153466768E+02 -0.10458213825E+03  0.10741218475E+03  0.00000000000E+00 0. -1.
          1    1    1    2  502    0  0.53759905457E+02  0.23970010374E+02  0.13001281821E+04  0.13014599413E+04  0.00000000000E+00 0. -1.
         22    1    3    3    0    0 -0.20413261489E+02 -0.68640124373E+02 -0.32242814867E+03  0.33028484521E+03  0.00000000000E+00 0.  1.
         22    1    3    3    0    0 -0.20998177056E+02  0.23516647231E+02 -0.15379438091E+02  0.35078244720E+02  0.00000000000E+00 0.  1.
</event>
<event>
 7    1  0.6443388E-006  0.7144041E+02  0.7818608E-02  0.1357205E+00
          2   -1    0    0  502    0  0.00000000000E+00  0.00000000000E+00  0.27892354160E+03  0.27892354160E+03  0.00000000000E+00 0. -1.
          1   -1    0    0  501    0 -0.00000000000E+00 -0.00000000000E+00 -0.11461741211E+04  0.11461741211E+04  0.00000000000E+00 0. -1.
         25    2    1    2    0    0 -0.33874321761E+01 -0.13410152033E+03  0.18866397426E+02  0.18432523763E+03  0.12500063929E+03 0.  0.
          2    1    1    2  501    0 -0.20105796082E+02  0.67867669674E+02 -0.10552492871E+04  0.10576205944E+04  0.00000000000E+00 0. -1.
          1    1    1    2  502    0  0.23493228259E+02  0.66233850656E+02  0.16913231019E+03  0.18315183072E+03  0.00000000000E+00 0. -1.
         22    1    3    3    0    0  0.41176331142E+02 -0.12536460374E+03  0.34340696593E+02  0.13634902845E+03  0.00000000000E+00 0.  1.
         22    1    3    3    0    0 -0.44563763318E+02 -0.87369165953E+01 -0.15474299167E+02  0.47976209181E+02  0.00000000000E+00 0.  1.
</event>
<event>
 7    1  0.6443388E-006  0.1644041E+03  0.7818608E-02  0.1261274E+00
          2   -1    0    0  502    0  0.00000000000E+00  0.00000000000E+00  0.45733496218E+03  0.45733496218E+03  0.00000000000E+00 0. -1.
          1   -1    0    0  501    0 -0.00000000000E+00 -0.00000000000E+00 -0.78404109882E+03  0.78404109882E+03  0.00000000000E+00 0. -1.
         25    2    1    2    0    0  0.10963042309E+03 -0.10665345530E+03 -0.21530571460E+02  0.19870553773E+03  0.12500614394E+03 0.  0.
          2    1    1    2  501    0 -0.57013829523E+02  0.15738769864E+03 -0.65974261589E+03  0.68064806152E+03  0.00000000000E+00 0. -1.
          1    1    1    2  502    0 -0.52616593567E+02 -0.50734243338E+02  0.35456705070E+03  0.36202246175E+03  0.00000000000E+00 0. -1.
         22    1    3    3    0    0  0.12447295821E+03 -0.10250136107E+03  0.12113087789E+02  0.16169963897E+03  0.00000000000E+00 0. -1.
         22    1    3    3    0    0 -0.14842535120E+02 -0.41520942235E+01 -0.33643659249E+02  0.37005898758E+02  0.00000000000E+00 0. -1.
</event>
<event>
 7    1  0.6443388E-006  0.9680213E+02  0.7818608E-02  0.1308438E+00
          2   -1    0    0  502    0  0.00000000000E+00  0.00000000000E+00  0.11326452221E+04  0.11326452221E+04  0.00000000000E+00 0. -1.
          1   -1    0    0  501    0 -0.00000000000E+00 -0.00000000000E+00 -0.20168809841E+04  0.20168809841E+04  0.00000000000E+00 0. -1.
         25    2    1    2    0    0  0.42024549620E+02 -0.12030578535E+03  0.27813086079E+03  0.33048970295E+03  0.12500849281E+03 0.  0.
          2    1    1    2  501    0  0.39362143291E+02  0.69085912023E+02 -0.19871128733E+04  0.19887030479E+04  0.00000000000E+00 0. -1.
          1    1    1    2  502    0 -0.81386692911E+02  0.51219873323E+02  0.82474625057E+03  0.83033345532E+03  0.00000000000E+00 0. -1.
         22    1    3    3    0    0 -0.18578511316E+02 -0.27227342109E+02  0.17775247389E+03  0.18078282887E+03  0.00000000000E+00 0.  1.
         22    1    3    3    0    0  0.60603060937E+02 -0.93078443236E+02  0.10037838690E+03  0.14970687408E+03  0.00000000000E+00 0.  1.
</event>
<event>
 7    1  0.6443388E-006  0.2722328E+03  0.7818608E-02  0.1182407E+00
          2   -1    0    0  502    0  0.00000000000E+00  0.00000000000E+00  0.10418477533E+04  0.10418477533E+04  0.00000000000E+00 0. -1.
          1   -1    0    0  501    0 -0.00000000000E+00 -0.00000000000E+00 -0.15693844433E+04  0.15693844433E+04  0.00000000000E+00 0. -1.
         25    2    1    2    0    0 -0.18473412688E+03  0.72049017694E+01  0.12359015092E+02  0.22350839264E+03  0.12499859231E+03 0.  0.
          2    1    1    2  501    0  0.27928147007E+03 -0.42318485188E+02 -0.14473630076E+04  0.14746690034E+04  0.00000000000E+00 0. -1.
          1    1    1    2  502    0 -0.94547343187E+02  0.35113583419E+02  0.90746730247E+03  0.91305480060E+03  0.00000000000E+00 0. -1.
         22    1    3    3    0    0  0.37498986970E+01 -0.14597184457E+02 -0.25883996480E+02  0.29951975028E+02  0.00000000000E+00 0. -1.
         22    1    3    3    0    0 -0.18848402558E+03  0.21802086226E+02  0.38243011572E+02  0.19355641761E+03  0.00000000000E+00 0. -1.
</event>
<event>
 7    1  0.6443388E-006  0.6640986E+02  0.7818608E-02  0.1402483E+00
          2   -1    0    0  502    0  0.00000000000E+00  0.00000000000E+00  0.33450532090E+03  0.33450532090E+03  0.00000000000E+00 0. -1.
          1   -1    0    0  501    0 -0.00000000000E+00 -0.00000000000E+00 -0.11784709096E+03  0.11784709096E+03  0.00000000000E+00 0. -1.
         25    2    1    2    0    0 -0.98543108303E+01 -0.18544034174E+02  0.14892934563E+02  0.12762822051E+03  0.12500469802E+03 0.  0.
          2    1    1    2  501    0 -0.46329633742E+02 -0.24156533357E+02 -0.44447991416E+02  0.68597354230E+02  0.00000000000E+00 0. -1.
          1    1    1    2  502    0  0.56183944572E+02  0.42700567531E+02  0.24621328680E+03  0.25612683712E+03  0.00000000000E+00 0. -1.
         22    1    3    3    0    0 -0.62005749092E+02 -0.21558469713E+02 -0.15142657819E+02  0.67370472929E+02  0.00000000000E+00 0.  1.
         22    1    3    3    0    0  0.52151438261E+02  0.30144355389E+01  0.30035592383E+02  0.60257747586E+02  0.00000000000E+00 0.  1.
</event>
<event>
 7    1  0.6443388E-006  0.6320957E+02  0.7818608E-02  0.1487247E+00
          2   -1    0    0  502    0  0.00000000000E+00  0.00000000000E+00  0.44178057801E+03  0.44178057801E+03  0.00000000000E+00 0. -1.
          1   -1    0    0  501    0 -0.00000000000E+00 -0.00000000000E+00 -0.38192689162E+03  0.38192689162E+03  0.00000000000E+00 0. -1.
         25    2    1    2    0    0 -0.30359385841E+02 -0.78198868364E+02  0.33052621057E+02  0.15412287523E+03  0.12499851835E+03 0.  0.
          2    1    1    2  501    0  0.24423639780E+02  0.16091275384E+02 -0.31792024685E+03  0.31926278625E+03  0.00000000000E+00 0. -1.
          1    1    1    2  502    0  0.59357460616E+01  0.62107592981E+02  0.34472131219E+03  0.35032180815E+03  0.00000000000E+00 0. -1.
         22    1    3    3    0    0 -0.20591020366E+02  0.75119396280E+01  0.59893390127E+02  0.63778033347E+02  0.00000000000E+00 0.  1.
         22    1    3    3    0    0 -0.97683654757E+01 -0.85710807992E+02 -0.26840769070E+02  0.90344841884E+02  0.00000000000E+00 0.  1.
</event>
<event>
 7    1  0.6443388E-006  0.1003090E+03  0.7818608E-02  0.1441182E+00
          2   -1    0    0  502    0  0.00000000000E+00  0.00000000000E+00  0.15716124165E+04  0.15716124165E+04  0.00000000000E+00 0. -1.
          1   -1    0    0  501    0 -0.00000000000E+00 -0.00000000000E+00 -0.14467023822E+04  0.14467023822E+04  0.00000000000E+00 0. -1.
         25    2    1    2    0    0  0.88430078983E+02  0.48023528866E+02 -0.34205953126E+03  0.37782757103E+03  0.12499124895E+03 0.  0.
          2    1    1    2  501    0 -0.73391920345E+02 -0.68871927859E+02 -0.10843218592E+04  0.10889828331E+04  0.00000000000E+00 0. -1.
          1    1    1    2  502    0 -0.15038158638E+02  0.20848398993E+02  0.15512914247E+04  0.15515043946E+04  0.00000000000E+00 0. -1.
         22    1    3    3    0    0  0.98846011724E+02  0.60630870420E+02 -0.34236645708E+03  0.36147119859E+03  0.00000000000E+00 0.  1.
         22    1    3    3    0    0 -0.10415932742E+02 -0.12607341554E+02  0.30692581596E+00  0.16356372440E+02  0.00000000000E+00 0.  1.
</event>
<event>
 7    1  0.6443388E-006  0.6674722E+02  0.7818608E-02  0.1438759E+00
          2   -1    0    0  502    0  0.00000000000E+00  0.00000000000E+00  0.26948237343E+04  0.26948237343E+04  0.00000000000E+00 0. -1.
          1   -1    0    0  501    0 -0.00000000000E+00 -0.00000000000E+00 -0.39968403469E+03  0.39968403469E+03  0.00000000000E+00 0. -1.
         25    2    1    2    0    0  0.28643663740E+02 -0.21288969970E+01  0.62537968555E+02  0.14269276755E+03  0.12500094690E+03 0.  0.
          2    1    1    2  501    0 -0.67938286551E+02  0.29482751260E+00 -0.35624702568E+03  0.36266739722E+03  0.00000000000E+00 0. -1.
          1    1    1    2  502    0  0.39294622811E+02  0.18340694844E+01  0.25888487567E+04  0.25891476042E+04  0.00000000000E+00 0. -1.
         22    1    3    3    0    0  0.50080558351E+02  0.26885127246E+02  0.83469772523E+02  0.10098552033E+03  0.00000000000E+00 0.  1.
         22    1    3    3    0    0 -0.21436894610E+02 -0.29014024244E+02 -0.20931803968E+02  0.41707247220E+02  0.00000000000E+00 0.  1.
</event>
<event>
 7    1  0.6443388E-006  0.1068582E+03  0.7818608E-02  0.1390747E+00
          2   -1    0    0  502    0  0.00000000000E+00  0.00000000000E+00  0.17440934796E+04  0.17440934796E+04  0.00000000000E+00 0. -1.
          1   -1    0    0  501    0 -0.00000000000E+00 -0.00000000000E+00 -0.52848037012E+03  0.52848037012E+03  0.00000000000E+00 0. -1.
         25    2    1    2    0    0 -0.71764360407E+02 -0.11384934803E+03  0.48172911117E+02  0.18988840168E+03  0.12500071302E+03 0.  0.
          2    1    1    2  501    0  0.70861345713E+02  0.78210561279E+02 -0.45133892826E+03  0.46351380818E+03  0.00000000000E+00 0. -1.
          1    1    1    2  502    0  0.90301469394E+00  0.35638786746E+02  0.16187791266E+04  0.16191716399E+04  0.00000000000E+00 0. -1.
         22    1    3    3    0    0 -0.20477233858E+02 -0.46900952936E+02  0.83917112491E+02  0.98290885954E+02  0.00000000000E+00 0. -1.
         22    1    3    3    0    0 -0.51287126549E+02 -0.66948395089E+02 -0.35744201374E+02  0.91597515723E+02  0.00000000000E+00 0. -1.
</event>
<event>
 7    1  0.6443388E-006  0.1606366E+03  0.7818608E-02  0.1328715E+00
          2   -1    0    0  502    0  0.00000000000E+00  0.00000000000E+00  0.67491630037E+03  0.67491630037E+03  0.00000000000E+00 0. -1.
          1   -1    0    0  501    0 -0.00000000000E+00 -0.00000000000E+00 -0.57742180211E+03  0.57742180211E+03  0.00000000000E+00 0. -1.
         25    2    1    2    0    0 -0.28707844242E+02  0.15767148438E+03  0.20619071916E+03  0.28952369181E+03  0.12499967258E+03 0.  0.
          2    1    1    2  501    0 -0.38633396828E+02 -0.10210595755E+02 -0.51957641832E+03  0.52111078485E+03  0.00000000000E+00 0. -1.
          1    1    1    2  502    0  0.67341241070E+02 -0.14746088863E+03  0.41088019742E+03  0.44170362581E+03  0.00000000000E+00 0. -1.
         22    1    3    3    0    0 -0.14875542086E+02 -0.16708578175E+01  0.91486483580E+02  0.92703021504E+02  0.00000000000E+00 0.  1.
         22    1    3    3    0    0 -0.13832302156E+02  0.15934234220E+03  0.11470423558E+03  0.19682067031E+03  0.00000000000E+00 0.  1.
</event>
<event>
 7    1  0.6443388E-006  0.5683626E+02  0.7818608E-02  0.1470952E+00
          2   -1    0    0  502    0  0.00000000000E+00  0.00000000000E+00  0.13669299794E+04  0.13669299794E+04  0.00000000000E+00 0. -1.
          1   -1    0    0  501    0 -0.00000000000E+00 -0.00000000000E+00 -0.31891279200E+02  0.31891279200E+02  0.00000000000E+00 0. -1.
         25    2    1    2    0    0 -0.30454386431E+02  0.50084401882E+01  0.95343427488E+03  0.96208877204E+03  0.12500133859E+03 0.  0.
          2    1    1    2  501    0  0.52659760029E+02  0.23961194789E+02  0.46789567854E+01  0.58043792248E+02  0.00000000000E+00 0. -1.
          1    1    1    2  502    0 -0.22205373598E+02 -0.28969634977E+02  0.37692546850E+03  0.37868869428E+03  0.00000000000E+00 0. -1.
         22    1    3    3    0    0  0.10460172869E+02  0.59460160595E+02  0.41694847764E+03  0.42129675874E+03  0.00000000000E+00 0.  1.
         22    1    3    3    0    0 -0.40914559300E+02 -0.54451720407E+02  0.53648579723E+03  0.54079201330E+03  0.00000000000E+00 0.  1.
</event>
<event>
 7    1  0.6443388E-006  0.1896238E+03  0.7818608E-02  0.1290992E+00
          2   -1    0    0  502    0  0.00000000000E+00  0.00000000000E+00  0.14064874574E+04  0.14064874574E+04  0.00000000000E+00 0. -1.
          1   -1    0    0  501    0 -0.00000000000E+00 -0.00000000000E+00 -0.25624496480E+03  0.25624496480E+03  0.00000000000E+00 0. -1.
         25    2    1    2    0    0  0.19799304461E+03  0.61706889978E+02  0.11432882974E+03  0.26777653116E+03  0.12499681334E+03 0.  0.
          2    1    1    2  501    0 -0.10234674883E+02 -0.46564500703E+02 -0.16890304395E+03  0.17550281922E+03  0.00000000000E+00 0. -1.
          1    1    1    2  502    0 -0.18775836973E+03 -0.15142389275E+02  0.12048167068E+04  0.12194530718E+04  0.00000000000E+00 0. -1.
         22    1    3    3    0    0  0.87843421719E+02  0.80083220806E+02  0.99711228138E+02  0.15515191913E+03  0.00000000000E+00 0. -1.
         22    1    3    3    0    0  0.11014962289E+03 -0.18376330828E+02  0.14617601604E+02  0.11262461203E+03  0.00000000000E+00 0. -1.
</event>
<event>
 7    1  0.6443388E-006  0.1280791E+03  0.7818608E-02  0.1359330E+00
          2   -1    0    0  502    0  0.00000000000E+00  0.00000000000E+00  0.37221449764E+04  0.37221449764E+04  0.00000000000E+00 0. -1.
          1   -1    0    0  501    0 -0.00000000000E+00 -0.00000000000E+00 -0.20376115224E+03  0.20376115224E+03  0.00000000000E+00 0. -1.
         25    2    1    2    0    0  0.93686258671E+02  0.81880498197E+02  0.87617119068E+02  0.19693432868E+03  0.12499935684E+03 0.  0.
          2    1    1    2  501    0  0.23759695172E+02 -0.30298935872E+02 -0.14544755747E+03  0.15045777017E+03  0.00000000000E+00 0. -1.
          1    1    1    2  502    0 -0.11744595384E+03 -0.51581562325E+02  0.35762142625E+04  0.35785140298E+04  0.00000000000E+00 0. -1.
         22    1    3    3    0    0 -0.18967464886E+02 -0.34192182955E+01  0.45615220429E+02  0.49519734579E+02  0.00000000000E+00 0.  1.
         22    1    3    3    0    0  0.11265372356E+03  0.85299716493E+02  0.42001898638E+02  0.14741459410E+03  0.00000000000E+00 0.  1.
</event>
<event>
 7    1  0.6443388E-006  0.5205567E+02  0.7818608E-02  0.1468466E+00
          2   -1    0    0  502    0  0.00000000000E+00  0.00000000000E+00  0.38585360654E+03  0.38585360654E+03  0.00000000000E+00 0. -1.
          1   -1    0    0  501    0 -0.00000000000E+00 -0.00000000000E+00 -0.74416602338E+03  0.74416602338E+03  0.00000000000E+00 0. -1.
         25    2    1    2    0    0 -0.76638412899E+02 -0.33708894245E+02 -0.31335319185E+03  0.34759866549E+03  0.12499949408E+03 0.  0.
          2    1    1    2  501    0  0.36071295116E+02  0.34138630128E+02 -0.41107499987E+03  0.41406429442E+03  0.00000000000E+00 0. -1.
          1    1    1    2  502    0  0.40567117783E+02 -0.42973588309E+00  0.36611577489E+03  0.36835667001E+03  0.00000000000E+00 0. -1.
         22    1    3    3    0    0 -0.10359614797E+02  0.93739561129E+01 -0.23792736700E+03  0.23833720784E+03  0.00000000000E+00 0. -1.
         22    1    3    3    0    0 -0.66278798102E+02 -0.43082850357E+02 -0.75425824854E+02  0.10926145765E+03  0.00000000000E+00 0. -1.
</event>
<event>
 7    1  0.6627306E-006  0.9878403E+02  0.7818608E-02  0.1328215E+00
          2   -1    0    0  502    0  0.00000000000E+00  0.00000000000E+00  0.19046868760E+04  0.19046868760E+04  0.00000000000E+00 0. -1.
          1   -1    0    0  501    0 -0.00000000000E+00 -0.00000000000E+00 -0.12988332717E+04  0.12988332717E+04  0.00000000000E+00 0. -1.
         25    2    1    2    0    0  0.16129682450E+03 -0.19525501215E+02 -0.46077710019E+01  0.20504493497E+03  0.12499713201E+03 0.  0.
          2    1    1    2  501    0 -0.65267098979E+02  0.64299609244E-01 -0.11917832591E+04  0.11935690742E+04  0.00000000000E+00 0. -1.
          1    1    1    2  502    0 -0.96029725525E+02  0.19461201606E+02  0.18022446344E+04  0.18049061385E+04  0.00000000000E+00 0. -1.
         22    1    3    3    0    0  0.44081288308E+02  0.34100415504E+02  0.40048585006E+02  0.68628619959E+02  0.00000000000E+00 0.  1.
         22    1    3    3    0    0  0.11721553619E+03 -0.53625916720E+02 -0.44656356007E+02  0.13641631501E+03  0.00000000000E+00 0.  1.
</event>
<event>
 7    1  0.6742418E-006  0.1212976E+03  0.7818608E-02  0.1344103E+00
          2   -1    0    0  502    0  0.00000000000E+00  0.00000000000E+00  0.15996428287E+04  0.15996428287E+04  0.00000000000E+00 0. -1.
          1   -1    0    0  501    0 -0.00000000000E+00 -0.00000000000E+00 -0.89874255685E+03  0.89874255685E+03  0.00000000000E+00 0. -1.
         25    2    1    2    0    0  0.54154559466E+02 -0.96146051186E+02 -0.14303603562E+03  0.21968452590E+03  0.12500081585E+03 0.  0.
          2    1    1    2  501    0  0.41296323823E+02  0.20893659575E+02 -0.71426663447E+03  0.71576445601E+03  0.00000000000E+00 0. -1.
          1    1    1    2  502    0 -0.95450883289E+02  0.75252391611E+02  0.15582029420E+04  0.15629364037E+04  0.00000000000E+00 0. -1.
         22    1    3    3    0    0  0.13104433224E+01  0.29867978607E+02 -0.21685724090E+02  0.36933508324E+02  0.00000000000E+00 0.  1.
         22    1    3    3    0    0  0.52844116144E+02 -0.12601402979E+03 -0.12135031153E+03  0.18275101757E+03  0.00000000000E+00 0.  1.
</event>
<event>
 7    1  0.6443388E-006  0.1197051E+03  0.7818608E-02  0.1305108E+00
          2   -1    0    0  502    0  0.00000000000E+00  0.00000000000E+00  0.23757208292E+03  0.23757208292E+03  0.00000000000E+00 0. -1.
          1   -1    0    0  501    0 -0.00000000000E+00 -0.00000000000E+00 -0.17499511613E+04  0.17499511613E+04  0.00000000000E+00 0. -1.
         25    2    1    2    0    0 -0.15047331316E+02  0.85235790359E+02 -0.22248993769E+03  0.26948010769E+03  0.12500477562E+03 0.  0.
          2    1    1    2  501    0 -0.43216448971E+02 -0.11683741743E+03 -0.14961842338E+04  0.15013613506E+04  0.00000000000E+00 0. -1.
          1    1    1    2  502    0  0.58263780287E+02  0.31601627072E+02  0.20629509310E+03  0.21668178595E+03  0.00000000000E+00 0. -1.
         22    1    3    3    0    0 -0.14590703691E+02  0.11741981942E+03 -0.15789239069E+03  0.19730765232E+03  0.00000000000E+00 0. -1.
         22    1    3    3    0    0 -0.45662762481E+00 -0.32184029059E+02 -0.64597547003E+02  0.72172455369E+02  0.00000000000E+00 0. -1.
</event>
<event>
 7    1  0.6443388E-006  0.8391216E+02  0.7818608E-02  0.1379130E+00
          2   -1    0    0  502    0  0.00000000000E+00  0.00000000000E+00  0.76183966976E+03  0.76183966976E+03  0.00000000000E+00 0. -1.
          1   -1    0    0  501    0 -0.00000000000E+00 -0.00000000000E+00 -0.79662511588E+02  0.79662511588E+02  0.00000000000E+00 0. -1.
         25    2    1    2    0    0 -0.28479945931E+02 -0.12474943979E+03  0.28097052351E+03  0.33307651154E+03  0.12498798908E+03 0.  0.
          2    1    1    2  501    0  0.11565091722E+02  0.48516397288E+02 -0.37766602596E+02  0.62561237391E+02  0.00000000000E+00 0. -1.
          1    1    1    2  502    0  0.16914854209E+02  0.76233042500E+02  0.43897323726E+03  0.44586443242E+03  0.00000000000E+00 0. -1.
         22    1    3    3    0    0 -0.30467407089E+01 -0.14567486315E+03  0.23550987784E+03  0.27693925497E+03  0.00000000000E+00 0.  1.
         22    1    3    3    0    0 -0.25433205222E+02  0.20925423365E+02  0.45460645670E+02  0.56137256574E+02  0.00000000000E+00 0.  1.
</event>
<event>
 7    1  0.6443388E-006  0.1304822E+03  0.7818608E-02  0.1337055E+00
          2   -1    0    0  502    0  0.00000000000E+00  0.00000000000E+00  0.34495988744E+03  0.34495988744E+03  0.00000000000E+00 0. -1.
          1   -1    0    0  501    0 -0.00000000000E+00 -0.00000000000E+00 -0.10031455456E+04  0.10031455456E+04  0.00000000000E+00 0. -1.
         25    2    1    2    0    0 -0.16639245791E+03 -0.43723259036E+02 -0.25975320545E+03  0.33569629443E+03  0.12498840316E+03 0.  0.
          2    1    1    2  501    0  0.45721864324E+02 -0.82503979025E+00 -0.69115756810E+03  0.69266871844E+03  0.00000000000E+00 0. -1.
          1    1    1    2  502    0  0.12067059359E+03  0.44548298827E+02  0.29272511541E+03  0.31974042015E+03  0.00000000000E+00 0. -1.
         22    1    3    3    0    0 -0.14229561196E+03 -0.83580704158E+02 -0.21568992864E+03  0.27158041278E+03  0.00000000000E+00 0.  1.
         22    1    3    3    0    0 -0.24096845946E+02  0.39857445122E+02 -0.44063276807E+02  0.64115881646E+02  0.00000000000E+00 0.  1.
</event>
<event>
 7    1  0.6443388E-006  0.9828842E+02  0.7818608E-02  0.1444709E+00
          2   -1    0    0  502    0  0.00000000000E+00  0.00000000000E+00  0.10051883472E+04  0.10051883472E+04  0.00000000000E+00 0. -1.
          1   -1    0    0  501    0 -0.00000000000E+00 -0.00000000000E+00 -0.66902473465E+02  0.66902473465E+02  0.00000000000E+00 0. -1.
         25    2    1    2    0    0 -0.60535273361E+01  0.86379684504E+02  0.23103545889E+03  0.27658477678E+03  0.12499464147E+03 0.  0.
          2    1    1    2  501    0 -0.15429424031E+02 -0.10021956836E+03  0.14671995222E+02  0.10245631485E+03  0.00000000000E+00 0. -1.
          1    1    1    2  502    0  0.21482951367E+02  0.13839883858E+02  0.69257841961E+03  0.69304972902E+03  0.00000000000E+00 0. -1.
         22    1    3    3    0    0  0.41641014908E+02  0.42094809125E+02  0.32267173359E+02  0.67432318323E+02  0.00000000000E+00 0. -1.
         22    1    3    3    0    0 -0.47694542244E+02  0.44284875379E+02  0.19876828553E+03  0.20915245846E+03  0.00000000000E+00 0. -1.
</event>
<event>
 7    1  0.6443388E-006  0.8817537E+02  0.7818608E-02  0.1360511E+00
          2   -1    0    0  502    0  0.00000000000E+00  0.00000000000E+00  0.22629685383E+04  0.22629685383E+04  0.00000000000E+00 0. -1.
          1   -1    0    0  501    0 -0.00000000000E+00 -0.00000000000E+00 -0.54511692561E+02  0.54511692561E+02  0.00000000000E+00 0. -1.
         25    2    1    2    0    0 -0.12151967687E+03  0.37505893671E+02  0.67993683342E+03  0.70293306726E+03  0.12500830244E+03 0.  0.
          2    1    1    2  501    0  0.86032158935E+02  0.50046881279E+01  0.11618152882E+01  0.86185434321E+02  0.00000000000E+00 0. -1.
          1    1    1    2  502    0  0.35487517933E+02 -0.42510581798E+02  0.15273581970E+04  0.15283617293E+04  0.00000000000E+00 0. -1.
         22    1    3    3    0    0 -0.85609766309E+02  0.26160016331E+02  0.64620324517E+03  0.65237413545E+03  0.00000000000E+00 0.  1.
         22    1    3    3    0    0 -0.35909910559E+02  0.11345877339E+02  0.33733588248E+02  0.50558931803E+02  0.00000000000E+00 0.  1.
</event>
<event>
 7    1  0.6443388E-006  0.1204182E+03  0.7818608E-02  0.1404049E+00
          2   -1    0    0  502    0  0.00000000000E+00  0.00000000000E+00  0.18426792324E+03  0.18426792324E+03  0.00000000000E+00 0. -1.
          1   -1    0    0  501    0 -0.00000000000E+00 -0.00000000000E+00 -0.10921776509E+04  0.10921776509E+04  0.00000000000E+00 0. -1.
         25    2    1    2    0    0 -0.82582281816E+02  0.11425042971E+03 -0.11313196274E+03  0.21976497803E+03  0.12499924246E+03 0.  0.
          2    1    1    2  501    0  0.82516242487E+02 -0.85788800864E+02 -0.92030309879E+03  0.92796898778E+03  0.00000000000E+00 0. -1.
          1    1    1    2  502    0  0.66039328648E-01 -0.28461628845E+02  0.12552533387E+03  0.12871160834E+03  0.00000000000E+00 0. -1.
         22    1    3    3    0    0  0.24824195892E+02  0.65486311456E+02 -0.35142586646E+02  0.78356231954E+02  0.00000000000E+00 0.  1.
         22    1    3    3    0    0 -0.10740647771E+03  0.48764118253E+02 -0.77989376098E+02  0.14140874608E+03  0.00000000000E+00 0.  1.
</event>
<event>
 7    1  0.6443388E-006  0.6712437E+02  0.7818608E-02  0.1385993E+00
          2   -1    0    0  502    0  0.00000000000E+00  0.00000000000E+00  0.97960038677E+03  0.97960038677E+03  0.00000000000E+00 0. -1.
          1   -1    0    0  501    0 -0.00000000000E+00 -0.00000000000E+00 -0.23444840463E+03  0.23444840463E+03  0.00000000000E+00 0. -1.
         25    2    1    2    0    0 -0.33833302872E+02  0.43383001030E+02  0.65883475385E+03  0.67284038751E+03  0.12499670802E+03 0.  0.
          2    1    1    2  501    0 -0.21451522350E+02 -0.63897963784E+02 -0.21957335157E+03  0.22968581651E+03  0.00000000000E+00 0. -1.
          1    1    1    2  502    0  0.55284825221E+02  0.20514962754E+02  0.30589057987E+03  0.31152258738E+03  0.00000000000E+00 0. -1.
         22    1    3    3    0    0 -0.55345262140E+02 -0.12546235987E+02  0.14806992835E+03  0.15857241173E+03  0.00000000000E+00 0. -1.
         22    1    3    3    0    0  0.21511959269E+02  0.55929237017E+02  0.51076482550E+03  0.51426797578E+03  0.00000000000E+00 0. -1.
</event>
<event>
 7    1  0.6443388E-006  0.3448237E+02  0.7818608E-02  0.1553754E+00
          2   -1    0    0  502    0  0.00000000000E+00  0.00000000000E+00  0.38937091873E+03  0.38937091873E+03  0.00000000000E+00 0. -1.
          1   -1    0    0  501    0 -0.00000000000E+00 -0.00000000000E+00 -0.29777528480E+03  0.29777528480E+03  0.00000000000E+00 0. -1.
         25    2    1    2    0    0  0.33466032897E+01  0.25496162921E+02 -0.10129248274E+03  0.16293500255E+03  0.12500557555E+03 0.  0.
          2    1    1    2  501    0  0.30081573346E+02 -0.16856231415E+02 -0.16302268409E+03  0.16662961657E+03  0.00000000000E+00 0. -1.
          1    1    1    2  502    0 -0.33428176636E+02 -0.86399315065E+01  0.35591080076E+03  0.35758158441E+03  0.00000000000E+00 0. -1.
         22    1    3    3    0    0 -0.42627690723E+02 -0.18588939011E+02 -0.85471598134E+02  0.97303970924E+02  0.00000000000E+00 0.  1.
         22    1    3    3    0    0  0.45974294012E+02  0.44085101932E+02 -0.15820884605E+02  0.65631031624E+02  0.00000000000E+00 0.  1.
</event>
<event>
 7    1  0.6443388E-006  0.1290677E+03  0.7818608E-02  0.1358571E+00
          2   -1    0    0  502    0  0.00000000000E+00  0.00000000000E+00  0.14587259835E+03  0.14587259835E+03  0.00000000000E+00 0. -1.
          1   -1    0    0  501    0 -0.00000000000E+00 -0.00000000000E+00 -0.12523555096E+04  0.12523555096E+04  0.00000000000E+00 0. -1.
         25    2    1    2    0    0 -0.15875491512E+03 -0.30237299670E+02 -0.14122331103E+02  0.20479565501E+03  0.12499761082E+03 0.  0.
          2    1    1    2  501    0  0.12152077971E+03  0.39844671497E+02 -0.11314177201E+04  0.11386223936E+04  0.00000000000E+00 0. -1.
          1    1    1    2  502    0  0.37234135411E+02 -0.96073718263E+01  0.39057139931E+02  0.54810059412E+02  0.00000000000E+00 0. -1.
         22    1    3    3    0    0 -0.92994047291E+02 -0.49514347964E+02  0.44737611401E+02  0.11445967569E+03  0.00000000000E+00 0. -1.
         22    1    3    3    0    0 -0.65760867825E+02  0.19277048293E+02 -0.58859942505E+02  0.90335979320E+02  0.00000000000E+00 0. -1.
</event>
<event>
 7    1  0.6443388E-006  0.6713598E+02  0.7818608E-02  0.1486996E+00
          2   -1    0    0  502    0  0.00000000000E+00  0.00000000000E+00  0.28127507671E+04  0.28127507671E+04  0.00000000000E+00 0. -1.
          1   -1    0    0  501    0 -0.00000000000E+00 -0.00000000000E+00 -0.24584622993E+02  0.24584622993E+02  0.00000000000E+00 0. -1.
         25    2    1    2    0    0  0.65246549980E+02 -0.20970048234E+02  0.13017575969E+04  0.13095403173E+04  0.12500458475E+03 0.  0.
          2    1    1    2  501    0  0.22263020513E+01  0.27495751048E+02 -0.10378737374E+02  0.29473563340E+02  0.00000000000E+00 0. -1.
          1    1    1    2  502    0 -0.67472852031E+02 -0.65257028143E+01  0.14967872846E+04  0.14983215095E+04  0.00000000000E+00 0. -1.
         22    1    3    3    0    0 -0.10013395552E+02 -0.49715954773E+02  0.27575846028E+03  0.28038308199E+03  0.00000000000E+00 0.  1.
         22    1    3    3    0    0  0.75259945532E+02  0.28745906540E+02  0.10259991366E+04  0.10291572353E+04  0.00000000000E+00 0.  1.
</event>
<event>
 7    1  0.6443388E-006  0.6015830E+02  0.7818608E-02  0.1548008E+00
          2   -1    0    0  502    0  0.00000000000E+00  0.00000000000E+00  0.55940304616E+02  0.55940304616E+02  0.00000000000E+00 0. -1.
          1   -1    0    0  501    0 -0.00000000000E+00 -0.00000000000E+00 -0.38087609921E+03  0.38087609921E+03  0.00000000000E+00 0. -1.
         25    2    1    2    0    0  0.51560731399E+02 -0.32815379201E+02 -0.14534623661E+03  0.20121415594E+03  0.12500499957E+03 0.  0.
          2    1    1    2  501    0  0.73875945443E+01  0.19059024200E+02 -0.17357229134E+03  0.17477174623E+03  0.00000000000E+00 0. -1.
          1    1    1    2  502    0 -0.58948325943E+02  0.13756355001E+02 -0.60172666379E+01  0.60830501660E+02  0.00000000000E+00 0. -1.
         22    1    3    3    0    0  0.38662421285E+02  0.36959945384E+02 -0.10916635225E+03  0.12156526168E+03  0.00000000000E+00 0.  1.
         22    1    3    3    0    0  0.12898310114E+02 -0.69775324585E+02 -0.36179884357E+02  0.79648894260E+02  0.00000000000E+00 0.  1.
</event>
<event>
 7    1  0.6443388E-006  0.9100041E+02  0.7818608E-02  0.1363555E+00
          2   -1    0    0  502    0  0.00000000000E+00  0.00000000000E+00  0.12636117246E+04  0.12636117246E+04  0.00000000000E+00 0. -1.
          1   -1    0    0  501    0 -0.00000000000E+00 -0.00000000000E+00 -0.36528510299E+03  0.36528510299E+03  0.00000000000E+00 0. -1.
         25    2    1    2    0    0  0.30202685421E+02 -0.66653656497E+02  0.67880927859E+02  0.15996172919E+03  0.12500008923E+03 0.  0.
          2    1    1    2  501    0 -0.79194750841E+02  0.48330559018E+02 -0.31189295602E+03  0.32539955057E+03  0.00000000000E+00 0. -1.
          1    1    1    2  502    0  0.48992065420E+02  0.18323097479E+02  0.11423386498E+04  0.11435355478E+04  0.00000000000E+00 0. -1.
         22    1    3    3    0    0 -0.83537390355E+01 -0.76497690003E+02 -0.47981449998E+01  0.77101904822E+02  0.00000000000E+00 0.  1.
         22    1    3    3    0    0  0.38556424457E+02  0.98440335068E+01  0.72679072859E+02  0.82859824367E+02  0.00000000000E+00 0.  1.
</event>
<event>
 7    1  0.6443388E-006  0.9270262E+02  0.7818608E-02  0.1398491E+00
          2   -1    0    0  502    0  0.00000000000E+00  0.00000000000E+00  0.17882640876E+04  0.17882640876E+04  0.00000000000E+00 0. -1.
          1   -1    0    0  501    0 -0.00000000000E+00 -0.00000000000E+00 -0.31491190969E+03  0.31491190969E+03  0.00000000000E+00 0. -1.
         25    2    1    2    0    0  0.66019321955E+01  0.93065791538E+02  0.10573751713E+04  0.10688180288E+04  0.12499959570E+03 0.  0.
          2    1    1    2  501    0  0.31582442345E+02 -0.87208457793E+02 -0.30170341840E+03  0.31563858834E+03  0.00000000000E+00 0. -1.
          1    1    1    2  502    0 -0.38184374540E+02 -0.58573337449E+01  0.71768042508E+03  0.71871938012E+03  0.00000000000E+00 0. -1.
         22    1    3    3    0    0  0.35943326711E+02 -0.17894181743E+02  0.33195100027E+03  0.33437043987E+03  0.00000000000E+00 0. -1.
         22    1    3    3    0    0 -0.29341394515E+02  0.11095997328E+03  0.72542417098E+03  0.73444758897E+03  0.00000000000E+00 0. -1.
</event>
<event>
 7    1  0.6443388E-006  0.6007537E+02  0.7818608E-02  0.1485045E+00
          2   -1    0    0  502    0  0.00000000000E+00  0.00000000000E+00  0.63160674793E+03  0.63160674793E+03  0.00000000000E+00 0. -1.
          1   -1    0    0  501    0 -0.00000000000E+00 -0.00000000000E+00 -0.81618962237E+02  0.81618962237E+02  0.00000000000E+00 0. -1.
         25    2    1    2    0    0 -0.76656762272E+02 -0.13152734725E+02  0.34289802882E+03  0.37316517419E+03  0.12499574162E+03 0.  0.
          2    1    1    2  501    0  0.50950225264E+02  0.30925618061E+02 -0.51997465104E+02  0.79095231741E+02  0.00000000000E+00 0. -1.
          1    1    1    2  502    0  0.25706537008E+02 -0.17772883335E+02  0.25908722197E+03  0.26096530424E+03  0.00000000000E+00 0. -1.
         22    1    3    3    0    0 -0.63184885038E+02  0.33370715842E+02  0.86332997887E+02  0.11206837599E+03  0.00000000000E+00 0.  1.
         22    1    3    3    0    0 -0.13471877234E+02 -0.46523450567E+02  0.25656503094E+03  0.26109679820E+03  0.00000000000E+00 0.  1.
</event>
<event>
 7    1  0.6443388E-006  0.5606080E+02  0.7818608E-02  0.1430895E+00
          2   -1    0    0  502    0  0.00000000000E+00  0.00000000000E+00  0.13261068656E+03  0.13261068656E+03  0.00000000000E+00 0. -1.
          1   -1    0    0  501    0 -0.00000000000E+00 -0.00000000000E+00 -0.15324613649E+04  0.15324613649E+04  0.00000000000E+00 0. -1.
         25    2    1    2    0    0 -0.51392121587E+01 -0.22660978882E+02  0.75019427150E+02  0.14762107037E+03  0.12499653796E+03 0.  0.
          2    1    1    2  501    0  0.54239849239E+02  0.15013269398E+02 -0.14658698810E+04  0.14669498518E+04  0.00000000000E+00 0. -1.
          1    1    1    2  502    0 -0.49100637080E+02  0.76477094840E+01 -0.90002244511E+01  0.50501129316E+02  0.00000000000E+00 0. -1.
         22    1    3    3    0    0  0.35309312236E+02 -0.44599161486E+02  0.83297265251E+02  0.10086757226E+03  0.00000000000E+00 0.  1.
         22    1    3    3    0    0 -0.40448524395E+02  0.21938182604E+02 -0.82778381010E+01  0.46753498108E+02  0.00000000000E+00 0.  1.
</event>
<event>
 7    1  0.6443388E-006  0.5561856E+02  0.7818608E-02  0.1469704E+00
          2   -1    0    0  502    0  0.00000000000E+00  0.00000000000E+00  0.21647466459E+03  0.21647466459E+03  0.00000000000E+00 0. -1.
          1   -1    0    0  501    0 -0.00000000000E+00 -0.00000000000E+00 -0.84289585859E+03  0.84289585859E+03  0.00000000000E+00 0. -1.
         25    2    1    2    0    0 -0.35807757184E+02  0.16094619363E+02 -0.49167970925E+03  0.50883900349E+03  0.12500785074E+03 0.  0.
          2    1    1    2  501    0  0.13570486007E+02  0.35102975592E+02 -0.33782594078E+03  0.33991578847E+03  0.00000000000E+00 0. -1.
          1    1    1    2  502    0  0.22237271177E+02 -0.51197594955E+02  0.20308445602E+03  0.21061573122E+03  0.00000000000E+00 0. -1.
         22    1    3    3    0    0  0.39556421216E+02  0.62184926051E+01 -0.72491266231E+02  0.82815238872E+02  0.00000000000E+00 0. -1.
         22    1    3    3    0    0 -0.75364178400E+02  0.98761267577E+01 -0.41918844302E+03  0.42602376462E+03  0.00000000000E+00 0. -1.
</event>
<event>
 7    1  0.6443388E-006  0.8316947E+02  0.7818608E-02  0.1409536E+00
          2   -1    0    0  502    0  0.00000000000E+00  0.00000000000E+00  0.56622578791E+03  0.56622578791E+03  0.00000000000E+00 0. -1.
          1   -1    0    0  501    0 -0.00000000000E+00 -0.00000000000E+00 -0.21110375335E+04  0.21110375335E+04  0.00000000000E+00 0. -1.
         25    2    1    2    0    0 -0.50678423905E+02 -0.54851994768E+02  0.12884281011E+03  0.19442767228E+03  0.12499842420E+03 0.  0.
          2    1    1    2  501    0 -0.29684670083E+02  0.26018853398E+02 -0.20735508732E+04  0.20739265619E+04  0.00000000000E+00 0. -1.
          1    1    1    2  502    0  0.80363093988E+02  0.28833141370E+02  0.39989631747E+03  0.40890908726E+03  0.00000000000E+00 0. -1.
         22    1    3    3    0    0 -0.15815149347E+02 -0.50499457206E+02  0.14602465741E+03  0.15531746424E+03  0.00000000000E+00 0.  1.
         22    1    3    3    0    0 -0.34863274559E+02 -0.43525375618E+01 -0.17181847300E+02  0.39110208039E+02  0.00000000000E+00 0.  1.
</event>
<event>
 7    1  0.6443388E-006  0.1558323E+03  0.7818608E-02  0.1256598E+00
          2   -1    0    0  502    0  0.00000000000E+00  0.00000000000E+00  0.18463947629E+04  0.18463947629E+04  0.00000000000E+00 0. -1.
          1   -1    0    0  501    0 -0.00000000000E+00 -0.00000000000E+00 -0.50554863745E+03  0.50554863745E+03  0.00000000000E+00 0. -1.
         25    2    1    2    0    0  0.71407649795E+02  0.78062598148E+02  0.57040621667E+03  0.59344910582E+03  0.12500306997E+03 0.  0.
          2    1    1    2  501    0  0.64971722994E+02  0.47943213329E+02 -0.48384700573E+03  0.49053827725E+03  0.00000000000E+00 0. -1.
          1    1    1    2  502    0 -0.13637937279E+03 -0.12600581148E+03  0.12542869145E+04  0.12679560173E+04  0.00000000000E+00 0. -1.
         22    1    3    3    0    0  0.89726356216E+01  0.82825490056E+02  0.45090519364E+03  0.45853687272E+03  0.00000000000E+00 0.  1.
         22    1    3    3    0    0  0.62435014174E+02 -0.47628919086E+01  0.11950102304E+03  0.13491223310E+03  0.00000000000E+00 0.  1.
</event>
<event>
 7    1  0.6443388E-006  0.6248371E+02  0.7818608E-02  0.1409700E+00
          2   -1    0    0  502    0  0.00000000000E+00  0.00000000000E+00  0.16283470860E+04  0.16283470860E+04  0.00000000000E+00 0. -1.
          1   -1    0    0  501    0 -0.00000000000E+00 -0.00000000000E+00 -0.35606437635E+03  0.35606437635E+03  0.00000000000E+00 0. -1.
         25    2    1    2    0    0  0.53985166572E+02 -0.91031079680E+02  0.43147016057E+02  0.16937098498E+03  0.12499523943E+03 0.  0.
          2    1    1    2  501    0 -0.55174673196E+01  0.52183556787E+02 -0.28996275725E+03  0.29467264318E+03  0.00000000000E+00 0. -1.
          1    1    1    2  502    0 -0.48467699252E+02  0.38847522893E+02  0.15190984508E+04  0.15203678342E+04  0.00000000000E+00 0. -1.
         22    1    3    3    0    0  0.32402386041E+01  0.23221994918E+02 -0.18609015359E+02  0.29934188594E+02  0.00000000000E+00 0. -1.
         22    1    3    3    0    0  0.50744927968E+02 -0.11425307460E+03  0.61756031416E+02  0.13943679638E+03  0.00000000000E+00 0. -1.
</event>
<event>
 7    1  0.6443388E-006  0.7829646E+02  0.7818608E-02  0.1377688E+00
          2   -1    0    0  502    0  0.00000000000E+00  0.00000000000E+00  0.57311015654E+02  0.57311015654E+02  0.00000000000E+00 0. -1.
          1   -1    0    0  501    0 -0.00000000000E+00 -0.00000000000E+00 -0.10436209637E+04  0.10436209637E+04  0.00000000000E+00 0. -1.
         25    2    1    2    0    0  0.32025226639E+02 -0.56445700891E+02 -0.53893342760E+03  0.55703556904E+03  0.12501061356E+03 0.  0.
          2    1    1    2  501    0  0.11727703766E+02  0.88242873526E+02 -0.47492658541E+03  0.48319727368E+03  0.00000000000E+00 0. -1.
          1    1    1    2  502    0 -0.43752930404E+02 -0.31797172635E+02  0.27550064974E+02  0.60699136621E+02  0.00000000000E+00 0. -1.
         22    1    3    3    0    0 -0.27995261424E+02 -0.25955428189E+02 -0.47158309314E+02  0.60673923988E+02  0.00000000000E+00 0. -1.
         22    1    3    3    0    0  0.60020488063E+02 -0.30490272702E+02 -0.49177511829E+03  0.49636164506E+03  0.00000000000E+00 0. -1.
</event>
<event>
 7    1  0.6443388E-006  0.1895531E+03  0.7818608E-02  0.1333919E+00
          2   -1    0    0  502    0  0.00000000000E+00  0.00000000000E+00  0.61831656757E+03  0.61831656757E+03  0.00000000000E+00 0. -1.
          1   -1    0    0  501    0 -0.00000000000E+00 -0.00000000000E+00 -0.22393065000E+04  0.22393065000E+04  0.00000000000E+00 0. -1.
         25    2    1    2    0    0  0.21673222550E+03  0.28974658965E+02 -0.67606952880E+02  0.26078098860E+03  0.12499454191E+03 0.  0.
          2    1    1    2  501    0 -0.32350179319E+02 -0.29505078588E+00 -0.20582968143E+04  0.20585510430E+04  0.00000000000E+00 0. -1.
          1    1    1    2  502    0 -0.18438204618E+03 -0.28679608179E+02  0.50491383472E+03  0.53829103594E+03  0.00000000000E+00 0. -1.
         22    1    3    3    0    0  0.15872034369E+03  0.43830004606E+02  0.73687461670E+01  0.16482571166E+03  0.00000000000E+00 0. -1.
         22    1    3    3    0    0  0.58011881805E+02 -0.14855345641E+02 -0.74975699047E+02  0.95955276938E+02  0.00000000000E+00 0. -1.
</event>
<event>
 7    1  0.6443388E-006  0.8295287E+02  0.7818608E-02  0.1397802E+00
          2   -1    0    0  502    0  0.00000000000E+00  0.00000000000E+00  0.11381558825E+04  0.11381558825E+04  0.00000000000E+00 0. -1.
          1   -1    0    0  501    0 -0.00000000000E+00 -0.00000000000E+00 -0.47809059968E+02  0.47809059968E+02  0.00000000000E+00 0. -1.
         25    2    1    2    0    0 -0.72038260859E+02 -0.96789500630E+02  0.34942522904E+03  0.39023043518E+03  0.12499633351E+03 0.  0.
          2    1    1    2  501    0  0.45319605461E+02  0.62578303890E+02  0.29057987317E+02  0.82548636474E+02  0.00000000000E+00 0. -1.
          1    1    1    2  502    0  0.26718655399E+02  0.34211196740E+02  0.71186360614E+03  0.71318587077E+03  0.00000000000E+00 0. -1.
         22    1    3    3    0    0  0.18075204550E+02  0.17305569590E+02  0.83332547630E+02  0.87008673434E+02  0.00000000000E+00 0.  1.
         22    1    3    3    0    0 -0.90113465409E+02 -0.11409507022E+03  0.26609268141E+03  0.30322176174E+03  0.00000000000E+00 0.  1.
</event>
<event>
 7    1  0.6443388E-006  0.4994574E+02  0.7818608E-02  0.1485046E+00
          2   -1    0    0  502    0  0.00000000000E+00  0.00000000000E+00  0.37515735436E+03  0.37515735436E+03  0.00000000000E+00 0. -1.
          1   -1    0    0  501    0 -0.00000000000E+00 -0.00000000000E+00 -0.13373324150E+03  0.13373324150E+03  0.00000000000E+00 0. -1.
         25    2    1    2    0    0 -0.55020380408E+02 -0.44775818874E+02  0.84837695544E+02  0.16689671558E+03  0.12499985148E+03 0.  0.
          2    1    1    2  501    0  0.48700085439E+02  0.77206034443E+01 -0.84586492621E+02  0.97909043368E+02  0.00000000000E+00 0. -1.
          1    1    1    2  502    0  0.63202949689E+01  0.37055215430E+02  0.24117290994E+03  0.24408483690E+03  0.00000000000E+00 0. -1.
         22    1    3    3    0    0 -0.92171732468E+02 -0.45668818263E+02  0.78039588398E+02  0.12911795609E+03  0.00000000000E+00 0.  1.
         22    1    3    3    0    0  0.37151352060E+02  0.89299938868E+00  0.67981071468E+01  0.37778759489E+02  0.00000000000E+00 0.  1.
</event>
<event>
 7    1  0.6443388E-006  0.6308837E+02  0.7818608E-02  0.1471076E+00
          2   -1    0    0  502    0  0.00000000000E+00  0.00000000000E+00  0.18437041041E+04  0.18437041041E+04  0.00000000000E+00 0. -1.
          1   -1    0    0  501    0 -0.00000000000E+00 -0.00000000000E+00 -0.18528481826E+02  0.18528481826E+02  0.00000000000E+00 0. -1.
         25    2    1    2    0    0 -0.26108890082E+02 -0.87327382878E+02  0.98062150976E+03  0.99275002641E+03  0.12500529427E+03 0.  0.
          2    1    1    2  501    0  0.11083005845E+02  0.30928756571E+02  0.12141481102E+02  0.35026226815E+02  0.00000000000E+00 0. -1.
          1    1    1    2  502    0  0.15025884238E+02  0.56398626307E+02  0.83241263144E+03  0.83445633272E+03  0.00000000000E+00 0. -1.
         22    1    3    3    0    0 -0.63008968697E+02 -0.74087332240E+02  0.86936865625E+03  0.87479193150E+03  0.00000000000E+00 0.  1.
         22    1    3    3    0    0  0.36900078615E+02 -0.13240050638E+02  0.11125285350E+03  0.11795809491E+03  0.00000000000E+00 0.  1.
</event>
<event>
 7    1  0.6443388E-006  0.1058966E+03  0.7818608E-02  0.1453875E+00
          2   -1    0    0  502    0  0.00000000000E+00  0.00000000000E+00  0.70983148292E+03  0.70983148292E+03  0.00000000000E+00 0. -1.
          1   -1    0    0  501    0 -0.00000000000E+00 -0.00000000000E+00 -0.50768563906E+02  0.50768563906E+02  0.00000000000E+00 0. -1.
         25    2    1    2    0    0 -0.31532449012E+02  0.11330586055E+03  0.47929484315E+03  0.50909876015E+03  0.12500195015E+03 0.  0.
          2    1    1    2  501    0  0.43592193594E+02 -0.94704515378E+02  0.42714784293E+02  0.11266666487E+03  0.00000000000E+00 0. -1.
          1    1    1    2  502    0 -0.12059744582E+02 -0.18601345173E+02  0.13705329156E+03  0.13883462180E+03  0.00000000000E+00 0. -1.
         22    1    3    3    0    0 -0.10943680542E+02  0.44181126887E+02  0.39728787319E+03  0.39988672183E+03  0.00000000000E+00 0. -1.
         22    1    3    3    0    0 -0.20588768470E+02  0.69124733665E+02  0.82006969964E+02  0.10921203832E+03  0.00000000000E+00 0. -1.
</event>
<event>
 7    1  0.6993588E-006  0.5303079E+02  0.7818608E-02  0.1460105E+00
          2   -1    0    0  502    0  0.00000000000E+00  0.00000000000E+00  0.32001422523E+04  0.32001422523E+04  0.00000000000E+00 0. -1.
          1   -1    0    0  501    0 -0.00000000000E+00 -0.00000000000E+00 -0.98298132738E+03  0.98298132738E+03  0.00000000000E+00 0. -1.
         25    2    1    2    0    0  0.56737907755E+02  0.48453616698E+02 -0.13108451434E+02  0.14615338195E+03  0.12498814507E+03 0.  0.
          2    1    1    2  501    0 -0.14506924058E+02 -0.50895231713E+02 -0.90243238550E+03  0.90398284600E+03  0.00000000000E+00 0. -1.
          1    1    1    2  502    0 -0.42230983697E+02  0.24416150144E+01  0.31327017619E+04  0.31329873518E+04  0.00000000000E+00 0. -1.
         22    1    3    3    0    0  0.63876654492E+02 -0.25122322243E+02  0.84373626126E+01  0.69155962518E+02  0.00000000000E+00 0.  1.
         22    1    3    3    0    0 -0.71387467375E+01  0.73575938941E+02 -0.21545814046E+02  0.76997419431E+02  0.00000000000E+00 0.  1.
</event>
<event>
 7    1  0.6443388E-006  0.9830252E+02  0.7818608E-02  0.1371620E+00
          2   -1    0    0  502    0  0.00000000000E+00  0.00000000000E+00  0.32445829758E+03  0.32445829758E+03  0.00000000000E+00 0. -1.
          1   -1    0    0  501    0 -0.00000000000E+00 -0.00000000000E+00 -0.29372132508E+03  0.29372132508E+03  0.00000000000E+00 0. -1.
         25    2    1    2    0    0 -0.54527132398E+02  0.14150601023E+02 -0.89141151920E+02  0.16353800317E+03  0.12500034335E+03 0.  0.
          2    1    1    2  501    0 -0.45062896014E+02  0.44550192087E+01 -0.15510957846E+03  0.16158432203E+03  0.00000000000E+00 0. -1.
          1    1    1    2  502    0  0.99590028412E+02 -0.18605620232E+02  0.27498770288E+03  0.29305729747E+03  0.00000000000E+00 0. -1.
         22    1    3    3    0    0  0.18162118399E+02 -0.41667324257E+02 -0.30280262503E+02  0.54616140039E+02  0.00000000000E+00 0.  1.
         22    1    3    3    0    0 -0.72689250797E+02  0.55817925280E+02 -0.58860889416E+02  0.10892186313E+03  0.00000000000E+00 0.  1.
</event>
<event>
 7    1  0.6443388E-006  0.6115919E+02  0.7818608E-02  0.1528994E+00
          2   -1    0    0  502    0  0.00000000000E+00  0.00000000000E+00  0.15750727348E+04  0.15750727348E+04  0.00000000000E+00 0. -1.
          1   -1    0    0  501    0 -0.00000000000E+00 -0.00000000000E+00 -0.15343842430E+04  0.15343842430E+04  0.00000000000E+00 0. -1.
         25    2    1    2    0    0  0.54142491074E+02 -0.13626871921E+01 -0.30193275356E+02  0.13953313069E+03  0.12499837770E+03 0.  0.
          2    1    1    2  501    0 -0.57523352087E+02 -0.21145765995E+02 -0.14487879669E+04  0.14500836708E+04  0.00000000000E+00 0. -1.
          1    1    1    2  502    0  0.33808610130E+01  0.22508453187E+02  0.15196697340E+04  0.15198401762E+04  0.00000000000E+00 0. -1.
         22    1    3    3    0    0 -0.11797271358E+02  0.38257639162E+02 -0.46017194885E+02  0.60995121041E+02  0.00000000000E+00 0. -1.
         22    1    3    3    0    0  0.65939762432E+02 -0.39620326354E+02  0.15823919529E+02  0.78538009647E+02  0.00000000000E+00 0. -1.
</event>
<event>
 7    1  0.6443388E-006  0.6796347E+02  0.7818608E-02  0.1370722E+00
          2   -1    0    0  502    0  0.00000000000E+00  0.00000000000E+00  0.11747133780E+03  0.11747133780E+03  0.00000000000E+00 0. -1.
          1   -1    0    0  501    0 -0.00000000000E+00 -0.00000000000E+00 -0.10402174149E+04  0.10402174149E+04  0.00000000000E+00 0. -1.
         25    2    1    2    0    0  0.86036353055E+02  0.32573512302E+02 -0.53727678141E+03  0.55924475355E+03  0.12500026709E+03 0.  0.
          2    1    1    2  501    0 -0.58874865832E+02  0.29795209604E+02 -0.47859280213E+03  0.48312014509E+03  0.00000000000E+00 0. -1.
          1    1    1    2  502    0 -0.27161487223E+02 -0.62368721906E+02  0.93123506450E+02  0.11532385405E+03  0.00000000000E+00 0. -1.
         22    1    3    3    0    0  0.77029523067E+02 -0.36317937450E+02 -0.31939530839E+03  0.33055393361E+03  0.00000000000E+00 0. -1.
         22    1    3    3    0    0  0.90068299884E+01  0.68891449752E+02 -0.21788147303E+03  0.22869081994E+03  0.00000000000E+00 0. -1.
</event>
<event>
 7    1  0.6443388E-006  0.2891901E+03  0.7818608E-02  0.1263321E+00
          2   -1    0    0  502    0  0.00000000000E+00  0.00000000000E+00  0.13129212685E+04  0.13129212685E+04  0.00000000000E+00 0. -1.
          1   -1    0    0  501    0 -0.00000000000E+00 -0.00000000000E+00 -0.74680408671E+03  0.74680408671E+03  0.00000000000E+00 0. -1.
         25    2    1    2    0    0  0.27114532200E+03 -0.11133355165E+02 -0.24892528263E+03  0.38888632367E+03  0.12500015668E+03 0.  0.
          2    1    1    2  501    0  0.14935711022E+02 -0.37891024010E+02 -0.40993051724E+03  0.41194882465E+03  0.00000000000E+00 0. -1.
          1    1    1    2  502    0 -0.28608103302E+03  0.49024379175E+02  0.12249729817E+04  0.12588902069E+04  0.00000000000E+00 0. -1.
         22    1    3    3    0    0  0.20329571010E+03 -0.59908544891E+02 -0.20329071094E+03  0.29367548868E+03  0.00000000000E+00 0. -1.
         22    1    3    3    0    0  0.67849611894E+02  0.48775189726E+02 -0.45634571692E+02  0.95210834995E+02  0.00000000000E+00 0. -1.
</event>
<event>
 7    1  0.6443388E-006  0.1631970E+03  0.7818608E-02  0.1198884E+00
          2   -1    0    0  502    0  0.00000000000E+00  0.00000000000E+00  0.17682734026E+03  0.17682734026E+03  0.00000000000E+00 0. -1.
          1   -1    0    0  501    0 -0.00000000000E+00 -0.00000000000E+00 -0.21348755814E+04  0.21348755814E+04  0.00000000000E+00 0. -1.
         25    2    1    2    0    0 -0.19017862099E+02  0.70032885106E+02 -0.91344602413E+03  0.92481069745E+03  0.12499961218E+03 0.  0.
          2    1    1    2  501    0 -0.13970835442E+03 -0.12549919859E+02 -0.11688795182E+04  0.11772660077E+04  0.00000000000E+00 0. -1.
          1    1    1    2  502    0  0.15872621652E+03 -0.57482965247E+02  0.12427730113E+03  0.20962621659E+03  0.00000000000E+00 0. -1.
         22    1    3    3    0    0  0.67360808188E+01 -0.20916165848E+02 -0.35222706328E+02  0.41515055338E+02  0.00000000000E+00 0.  1.
         22    1    3    3    0    0 -0.25753942918E+02  0.90949050955E+02 -0.87822331780E+03  0.88329564211E+03  0.00000000000E+00 0.  1.
</event>
<event>
 7    1  0.6443388E-006  0.1163799E+03  0.7818608E-02  0.1250026E+00
          2   -1    0    0  502    0  0.00000000000E+00  0.00000000000E+00  0.33363632447E+04  0.33363632447E+04  0.00000000000E+00 0. -1.
          1   -1    0    0  501    0 -0.00000000000E+00 -0.00000000000E+00 -0.97360810457E+02  0.97360810457E+02  0.00000000000E+00 0. -1.
         25    2    1    2    0    0 -0.62574488457E+02  0.16402340958E+03  0.15422152644E+04  0.15572000066E+04  0.12499877412E+03 0.  0.
          2    1    1    2  501    0 -0.38974406579E+02 -0.10917832088E+03 -0.49769487274E+02  0.12615828146E+03  0.00000000000E+00 0. -1.
          1    1    1    2  502    0  0.10154889504E+03 -0.54845088702E+02  0.17465566571E+04  0.17503657670E+04  0.00000000000E+00 0. -1.
         22    1    3    3    0    0 -0.75589205403E+02  0.17163292616E+03  0.15103422811E+04  0.15219413246E+04  0.00000000000E+00 0. -1.
         22    1    3    3    0    0  0.13014716946E+02 -0.76095165763E+01  0.31872983258E+02  0.35258682072E+02  0.00000000000E+00 0. -1.
</event>
<event>
 7    1  0.6443388E-006  0.1554700E+03  0.7818608E-02  0.1362609E+00
          2   -1    0    0  502    0  0.00000000000E+00  0.00000000000E+00  0.22917242758E+04  0.22917242758E+04  0.00000000000E+00 0. -1.
          1   -1    0    0  501    0 -0.00000000000E+00 -0.00000000000E+00 -0.34093096443E+03  0.34093096443E+03  0.00000000000E+00 0. -1.
         25    2    1    2    0    0 -0.83776017209E+02 -0.11819324882E+03  0.44633710101E+03  0.48562632969E+03  0.12501223630E+03 0.  0.
          2    1    1    2  501    0  0.11281486906E+03  0.10775119245E+03 -0.30220925824E+03  0.34009991168E+03  0.00000000000E+00 0. -1.
          1    1    1    2  502    0 -0.29038851854E+02  0.10442056370E+02  0.18066654686E+04  0.18069289988E+04  0.00000000000E+00 0. -1.
         22    1    3    3    0    0  0.13116638200E+02 -0.84519571660E+02  0.15927654738E+03  0.18078888997E+03  0.00000000000E+00 0.  1.
         22    1    3    3    0    0 -0.96892655409E+02 -0.33673677162E+02  0.28706055362E+03  0.30483743971E+03  0.00000000000E+00 0.  1.
</event>
<event>
 7    1  0.6443388E-006  0.4707648E+02  0.7818608E-02  0.1543499E+00
          2   -1    0    0  502    0  0.00000000000E+00  0.00000000000E+00  0.91101748371E+03  0.91101748371E+03  0.00000000000E+00 0. -1.
          1   -1    0    0  501    0 -0.00000000000E+00 -0.00000000000E+00 -0.11564783484E+03  0.11564783484E+03  0.00000000000E+00 0. -1.
         25    2    1    2    0    0  0.28750710124E+02  0.26215531366E+02  0.56597835416E+03  0.58092370582E+03  0.12500798848E+03 0.  0.
          2    1    1    2  501    0  0.20804706680E+02 -0.17040791520E+02 -0.10458343251E+03  0.10798573402E+03  0.00000000000E+00 0. -1.
          1    1    1    2  502    0 -0.49555416804E+02 -0.91747398455E+01  0.33397472721E+03  0.33775587871E+03  0.00000000000E+00 0. -1.
         22    1    3    3    0    0 -0.40579738056E+02  0.37775258481E+02  0.17168637275E+03  0.18041589698E+03  0.00000000000E+00 0. -1.
         22    1    3    3    0    0  0.69330448181E+02 -0.11559727115E+02  0.39429198141E+03  0.40050780884E+03  0.00000000000E+00 0. -1.
</event>
<event>
 7    1  0.6443388E-006  0.8125938E+02  0.7818608E-02  0.1452906E+00
          2   -1    0    0  502    0  0.00000000000E+00  0.00000000000E+00  0.74033287425E+03  0.74033287425E+03  0.00000000000E+00 0. -1.
          1   -1    0    0  501    0 -0.00000000000E+00 -0.00000000000E+00 -0.47654101902E+03  0.47654101902E+03  0.00000000000E+00 0. -1.
         25    2    1    2    0    0  0.95724539433E+02  0.17680058891E+02  0.38894975822E+03  0.41997966298E+03  0.12500092388E+03 0.  0.
          2    1    1    2  501    0 -0.25373692262E+02  0.14239167940E+02 -0.45611410384E+03  0.45704119495E+03  0.00000000000E+00 0. -1.
          1    1    1    2  502    0 -0.70350847171E+02 -0.31919226831E+02  0.33095620086E+03  0.33985303533E+03  0.00000000000E+00 0. -1.
         22    1    3    3    0    0  0.79141432828E+02 -0.45235752523E+02  0.19157303321E+03  0.21215528923E+03  0.00000000000E+00 0.  1.
         22    1    3    3    0    0  0.16583106605E+02  0.62915811413E+02  0.19737672500E+03  0.20782437375E+03  0.00000000000E+00 0.  1.
</event>
<event>
 7    1  0.6443388E-006  0.5196594E+02  0.7818608E-02  0.1442582E+00
          2   -1    0    0  502    0  0.00000000000E+00  0.00000000000E+00  0.20068875608E+04  0.20068875608E+04  0.00000000000E+00 0. -1.
          1   -1    0    0  501    0 -0.00000000000E+00 -0.00000000000E+00 -0.67658236349E+02  0.67658236349E+02  0.00000000000E+00 0. -1.
         25    2    1    2    0    0 -0.22757780882E+02 -0.13963167749E+02  0.36258891051E+03  0.38447017284E+03  0.12503483169E+03 0.  0.
          2    1    1    2  501    0  0.43861646546E+02 -0.30375688030E+02 -0.43715906133E+02  0.68975408009E+02  0.00000000000E+00 0. -1.
          1    1    1    2  502    0 -0.21103865665E+02  0.44338855778E+02  0.16203563200E+04  0.16211002162E+04  0.00000000000E+00 0. -1.
         22    1    3    3    0    0 -0.41817839772E+02  0.33915475422E+02  0.29284200118E+03  0.29775061519E+03  0.00000000000E+00 0.  1.
         22    1    3    3    0    0  0.19060058891E+02 -0.47878643171E+02  0.69746909333E+02  0.86719557646E+02  0.00000000000E+00 0.  1.
</event>
<event>
 7    1  0.6443388E-006  0.1332923E+03  0.7818608E-02  0.1369163E+00
          2   -1    0    0  502    0  0.00000000000E+00  0.00000000000E+00  0.90955093927E+03  0.90955093927E+03  0.00000000000E+00 0. -1.
          1   -1    0    0  501    0 -0.00000000000E+00 -0.00000000000E+00 -0.19169154354E+03  0.19169154354E+03  0.00000000000E+00 0. -1.
         25    2    1    2    0    0 -0.13910392843E+03  0.85000056653E+02  0.36063791234E+03  0.41504259021E+03  0.12500294131E+03 0.  0.
          2    1    1    2  501    0  0.11748784799E+03 -0.58650611067E+02 -0.13760200002E+03  0.19020409831E+03  0.00000000000E+00 0. -1.
          1    1    1    2  502    0  0.21616080432E+02 -0.26349445586E+02  0.49482348341E+03  0.49599579428E+03  0.00000000000E+00 0. -1.
         22    1    3    3    0    0  0.13074385616E+02  0.57240114492E+01 -0.14589495240E+01  0.14346860285E+02  0.00000000000E+00 0.  1.
         22    1    3    3    0    0 -0.15217831404E+03  0.79276045204E+02  0.36209686187E+03  0.40069572993E+03  0.00000000000E+00 0.  1.
</event>
<event>
 7    1  0.6443388E-006  0.1047679E+03  0.7818608E-02  0.1426571E+00
          2   -1    0    0  502    0  0.00000000000E+00  0.00000000000E+00  0.11364520242E+03  0.11364520242E+03  0.00000000000E+00 0. -1.
          1   -1    0    0  501    0 -0.00000000000E+00 -0.00000000000E+00 -0.10692013047E+04  0.10692013047E+04  0.00000000000E+00 0. -1.
         25    2    1    2    0    0 -0.63752244255E+02  0.67399575432E+02 -0.94994406294E+03  0.96261395738E+03  0.12499942729E+03 0.  0.
          2    1    1    2  501    0  0.12526235995E+02  0.24456761931E+02 -0.84438531317E+02  0.88796989607E+02  0.00000000000E+00 0. -1.
          1    1    1    2  502    0  0.51226008260E+02 -0.91856337363E+02  0.78826491955E+02  0.13143556014E+03  0.00000000000E+00 0. -1.
         22    1    3    3    0    0  0.27917345915E+01 -0.68217678540E+00  0.34434061037E+01  0.44851078907E+01  0.00000000000E+00 0. -1.
         22    1    3    3    0    0 -0.66543978846E+02  0.68081752217E+02 -0.95338746904E+03  0.95812884949E+03  0.00000000000E+00 0. -1.
</event>
<event>
 7    1  0.6443388E-006  0.4406262E+03  0.7818608E-02  0.1271489E+00
          2   -1    0    0  502    0  0.00000000000E+00  0.00000000000E+00  0.16620848745E+04  0.16620848745E+04  0.00000000000E+00 0. -1.
          1   -1    0    0  501    0 -0.00000000000E+00 -0.00000000000E+00 -0.12278639447E+04  0.12278639447E+04  0.00000000000E+00 0. -1.
         25    2    1    2    0    0  0.37070682050E+03  0.20407226079E+03 -0.62389985260E+03  0.76416270480E+03  0.12499831578E+03 0.  0.
          2    1    1    2  501    0  0.23889821636E+02 -0.62447500529E+01 -0.50292595961E+03  0.50353176795E+03  0.00000000000E+00 0. -1.
          1    1    1    2  502    0 -0.39459664214E+03 -0.19782751073E+03  0.15610467419E+04  0.16222543464E+04  0.00000000000E+00 0. -1.
         22    1    3    3    0    0  0.46741925595E+02 -0.15427191147E+02 -0.56918786822E+02  0.75249944374E+02  0.00000000000E+00 0.  1.
         22    1    3    3    0    0  0.32396489491E+03  0.21949945193E+03 -0.56698106577E+03  0.68891276042E+03  0.00000000000E+00 0.  1.
</event>
<event>
 7    1  0.6443388E-006  0.9010341E+02  0.7818608E-02  0.1358312E+00
          2   -1    0    0  502    0  0.00000000000E+00  0.00000000000E+00  0.13016991877E+04  0.13016991877E+04  0.00000000000E+00 0. -1.
          1   -1    0    0  501    0 -0.00000000000E+00 -0.00000000000E+00 -0.30900838671E+04  0.30900838671E+04  0.00000000000E+00 0. -1.
         25    2    1    2    0    0 -0.34865850704E+02  0.32248841412E+01  0.51901418837E+03  0.53500219911E+03  0.12500239158E+03 0.  0.
          2    1    1    2  501    0  0.89388605025E+02 -0.11863407747E+02 -0.30804458617E+04  0.30817653658E+04  0.00000000000E+00 0. -1.
          1    1    1    2  502    0 -0.54522754322E+02  0.86385236056E+01  0.77304699389E+03  0.77501548990E+03  0.00000000000E+00 0. -1.
         22    1    3    3    0    0 -0.72990472847E+02  0.23976711221E+02  0.41884173037E+03  0.42582964540E+03  0.00000000000E+00 0.  1.
         22    1    3    3    0    0  0.38124622143E+02 -0.20751827080E+02  0.10017245800E+03  0.10917255370E+03  0.00000000000E+00 0.  1.
</event>
<event>
 7    1  0.6443388E-006  0.1286045E+03  0.7818608E-02  0.1318771E+00
          2   -1    0    0  502    0  0.00000000000E+00  0.00000000000E+00  0.93801023946E+03  0.93801023946E+03  0.00000000000E+00 0. -1.
          1   -1    0    0  501    0 -0.00000000000E+00 -0.00000000000E+00 -0.28036436927E+03  0.28036436927E+03  0.00000000000E+00 0. -1.
         25    2    1    2    0    0 -0.33162569203E+02  0.11223520062E+03  0.28279231387E+03  0.33059483780E+03  0.12499983097E+03 0.  0.
          2    1    1    2  501    0 -0.18908466445E+02 -0.12839873335E+03 -0.23875731798E+03  0.27175139690E+03  0.00000000000E+00 0. -1.
          1    1    1    2  502    0  0.52071035647E+02  0.16163532730E+02  0.61361087430E+03  0.61602837402E+03  0.00000000000E+00 0. -1.
         22    1    3    3    0    0  0.37977407319E+02  0.86392874252E+02  0.17593439585E+03  0.19964699805E+03  0.00000000000E+00 0.  1.
         22    1    3    3    0    0 -0.71139976522E+02  0.25842326365E+02  0.10685791802E+03  0.13094783975E+03  0.00000000000E+00 0.  1.
</event>
<event>
 7    1  0.6443388E-006  0.8002747E+02  0.7818608E-02  0.1387544E+00
          2   -1    0    0  502    0  0.00000000000E+00  0.00000000000E+00  0.33306314283E+03  0.33306314283E+03  0.00000000000E+00 0. -1.
          1   -1    0    0  501    0 -0.00000000000E+00 -0.00000000000E+00 -0.15858109667E+04  0.15858109667E+04  0.00000000000E+00 0. -1.
         25    2    1    2    0    0 -0.53096325596E+02 -0.14177204229E+02 -0.41374471882E+03  0.43569924640E+03  0.12501571122E+03 0.  0.
          2    1    1    2  501    0  0.56761308912E+02  0.62884700133E+02 -0.11576805139E+04  0.11607758198E+04  0.00000000000E+00 0. -1.
          1    1    1    2  502    0 -0.36649833157E+01 -0.48707495904E+02  0.31867740879E+03  0.32239904332E+03  0.00000000000E+00 0. -1.
         22    1    3    3    0    0  0.31851772300E+02  0.22971915538E+02 -0.77170006755E+02  0.86587841205E+02  0.00000000000E+00 0.  1.
         22    1    3    3    0    0 -0.84948097896E+02 -0.37149119767E+02 -0.33657471207E+03  0.34911140520E+03  0.00000000000E+00 0.  1.
</event>
<event>
 7    1  0.1376393E-005  0.7271460E+02  0.7818608E-02  0.1351439E+00
          2   -1    0    0  502    0  0.00000000000E+00  0.00000000000E+00  0.93448732756E+03  0.93448732756E+03  0.00000000000E+00 0. -1.
          1   -1    0    0  501    0 -0.00000000000E+00 -0.00000000000E+00 -0.16796239787E+04  0.16796239787E+04  0.00000000000E+00 0. -1.
         25    2    1    2    0    0 -0.41940496060E+02  0.14948296066E+02 -0.26178397101E+03  0.29348900251E+03  0.12498996101E+03 0.  0.
          2    1    1    2  501    0 -0.30811105102E+01 -0.72438456740E+02 -0.13995965647E+04  0.14014732845E+04  0.00000000000E+00 0. -1.
          1    1    1    2  502    0  0.45021606570E+02  0.57490160674E+02  0.91624388455E+03  0.91914901926E+03  0.00000000000E+00 0. -1.
         22    1    3    3    0    0  0.98340734878E+01  0.51102386983E+02 -0.48802971124E+02  0.71343485668E+02  0.00000000000E+00 0. -1.
         22    1    3    3    0    0 -0.51774569548E+02 -0.36154090917E+02 -0.21298099988E+03  0.22214551684E+03  0.00000000000E+00 0. -1.
</event>
<event>
 7    1  0.6443388E-006  0.1055602E+03  0.7818608E-02  0.1338987E+00
          2   -1    0    0  502    0  0.00000000000E+00  0.00000000000E+00  0.25525931405E+04  0.25525931405E+04  0.00000000000E+00 0. -1.
          1   -1    0    0  501    0 -0.00000000000E+00 -0.00000000000E+00 -0.23532237105E+03  0.23532237105E+03  0.00000000000E+00 0. -1.
         25    2    1    2    0    0  0.14809268753E+02  0.14258681239E+03  0.38067298512E+03  0.42553712858E+03  0.12497844891E+03 0.  0.
          2    1    1    2  501    0  0.23158382018E+02 -0.10198988035E+03 -0.19966200570E+03  0.22539556977E+03  0.00000000000E+00 0. -1.
          1    1    1    2  502    0 -0.37967650771E+02 -0.40596932042E+02  0.21362597901E+04  0.21369828132E+04  0.00000000000E+00 0. -1.
         22    1    3    3    0    0  0.39440123066E+01  0.16408999218E+03  0.34963743130E+03  0.38624786619E+03  0.00000000000E+00 0. -1.
         22    1    3    3    0    0  0.10865256446E+02 -0.21503179789E+02  0.31035553816E+02  0.39289262392E+02  0.00000000000E+00 0. -1.
</event>
<event>
 7    1  0.6443388E-006  0.1259738E+03  0.7818608E-02  0.1250239E+00
          2   -1    0    0  502    0  0.00000000000E+00  0.00000000000E+00  0.76752962387E+03  0.76752962387E+03  0.00000000000E+00 0. -1.
          1   -1    0    0  501    0 -0.00000000000E+00 -0.00000000000E+00 -0.68815123908E+03  0.68815123908E+03  0.00000000000E+00 0. -1.
         25    2    1    2    0    0  0.14905653972E+03 -0.73102643875E+02  0.11579733326E+03  0.23789956624E+03  0.12500133061E+03 0.  0.
          2    1    1    2  501    0 -0.51239798422E+02  0.11496232808E+03 -0.61589203025E+03  0.62862138585E+03  0.00000000000E+00 0. -1.
          1    1    1    2  502    0 -0.97816741299E+02 -0.41859684207E+02  0.57947308179E+03  0.58915991085E+03  0.00000000000E+00 0. -1.
         22    1    3    3    0    0  0.95281266976E+02  0.18235266781E+02  0.80880384839E+02  0.12630392489E+03  0.00000000000E+00 0.  1.
         22    1    3    3    0    0  0.53775272745E+02 -0.91337910656E+02  0.34916948421E+02  0.11159564135E+03  0.00000000000E+00 0.  1.
</event>
<event>
 7    1  0.6443388E-006  0.7325194E+02  0.7818608E-02  0.1429540E+00
          2   -1    0    0  502    0  0.00000000000E+00  0.00000000000E+00  0.77126558609E+03  0.77126558609E+03  0.00000000000E+00 0. -1.
          1   -1    0    0  501    0 -0.00000000000E+00 -0.00000000000E+00 -0.25011224571E+04  0.25011224571E+04  0.00000000000E+00 0. -1.
         25    2    1    2    0    0 -0.82098580158E+02  0.10836599629E+02  0.20509686204E+03  0.25405479560E+03  0.12498602960E+03 0.  0.
          2    1    1    2  501    0  0.59883764384E+02 -0.42186932212E+02 -0.24754196591E+04  0.24765032386E+04  0.00000000000E+00 0. -1.
          1    1    1    2  502    0  0.22214815774E+02  0.31350332583E+02  0.54046592603E+03  0.54183000894E+03  0.00000000000E+00 0. -1.
         22    1    3    3    0    0 -0.82238009783E+02 -0.40793500312E+02  0.93186976399E+02  0.13080906884E+03  0.00000000000E+00 0.  1.
         22    1    3    3    0    0  0.13942962500E+00  0.51630099941E+02  0.11190988564E+03  0.12324572676E+03  0.00000000000E+00 0.  1.
</event>
<event>
 7    1  0.6443388E-006  0.4970176E+02  0.7818608E-02  0.1535037E+00
          2   -1    0    0  502    0  0.00000000000E+00  0.00000000000E+00  0.60198660735E+03  0.60198660735E+03  0.00000000000E+00 0. -1.
          1   -1    0    0  501    0 -0.00000000000E+00 -0.00000000000E+00 -0.35954562244E+04  0.35954562244E+04  0.00000000000E+00 0. -1.
         25    2    1    2    0    0 -0.99595326262E+01 -0.62579044363E+02 -0.19622065134E+04  0.19672048865E+04  0.12500133969E+03 0.  0.
          2    1    1    2  501    0 -0.17026485085E+02  0.20846688820E+02 -0.16296092194E+04  0.16298314923E+04  0.00000000000E+00 0. -1.
          1    1    1    2  502    0  0.26986017711E+02  0.41732355543E+02  0.59834611568E+03  0.60040645299E+03  0.00000000000E+00 0. -1.
         22    1    3    3    0    0 -0.20493422156E+02 -0.99355237795E+02 -0.13523091667E+04  0.13561089653E+04  0.00000000000E+00 0.  1.
         22    1    3    3    0    0  0.10533889530E+02  0.36776193432E+02 -0.60989734676E+03  0.61109592113E+03  0.00000000000E+00 0.  1.
</event>
<event>
 7    1  0.6443388E-006  0.1218609E+03  0.7818608E-02  0.1305553E+00
          2   -1    0    0  502    0  0.00000000000E+00  0.00000000000E+00  0.25646779538E+04  0.25646779538E+04  0.00000000000E+00 0. -1.
          1   -1    0    0  501    0 -0.00000000000E+00 -0.00000000000E+00 -0.13153546786E+04  0.13153546786E+04  0.00000000000E+00 0. -1.
         25    2    1    2    0    0  0.10200084284E+03  0.14794158623E+03  0.36950780425E+03  0.42947387655E+03  0.12498363239E+03 0.  0.
          2    1    1    2  501    0 -0.20431661553E+02 -0.61542222701E+02 -0.12829219926E+04  0.12845597444E+04  0.00000000000E+00 0. -1.
          1    1    1    2  502    0 -0.81569181285E+02 -0.86399363529E+02  0.21627374635E+04  0.21659990114E+04  0.00000000000E+00 0. -1.
         22    1    3    3    0    0  0.11033814731E+03  0.51157829108E+02  0.19820493935E+03  0.23254425001E+03  0.00000000000E+00 0.  1.
         22    1    3    3    0    0 -0.83373044673E+01  0.96783757122E+02  0.17130286490E+03  0.19692962655E+03  0.00000000000E+00 0.  1.
</event>
<event>
 7    1  0.6443388E-006  0.1718032E+03  0.7818608E-02  0.1298651E+00
          2   -1    0    0  502    0  0.00000000000E+00  0.00000000000E+00  0.39361932614E+03  0.39361932614E+03  0.00000000000E+00 0. -1.
          1   -1    0    0  501    0 -0.00000000000E+00 -0.00000000000E+00 -0.16171141821E+04  0.16171141821E+04  0.00000000000E+00 0. -1.
         25    2    1    2    0    0  0.10005707234E+03 -0.84994225747E+02  0.16729633816E+03  0.24667557900E+03  0.12500136150E+03 0.  0.
          2    1    1    2  501    0 -0.11041049193E+03  0.13289442351E+03 -0.15693827227E+04  0.15788646348E+04  0.00000000000E+00 0. -1.
          1    1    1    2  502    0  0.10353419593E+02 -0.47900197758E+02  0.17859152859E+03  0.18519329449E+03  0.00000000000E+00 0. -1.
         22    1    3    3    0    0  0.93486049643E+02 -0.11611417924E+03  0.13140826466E+03  0.19872160456E+03  0.00000000000E+00 0.  1.
         22    1    3    3    0    0  0.65710226952E+01  0.31119953494E+02  0.35888073502E+02  0.47953974438E+02  0.00000000000E+00 0.  1.
</event>
<event>
 7    1  0.6443388E-006  0.7159380E+02  0.7818608E-02  0.1489211E+00
          2   -1    0    0  502    0  0.00000000000E+00  0.00000000000E+00  0.21291033733E+03  0.21291033733E+03  0.00000000000E+00 0. -1.
          1   -1    0    0  501    0 -0.00000000000E+00 -0.00000000000E+00 -0.13235881870E+04  0.13235881870E+04  0.00000000000E+00 0. -1.
         25    2    1    2    0    0  0.30835057733E+02 -0.47493797971E+02  0.69711337502E+02  0.15391832203E+03  0.12499887059E+03 0.  0.
          2    1    1    2  501    0 -0.17959105110E+02  0.69470778333E+02 -0.12788584895E+04  0.12808699211E+04  0.00000000000E+00 0. -1.
          1    1    1    2  502    0 -0.12875952623E+02 -0.21976980362E+02  0.98469302301E+02  0.10171028128E+03  0.00000000000E+00 0. -1.
         22    1    3    3    0    0 -0.27666233987E+02 -0.35408685521E+01 -0.22758803645E+02  0.35998908267E+02  0.00000000000E+00 0. -1.
         22    1    3    3    0    0  0.58501291720E+02 -0.43952929419E+02  0.92470141146E+02  0.11791941376E+03  0.00000000000E+00 0. -1.
</event>
<event>
 7    1  0.6702363E-006  0.6166809E+02  0.7818608E-02  0.1471105E+00
          2   -1    0    0  502    0  0.00000000000E+00  0.00000000000E+00  0.17493195995E+04  0.17493195995E+04  0.00000000000E+00 0. -1.
          1   -1    0    0  501    0 -0.00000000000E+00 -0.00000000000E+00 -0.12589422708E+04  0.12589422708E+04  0.00000000000E+00 0. -1.
         25    2    1    2    0    0 -0.80440088397E+02 -0.17284960875E+02 -0.96896337259E+03  0.98045253966E+03  0.12501114912E+03 0.  0.
          2    1    1    2  501    0  0.47566096057E+02  0.24252296717E+02 -0.28156337846E+03  0.28658095449E+03  0.00000000000E+00 0. -1.
          1    1    1    2  502    0  0.32873992340E+02 -0.69673358413E+01  0.17409040797E+04  0.17412283761E+04  0.00000000000E+00 0. -1.
         22    1    3    3    0    0 -0.10859763854E+03 -0.63177559039E+01 -0.87533908948E+03  0.88207249288E+03  0.00000000000E+00 0. -1.
         22    1    3    3    0    0  0.28157550138E+02 -0.10967204972E+02 -0.93624283113E+02  0.98380046773E+02  0.00000000000E+00 0. -1.
</event>
<event>
 7    1  0.6443388E-006  0.1307816E+03  0.7818608E-02  0.1325284E+00
          2   -1    0    0  502    0  0.00000000000E+00  0.00000000000E+00  0.12231463023E+04  0.12231463023E+04  0.00000000000E+00 0. -1.
          1   -1    0    0  501    0 -0.00000000000E+00 -0.00000000000E+00 -0.46232311105E+03  0.46232311105E+03  0.00000000000E+00 0. -1.
         25    2    1    2    0    0 -0.95785545229E+02 -0.61273701881E+02 -0.25764578185E+03  0.30811495553E+03  0.12499655876E+03 0.  0.
          2    1    1    2  501    0  0.20666368911E+02 -0.46179443450E+02 -0.17220544577E+03  0.17948357962E+03  0.00000000000E+00 0. -1.
          1    1    1    2  502    0  0.75119176318E+02  0.10745314533E+03  0.11906744189E+04  0.11978708782E+04  0.00000000000E+00 0. -1.
         22    1    3    3    0    0 -0.26791089740E+02  0.30667356089E+02 -0.22858291259E+02  0.46698508523E+02  0.00000000000E+00 0.  1.
         22    1    3    3    0    0 -0.68994455488E+02 -0.91941057971E+02 -0.23478749059E+03  0.26141644701E+03  0.00000000000E+00 0.  1.
</event>
<event>
 7    1  0.6443388E-006  0.8069663E+02  0.7818608E-02  0.1402078E+00
          2   -1    0    0  502    0  0.00000000000E+00  0.00000000000E+00  0.23115259296E+04  0.23115259296E+04  0.00000000000E+00 0. -1.
          1   -1    0    0  501    0 -0.00000000000E+00 -0.00000000000E+00 -0.14057886628E+04  0.14057886628E+04  0.00000000000E+00 0. -1.
         25    2    1    2    0    0 -0.13497871182E+02 -0.10460571879E+03 -0.32380746679E+02  0.16674702648E+03  0.12502603391E+03 0.  0.
          2    1    1    2  501    0  0.39359912494E+02  0.70081868422E+02 -0.13047806795E+04  0.13072541041E+04  0.00000000000E+00 0. -1.
          1    1    1    2  502    0 -0.25862041312E+02  0.34523850366E+02  0.22428986930E+04  0.22433134619E+04  0.00000000000E+00 0. -1.
         22    1    3    3    0    0  0.79547392607E+01 -0.62214098745E+02 -0.78536469031E+02  0.10050795455E+03  0.00000000000E+00 0.  1.
         22    1    3    3    0    0 -0.21452610442E+02 -0.42391620042E+02  0.46155722352E+02  0.66239071932E+02  0.00000000000E+00 0.  1.
</event>
<event>
 7    1  0.6443388E-006  0.7139949E+02  0.7818608E-02  0.1467810E+00
          2   -1    0    0  502    0  0.00000000000E+00  0.00000000000E+00  0.21092001864E+02  0.21092001864E+02  0.00000000000E+00 0. -1.
          1   -1    0    0  501    0 -0.00000000000E+00 -0.00000000000E+00 -0.22331773400E+04  0.22331773400E+04  0.00000000000E+00 0. -1.
         25    2    1    2    0    0  0.22304284355E+02  0.50350242297E+02 -0.43901251539E+03  0.45977147873E+03  0.12500078394E+03 0.  0.
          2    1    1    2  501    0 -0.13750837069E+02  0.26345128226E+02 -0.16429045787E+04  0.16431733341E+04  0.00000000000E+00 0. -1.
          1    1    1    2  502    0 -0.85534472863E+01 -0.76695370524E+02 -0.13016824409E+03  0.15132452904E+03  0.00000000000E+00 0. -1.
         22    1    3    3    0    0  0.67275591829E+02  0.10749206059E+01 -0.26502723750E+03  0.27343481367E+03  0.00000000000E+00 0. -1.
         22    1    3    3    0    0 -0.44971307474E+02  0.49275321691E+02 -0.17398527790E+03  0.18633666507E+03  0.00000000000E+00 0. -1.
</event>
<event>
 7    1  0.6443388E-006  0.3409332E+03  0.7818608E-02  0.1086266E+00
          2   -1    0    0  502    0  0.00000000000E+00  0.00000000000E+00  0.16290034384E+03  0.16290034384E+03  0.00000000000E+00 0. -1.
          1   -1    0    0  501    0 -0.00000000000E+00 -0.00000000000E+00 -0.21130044702E+04  0.21130044702E+04  0.00000000000E+00 0. -1.
         25    2    1    2    0    0 -0.11459870511E+03 -0.25420308098E+02 -0.16687534394E+03  0.23927088230E+03  0.12499647765E+03 0.  0.
          2    1    1    2  501    0  0.25063249923E+03 -0.28719809463E+03 -0.16094358970E+04  0.16539598852E+04  0.00000000000E+00 0. -1.
          1    1    1    2  502    0 -0.13603379412E+03  0.31261840273E+03 -0.17379288536E+03  0.38267404651E+03  0.00000000000E+00 0. -1.
         22    1    3    3    0    0 -0.10603749833E+03 -0.69352900572E+02 -0.12450202414E+03  0.17763594762E+03  0.00000000000E+00 0. -1.
         22    1    3    3    0    0 -0.85612067821E+01  0.43932592474E+02 -0.42373319795E+02  0.61634934684E+02  0.00000000000E+00 0. -1.
</event>
<event>
 7    1  0.6443388E-006  0.4532423E+02  0.7818608E-02  0.1486629E+00
          2   -1    0    0  502    0  0.00000000000E+00  0.00000000000E+00  0.41159336466E+03  0.41159336466E+03  0.00000000000E+00 0. -1.
          1   -1    0    0  501    0 -0.00000000000E+00 -0.00000000000E+00 -0.19584908401E+03  0.19584908401E+03  0.00000000000E+00 0. -1.
         25    2    1    2    0    0 -0.60880468284E+02  0.29109350177E+02  0.13134270585E+03  0.19344911088E+03  0.12497146249E+03 0.  0.
          2    1    1    2  501    0  0.21329969743E+02 -0.39785811650E+02 -0.15996703587E+03  0.16621471350E+03  0.00000000000E+00 0. -1.
          1    1    1    2  502    0  0.39550498541E+02  0.10676461473E+02  0.24436861069E+03  0.24777862429E+03  0.00000000000E+00 0. -1.
         22    1    3    3    0    0  0.70462329427E+01 -0.29151867047E+02  0.90010390639E+02  0.94875450850E+02  0.00000000000E+00 0.  1.
         22    1    3    3    0    0 -0.67926701227E+02  0.58261217225E+02  0.41332315206E+02  0.98573660034E+02  0.00000000000E+00 0.  1.
</event>
<event>
 7    1  0.6443388E-006  0.4884377E+02  0.7818608E-02  0.1499087E+00
          2   -1    0    0  502    0  0.00000000000E+00  0.00000000000E+00  0.23362430190E+03  0.23362430190E+03  0.00000000000E+00 0. -1.
          1   -1    0    0  501    0 -0.00000000000E+00 -0.00000000000E+00 -0.15266695169E+04  0.15266695169E+04  0.00000000000E+00 0. -1.
         25    2    1    2    0    0 -0.14195734826E+02  0.84043813547E+01 -0.10567015678E+03  0.16449816812E+03  0.12498525020E+03 0.  0.
          2    1    1    2  501    0  0.48979215944E+02 -0.60042111839E+01 -0.13896559988E+04  0.13905318440E+04  0.00000000000E+00 0. -1.
          1    1    1    2  502    0 -0.34783481117E+02 -0.24001701708E+01  0.20228094063E+03  0.20526380664E+03  0.00000000000E+00 0. -1.
         22    1    3    3    0    0 -0.28379294621E+02  0.33291282553E+02 -0.12332206703E+03  0.13085116001E+03  0.00000000000E+00 0. -1.
         22    1    3    3    0    0  0.14183559795E+02 -0.24886901199E+02  0.17651910252E+02  0.33647008118E+02  0.00000000000E+00 0. -1.
</event>
<event>
 7    1  0.6443388E-006  0.7591418E+02  0.7818608E-02  0.1370646E+00
          2   -1    0    0  502    0  0.00000000000E+00  0.00000000000E+00  0.13659738252E+04  0.13659738252E+04  0.00000000000E+00 0. -1.
          1   -1    0    0  501    0 -0.00000000000E+00 -0.00000000000E+00 -0.41376667933E+04  0.41376667933E+04  0.00000000000E+00 0. -1.
         25    2    1    2    0    0 -0.47878847050E+02  0.11502029766E+03 -0.24331444850E+04  0.24395368288E+04  0.12500320518E+03 0.  0.
          2    1    1    2  501    0 -0.33444496910E+01 -0.59016567778E+02 -0.16997552648E+04  0.17007827906E+04  0.00000000000E+00 0. -1.
          1    1    1    2  502    0  0.51223296741E+02 -0.56003729885E+02  0.13612067818E+04  0.13633209991E+04  0.00000000000E+00 0. -1.
         22    1    3    3    0    0 -0.64289941889E+02  0.10680187394E+03 -0.12398215659E+04  0.12460727717E+04  0.00000000000E+00 0. -1.
         22    1    3    3    0    0  0.16411094838E+02  0.82184237203E+01 -0.11933229191E+04  0.11934640572E+04  0.00000000000E+00 0. -1.
</event>
<event>
 7    1  0.6443388E-006  0.6509544E+02  0.7818608E-02  0.1486761E+00
          2   -1    0    0  502    0  0.00000000000E+00  0.00000000000E+00  0.38969842746E+03  0.38969842746E+03  0.00000000000E+00 0. -1.
          1   -1    0    0  501    0 -0.00000000000E+00 -0.00000000000E+00 -0.14238814562E+03  0.14238814562E+03  0.00000000000E+00 0. -1.
         25    2    1    2    0    0  0.18835401597E+02  0.46418448730E+02 -0.26568366738E+02  0.13725423087E+03  0.12499360401E+03 0.  0.
          2    1    1    2  501    0 -0.46040018753E+02 -0.54903975882E+02 -0.38374297934E+02  0.81281711574E+02  0.00000000000E+00 0. -1.
          1    1    1    2  502    0  0.27204617156E+02  0.84855271516E+01  0.31225294651E+03  0.31355063064E+03  0.00000000000E+00 0. -1.
         22    1    3    3    0    0  0.21286331002E+02  0.55847409034E+02 -0.70402701997E+02  0.92350319067E+02  0.00000000000E+00 0.  1.
         22    1    3    3    0    0 -0.24509294043E+01 -0.94289603033E+01  0.43834335259E+02  0.44903911800E+02  0.00000000000E+00 0.  1.
</event>
<event>
 7    1  0.6443388E-006  0.4702149E+02  0.7818608E-02  0.1462689E+00
          2   -1    0    0  502    0  0.00000000000E+00  0.00000000000E+00  0.18733524592E+04  0.18733524592E+04  0.00000000000E+00 0. -1.
          1   -1    0    0  501    0 -0.00000000000E+00 -0.00000000000E+00 -0.49499814961E+03  0.49499814961E+03  0.00000000000E+00 0. -1.
         25    2    1    2    0    0 -0.13083887464E+02  0.12460417310E+00  0.10228820614E+04  0.10305748548E+04  0.12500246517E+03 0.  0.
          2    1    1    2  501    0 -0.28783693392E+02  0.36929797101E+02 -0.48910947011E+03  0.49134548402E+03  0.00000000000E+00 0. -1.
          1    1    1    2  502    0  0.41867580856E+02 -0.37054401275E+02  0.84458171834E+03  0.84643026998E+03  0.00000000000E+00 0. -1.
         22    1    3    3    0    0  0.22778926132E+02  0.54932689776E+02  0.54199785931E+03  0.54525054735E+03  0.00000000000E+00 0. -1.
         22    1    3    3    0    0 -0.35862813596E+02 -0.54808085603E+02  0.48088420205E+03  0.48532430748E+03  0.00000000000E+00 0. -1.
</event>
<event>
 7    1  0.6443388E-006  0.6295391E+02  0.7818608E-02  0.1444732E+00
          2   -1    0    0  502    0  0.00000000000E+00  0.00000000000E+00  0.18637222577E+03  0.18637222577E+03  0.00000000000E+00 0. -1.
          1   -1    0    0  501    0 -0.00000000000E+00 -0.00000000000E+00 -0.15992731091E+03  0.15992731091E+03  0.00000000000E+00 0. -1.
         25    2    1    2    0    0  0.20453056523E+02 -0.71970376350E+02 -0.19746627384E+02  0.14700950587E+03  0.12499521163E+03 0.  0.
          2    1    1    2  501    0  0.26277010366E+02  0.30014406250E+02 -0.62274001075E+02  0.73955372125E+02  0.00000000000E+00 0. -1.
          1    1    1    2  502    0 -0.46730066889E+02  0.41955970100E+02  0.10846554332E+03  0.12533465868E+03  0.00000000000E+00 0. -1.
         22    1    3    3    0    0  0.63840603162E+02 -0.18417763508E+02  0.17439733839E+02  0.68694839261E+02  0.00000000000E+00 0.  1.
         22    1    3    3    0    0 -0.43387546639E+02 -0.53552612842E+02 -0.37186361223E+02  0.78314666612E+02  0.00000000000E+00 0.  1.
</event>
<event>
 7    1  0.6443388E-006  0.2256633E+03  0.7818608E-02  0.1280082E+00
          2   -1    0    0  502    0  0.00000000000E+00  0.00000000000E+00  0.11098006965E+04  0.11098006965E+04  0.00000000000E+00 0. -1.
          1   -1    0    0  501    0 -0.00000000000E+00 -0.00000000000E+00 -0.12742381782E+04  0.12742381782E+04  0.00000000000E+00 0. -1.
         25    2    1    2    0    0 -0.74560227754E+02 -0.20828225116E+03 -0.10444342895E+03  0.27472307263E+03  0.12499445219E+03 0.  0.
          2    1    1    2  501    0 -0.42003538803E+02  0.14402404534E+02 -0.10717033623E+04  0.10726228709E+04  0.00000000000E+00 0. -1.
          1    1    1    2  502    0  0.11656376656E+03  0.19387984662E+03  0.10117093095E+04  0.10366929312E+04  0.00000000000E+00 0. -1.
         22    1    3    3    0    0  0.27538602971E+02 -0.10060769406E+03 -0.57404309117E+02  0.11906106611E+03  0.00000000000E+00 0. -1.
         22    1    3    3    0    0 -0.10209883072E+03 -0.10767455709E+03 -0.47039119831E+02  0.15566200652E+03  0.00000000000E+00 0. -1.
</event>
<event>
 7    1  0.6443388E-006  0.5437951E+02  0.7818608E-02  0.1438589E+00
          2   -1    0    0  502    0  0.00000000000E+00  0.00000000000E+00  0.40820064877E+03  0.40820064877E+03  0.00000000000E+00 0. -1.
          1   -1    0    0  501    0 -0.00000000000E+00 -0.00000000000E+00 -0.23219402501E+03  0.23219402501E+03  0.00000000000E+00 0. -1.
         25    2    1    2    0    0  0.90706322696E+02 -0.40701114340E+02  0.87397301880E+02  0.18206485416E+03  0.12500042023E+03 0.  0.
          2    1    1    2  501    0 -0.40811775616E+02  0.25917607406E+02 -0.17915093168E+03  0.18555963926E+03  0.00000000000E+00 0. -1.
          1    1    1    2  502    0 -0.49894547080E+02  0.14783506934E+02  0.26776025356E+03  0.27277018036E+03  0.00000000000E+00 0. -1.
         22    1    3    3    0    0  0.28943396531E+02  0.18000176407E+02 -0.24094486217E+02  0.41740517720E+02  0.00000000000E+00 0.  1.
         22    1    3    3    0    0  0.61762926164E+02 -0.58701290747E+02  0.11149178810E+03  0.14032433644E+03  0.00000000000E+00 0.  1.
</event>
<event>
 7    1  0.6443388E-006  0.4806149E+02  0.7818608E-02  0.1532853E+00
          2   -1    0    0  502    0  0.00000000000E+00  0.00000000000E+00  0.86855639012E+03  0.86855639012E+03  0.00000000000E+00 0. -1.
          1   -1    0    0  501    0 -0.00000000000E+00 -0.00000000000E+00 -0.56156069857E+03  0.56156069857E+03  0.00000000000E+00 0. -1.
         25    2    1    2    0    0  0.35934722919E+02 -0.56415540355E+02  0.74867087930E+03  0.76197584057E+03  0.12500031439E+03 0.  0.
          2    1    1    2  501    0 -0.14251296347E+02  0.24376396108E+02 -0.55123185308E+03  0.55195458507E+03  0.00000000000E+00 0. -1.
          1    1    1    2  502    0 -0.21683426573E+02  0.32039144247E+02  0.10955666533E+03  0.11618666305E+03  0.00000000000E+00 0. -1.
         22    1    3    3    0    0  0.26702647701E+02 -0.15512219155E+02  0.33444698181E+02  0.45521513307E+02  0.00000000000E+00 0.  1.
         22    1    3    3    0    0  0.92320752180E+01 -0.40903321201E+02  0.71522618112E+03  0.71645432726E+03  0.00000000000E+00 0.  1.
</event>
<event>
 7    1  0.6443388E-006  0.1468988E+03  0.7818608E-02  0.1289931E+00
          2   -1    0    0  502    0  0.00000000000E+00  0.00000000000E+00  0.36371029096E+03  0.36371029096E+03  0.00000000000E+00 0. -1.
          1   -1    0    0  501    0 -0.00000000000E+00 -0.00000000000E+00 -0.26611798529E+04  0.26611798529E+04  0.00000000000E+00 0. -1.
         25    2    1    2    0    0  0.95857959460E+02  0.10111361903E+03 -0.30671451616E+03  0.35932259616E+03  0.12500488529E+03 0.  0.
          2    1    1    2  501    0 -0.48444326937E+02  0.38944109126E+02 -0.23115232181E+04  0.23123587707E+04  0.00000000000E+00 0. -1.
          1    1    1    2  502    0 -0.47413632523E+02 -0.14005772816E+03  0.32076817234E+03  0.35320877701E+03  0.00000000000E+00 0. -1.
         22    1    3    3    0    0  0.97221433848E+02  0.12543015832E+02 -0.14697531752E+03  0.17666657411E+03  0.00000000000E+00 0. -1.
         22    1    3    3    0    0 -0.13634743875E+01  0.88570603202E+02 -0.15973919863E+03  0.18265602206E+03  0.00000000000E+00 0. -1.
</event>
<event>
 7    1  0.6443388E-006  0.1038884E+03  0.7818608E-02  0.1440160E+00
          2   -1    0    0  502    0  0.00000000000E+00  0.00000000000E+00  0.10609469372E+04  0.10609469372E+04  0.00000000000E+00 0. -1.
          1   -1    0    0  501    0 -0.00000000000E+00 -0.00000000000E+00 -0.18604596230E+03  0.18604596230E+03  0.00000000000E+00 0. -1.
         25    2    1    2    0    0  0.10326041928E+03  0.54520068464E+01  0.40562643113E+03  0.43686377739E+03  0.12499887916E+03 0.  0.
          2    1    1    2  501    0 -0.30676931495E+01  0.24821655480E+02 -0.16519839444E+03  0.16708092305E+03  0.00000000000E+00 0. -1.
          1    1    1    2  502    0 -0.10019272613E+03 -0.30273662327E+02  0.63447293823E+03  0.64304819908E+03  0.00000000000E+00 0. -1.
         22    1    3    3    0    0  0.10012555957E+03  0.30722651457E+02  0.39604060348E+03  0.40965493845E+03  0.00000000000E+00 0.  1.
         22    1    3    3    0    0  0.31348597078E+01 -0.25270644611E+02  0.95858276524E+01  0.27208838935E+02  0.00000000000E+00 0.  1.
</event>
<event>
 7    1  0.6443388E-006  0.2423728E+03  0.7818608E-02  0.1234117E+00
          2   -1    0    0  502    0  0.00000000000E+00  0.00000000000E+00  0.11310488248E+04  0.11310488248E+04  0.00000000000E+00 0. -1.
          1   -1    0    0  501    0 -0.00000000000E+00 -0.00000000000E+00 -0.87216421419E+03  0.87216421419E+03  0.00000000000E+00 0. -1.
         25    2    1    2    0    0  0.10947635081E+03 -0.22831286703E+03  0.20777967239E+03  0.35058398664E+03  0.12499961117E+03 0.  0.
          2    1    1    2  501    0 -0.64492520749E+02 -0.88650802771E+01 -0.78228016657E+03  0.78498416155E+03  0.00000000000E+00 0. -1.
          1    1    1    2  502    0 -0.44983830057E+02  0.23717794731E+03  0.83338510482E+03  0.86764489083E+03  0.00000000000E+00 0. -1.
         22    1    3    3    0    0  0.63607493335E+02 -0.19667755078E+03  0.10082704730E+03  0.22998709889E+03  0.00000000000E+00 0. -1.
         22    1    3    3    0    0  0.45868857471E+02 -0.31635316244E+02  0.10695262509E+03  0.12059688774E+03  0.00000000000E+00 0. -1.
</event>
<event>
 7    1  0.6443388E-006  0.1543163E+03  0.7818608E-02  0.1348763E+00
          2   -1    0    0  502    0  0.00000000000E+00  0.00000000000E+00  0.47367997452E+03  0.47367997452E+03  0.00000000000E+00 0. -1.
          1   -1    0    0  501    0 -0.00000000000E+00 -0.00000000000E+00 -0.99888423412E+03  0.99888423412E+03  0.00000000000E+00 0. -1.
         25    2    1    2    0    0  0.10269930371E+03  0.10038962588E+03 -0.25299556130E+03  0.31662692326E+03  0.12498252088E+03 0.  0.
          2    1    1    2  501    0 -0.18438881881E+02  0.29693745059E+02 -0.70003253825E+03  0.70090460511E+03  0.00000000000E+00 0. -1.
          1    1    1    2  502    0 -0.84260421833E+02 -0.13008337094E+03  0.42782383995E+03  0.45503268027E+03  0.00000000000E+00 0. -1.
         22    1    3    3    0    0  0.76764946471E+02  0.29648672042E+02 -0.41606617789E+02  0.92211774760E+02  0.00000000000E+00 0.  1.
         22    1    3    3    0    0  0.25934357242E+02  0.70740953842E+02 -0.21138894351E+03  0.22441514850E+03  0.00000000000E+00 0.  1.
</event>
<event>
 7    1  0.6443388E-006  0.7617105E+02  0.7818608E-02  0.1363826E+00
          2   -1    0    0  502    0  0.00000000000E+00  0.00000000000E+00  0.29734180675E+04  0.29734180675E+04  0.00000000000E+00 0. -1.
          1   -1    0    0  501    0 -0.00000000000E+00 -0.00000000000E+00 -0.77956399001E+02  0.77956399001E+02  0.00000000000E+00 0. -1.
         25    2    1    2    0    0 -0.30472809560E+02  0.89292056032E+02  0.35041216563E+03  0.38381740980E+03  0.12500181939E+03 0.  0.
          2    1    1    2  501    0 -0.35635250892E+02 -0.51160685206E+02 -0.44679206481E+02  0.76704095775E+02  0.00000000000E+00 0. -1.
          1    1    1    2  502    0  0.66108060452E+02 -0.38131370826E+02  0.25897287094E+04  0.25908529609E+04  0.00000000000E+00 0. -1.
         22    1    3    3    0    0 -0.12973514345E+02  0.12039148170E+02 -0.60162372661E+01  0.18693535620E+02  0.00000000000E+00 0.  1.
         22    1    3    3    0    0 -0.17499295215E+02  0.77252907862E+02  0.35642840289E+03  0.36512387418E+03  0.00000000000E+00 0.  1.
</event>
<event>
 7    1  0.6443388E-006  0.1586186E+03  0.7818608E-02  0.1230685E+00
          2   -1    0    0  502    0  0.00000000000E+00  0.00000000000E+00  0.11182510433E+04  0.11182510433E+04  0.00000000000E+00 0. -1.
          1   -1    0    0  501    0 -0.00000000000E+00 -0.00000000000E+00 -0.50159537079E+03  0.50159537079E+03  0.00000000000E+00 0. -1.
         25    2    1    2    0    0 -0.88944810561E+02  0.16195752378E+03  0.21374754063E+03  0.30895745278E+03  0.12500111067E+03 0.  0.
          2    1    1    2  501    0 -0.51996079685E+02 -0.88965108400E+02 -0.44064509124E+03  0.45253340125E+03  0.00000000000E+00 0. -1.
          1    1    1    2  502    0  0.14094089025E+03 -0.72992415381E+02  0.84355322308E+03  0.85835556002E+03  0.00000000000E+00 0. -1.
         22    1    3    3    0    0  0.21309002222E+01 -0.32895949615E+01  0.74134538473E+02  0.74238076250E+02  0.00000000000E+00 0.  1.
         22    1    3    3    0    0 -0.91075710783E+02  0.16524711874E+03  0.13961300216E+03  0.23471937653E+03  0.00000000000E+00 0.  1.
</event>
<event>
 7    1  0.6443388E-006  0.3000706E+02  0.7818608E-02  0.1605128E+00
          2   -1    0    0  502    0  0.00000000000E+00  0.00000000000E+00  0.88436788705E+03  0.88436788705E+03  0.00000000000E+00 0. -1.
          1   -1    0    0  501    0 -0.00000000000E+00 -0.00000000000E+00 -0.12627663378E+04  0.12627663378E+04  0.00000000000E+00 0. -1.
         25    2    1    2    0    0 -0.36803427374E+01 -0.19656531010E+02 -0.87552361603E+03  0.88462801906E+03  0.12500082297E+03 0.  0.
          2    1    1    2  501    0  0.30867550541E+02  0.69569569137E+01 -0.38177997964E+03  0.38308896850E+03  0.00000000000E+00 0. -1.
          1    1    1    2  502    0 -0.27187207804E+02  0.12699574096E+02  0.87890514494E+03  0.87941723729E+03  0.00000000000E+00 0. -1.
         22    1    3    3    0    0  0.28611072887E+02  0.42375946570E+02 -0.24775064992E+03  0.25297173533E+03  0.00000000000E+00 0. -1.
         22    1    3    3    0    0 -0.32291415624E+02 -0.62032477580E+02 -0.62777296611E+03  0.63165628373E+03  0.00000000000E+00 0. -1.
</event>
<event>
 7    1  0.6443388E-006  0.8016846E+02  0.7818608E-02  0.1421613E+00
          2   -1    0    0  502    0  0.00000000000E+00  0.00000000000E+00  0.75012375501E+03  0.75012375501E+03  0.00000000000E+00 0. -1.
          1   -1    0    0  501    0 -0.00000000000E+00 -0.00000000000E+00 -0.56003200881E+03  0.56003200881E+03  0.00000000000E+00 0. -1.
         25    2    1    2    0    0  0.11201997716E+03 -0.16674249638E+02  0.21145619933E+03  0.27049285063E+03  0.12500460843E+03 0.  0.
          2    1    1    2  501    0 -0.79751126511E+02 -0.20276229970E+01 -0.52682357359E+03  0.53282964550E+03  0.00000000000E+00 0. -1.
          1    1    1    2  502    0 -0.32268850648E+02  0.18701872635E+02  0.50545912047E+03  0.50683326768E+03  0.00000000000E+00 0. -1.
         22    1    3    3    0    0  0.12176486608E+03  0.26233670574E+02  0.15170874161E+03  0.19629169714E+03  0.00000000000E+00 0.  1.
         22    1    3    3    0    0 -0.97448889231E+01 -0.42907920212E+02  0.59747457713E+02  0.74201153497E+02  0.00000000000E+00 0.  1.
</event>
<event>
 7    1  0.6443388E-006  0.1721563E+03  0.7818608E-02  0.1239344E+00
          2   -1    0    0  502    0  0.00000000000E+00  0.00000000000E+00  0.20504142574E+04  0.20504142574E+04  0.00000000000E+00 0. -1.
          1   -1    0    0  501    0 -0.00000000000E+00 -0.00000000000E+00 -0.34327491470E+03  0.34327491470E+03  0.00000000000E+00 0. -1.
         25    2    1    2    0    0 -0.21290285398E+03 -0.21881164548E+02 -0.51259138696E+02  0.25309655106E+03  0.12499581699E+03 0.  0.
          2    1    1    2  501    0  0.15550499919E+03 -0.43349250008E+02 -0.15584099966E+03  0.22438221726E+03  0.00000000000E+00 0. -1.
          1    1    1    2  502    0  0.57397854794E+02  0.65230414556E+02  0.19142394811E+04  0.19162104038E+04  0.00000000000E+00 0. -1.
         22    1    3    3    0    0 -0.19556340103E+03 -0.92988889037E+01 -0.84749522153E+02  0.21334009155E+03  0.00000000000E+00 0.  1.
         22    1    3    3    0    0 -0.17339452953E+02 -0.12582275644E+02  0.33490383458E+02  0.39756459516E+02  0.00000000000E+00 0.  1.
</event>
<event>
 7    1  0.6443388E-006  0.5707771E+02  0.7818608E-02  0.1411366E+00
          2   -1    0    0  502    0  0.00000000000E+00  0.00000000000E+00  0.10478346435E+03  0.10478346435E+03  0.00000000000E+00 0. -1.
          1   -1    0    0  501    0 -0.00000000000E+00 -0.00000000000E+00 -0.22976178572E+03  0.22976178572E+03  0.00000000000E+00 0. -1.
         25    2    1    2    0    0 -0.19606716557E+02  0.33589974087E+02 -0.70025717863E+02  0.14846969240E+03  0.12500775459E+03 0.  0.
          2    1    1    2  501    0 -0.43321132052E+02 -0.36585727902E+02 -0.95564576654E+02  0.11112076439E+03  0.00000000000E+00 0. -1.
          1    1    1    2  502    0  0.62927848609E+02  0.29957538153E+01  0.40611973148E+02  0.74954793272E+02  0.00000000000E+00 0. -1.
         22    1    3    3    0    0  0.24497608732E+02 -0.39137040105E+01 -0.85102508513E+02  0.88644722730E+02  0.00000000000E+00 0. -1.
         22    1    3    3    0    0 -0.44104325289E+02  0.37503678097E+02  0.15076790651E+02  0.59824969673E+02  0.00000000000E+00 0. -1.
</event>
<event>
 7    1  0.6443388E-006  0.4872911E+02  0.7818608E-02  0.1527734E+00
          2   -1    0    0  502    0  0.00000000000E+00  0.00000000000E+00  0.76180946454E+03  0.76180946454E+03  0.00000000000E+00 0. -1.
          1   -1    0    0  501    0 -0.00000000000E+00 -0.00000000000E+00 -0.42291430341E+03  0.42291430341E+03  0.00000000000E+00 0. -1.
         25    2    1    2    0    0 -0.92434432559E+01  0.48016227097E+02  0.12568279508E+03  0.18388461248E+03  0.12500554556E+03 0.  0.
          2    1    1    2  501    0 -0.19382026843E+02 -0.44796633994E+02 -0.39195708986E+03  0.39498450815E+03  0.00000000000E+00 0. -1.
          1    1    1    2  502    0  0.28625470099E+02 -0.32195931032E+01  0.60516945591E+03  0.60585464732E+03  0.00000000000E+00 0. -1.
         22    1    3    3    0    0  0.15872848985E+02  0.71282774001E+02  0.24440135475E+02  0.77009748904E+02  0.00000000000E+00 0.  1.
         22    1    3    3    0    0 -0.25116292241E+02 -0.23266546904E+02  0.10124265961E+03  0.10687486358E+03  0.00000000000E+00 0.  1.
</event>
<event>
 7    1  0.6443388E-006  0.6571280E+02  0.7818608E-02  0.1383873E+00
          2   -1    0    0  502    0  0.00000000000E+00  0.00000000000E+00  0.34979523218E+02  0.34979523218E+02  0.00000000000E+00 0. -1.
          1   -1    0    0  501    0 -0.00000000000E+00 -0.00000000000E+00 -0.23852219238E+04  0.23852219238E+04  0.00000000000E+00 0. -1.
         25    2    1    2    0    0  0.32457148951E+02 -0.78852173931E+02 -0.27730488661E+03  0.31590265502E+03  0.12500142183E+03 0.  0.
          2    1    1    2  501    0 -0.58464157852E+02  0.18356165705E+02 -0.20169066050E+04  0.20178372729E+04  0.00000000000E+00 0. -1.
          1    1    1    2  502    0  0.26007008902E+02  0.60496008226E+02 -0.56030908920E+02  0.86461519058E+02  0.00000000000E+00 0. -1.
         22    1    3    3    0    0 -0.21011400739E+02 -0.31734176577E+02 -0.10128027802E+02  0.39384183008E+02  0.00000000000E+00 0. -1.
         22    1    3    3    0    0  0.53468549690E+02 -0.47117997354E+02 -0.26717685881E+03  0.27651847201E+03  0.00000000000E+00 0. -1.
</event>
<event>
 7    1  0.6443388E-006  0.7830142E+02  0.7818608E-02  0.1439692E+00
          2   -1    0    0  502    0  0.00000000000E+00  0.00000000000E+00  0.87261368969E+03  0.87261368969E+03  0.00000000000E+00 0. -1.
          1   -1    0    0  501    0 -0.00000000000E+00 -0.00000000000E+00 -0.66521134992E+02  0.66521134992E+02  0.00000000000E+00 0. -1.
         25    2    1    2    0    0 -0.38998625177E+02  0.36381725150E+02  0.31779071766E+03  0.34562998861E+03  0.12499850441E+03 0.  0.
          2    1    1    2  501    0 -0.11645044432E+02  0.31196999430E+02 -0.43644301247E+02  0.54897038760E+02  0.00000000000E+00 0. -1.
          1    1    1    2  502    0  0.50643669609E+02 -0.67578724580E+02  0.53194613829E+03  0.53860779731E+03  0.00000000000E+00 0. -1.
         22    1    3    3    0    0 -0.64780026095E+02 -0.11253716268E+02  0.25187137148E+03  0.26031190077E+03  0.00000000000E+00 0.  1.
         22    1    3    3    0    0  0.25781400917E+02  0.47635441418E+02  0.65919346184E+02  0.85318087846E+02  0.00000000000E+00 0.  1.
</event>
<event>
 7    1  0.6443388E-006  0.4059665E+02  0.7818608E-02  0.1508677E+00
          2   -1    0    0  502    0  0.00000000000E+00  0.00000000000E+00  0.11797888424E+04  0.11797888424E+04  0.00000000000E+00 0. -1.
          1   -1    0    0  501    0 -0.00000000000E+00 -0.00000000000E+00 -0.21453916709E+03  0.21453916709E+03  0.00000000000E+00 0. -1.
         25    2    1    2    0    0  0.74711732836E+01  0.52680394266E+02  0.11993739575E+03  0.18122140846E+03  0.12500071045E+03 0.  0.
          2    1    1    2  501    0 -0.33116287667E+02 -0.21138565566E+02 -0.18139196762E+03  0.18559788086E+03  0.00000000000E+00 0. -1.
          1    1    1    2  502    0  0.25645114383E+02 -0.31541828701E+02  0.10267042472E+04  0.10275087202E+04  0.00000000000E+00 0. -1.
         22    1    3    3    0    0  0.37998184298E+02 -0.15677519592E+02  0.92963404061E+02  0.10164566457E+03  0.00000000000E+00 0.  1.
         22    1    3    3    0    0 -0.30527011015E+02  0.68357913858E+02  0.26973991694E+02  0.79575743895E+02  0.00000000000E+00 0.  1.
</event>
<event>
 7    1  0.6443388E-006  0.1037747E+03  0.7818608E-02  0.1375735E+00
          2   -1    0    0  502    0  0.00000000000E+00  0.00000000000E+00  0.18604629145E+04  0.18604629145E+04  0.00000000000E+00 0. -1.
          1   -1    0    0  501    0 -0.00000000000E+00 -0.00000000000E+00 -0.30750692777E+03  0.30750692777E+03  0.00000000000E+00 0. -1.
         25    2    1    2    0    0  0.94967446123E+02  0.83812780388E+02  0.38753835697E+03  0.42644510131E+03  0.12500419325E+03 0.  0.
          2    1    1    2  501    0 -0.94305545739E+02 -0.42351856548E+02 -0.27847093948E+03  0.29704087234E+03  0.00000000000E+00 0. -1.
          1    1    1    2  502    0 -0.66190038425E+00 -0.41460923841E+02  0.14438885693E+04  0.14444838687E+04  0.00000000000E+00 0. -1.
         22    1    3    3    0    0  0.11203176139E+03  0.26686289179E+02  0.29124838510E+03  0.31319146766E+03  0.00000000000E+00 0.  1.
         22    1    3    3    0    0 -0.17064315262E+02  0.57126491210E+02  0.96289971866E+02  0.11325363365E+03  0.00000000000E+00 0.  1.
</event>
<event>
 7    1  0.6443388E-006  0.7457084E+02  0.7818608E-02  0.1374707E+00
          2   -1    0    0  502    0  0.00000000000E+00  0.00000000000E+00  0.21187341189E+04  0.21187341189E+04  0.00000000000E+00 0. -1.
          1   -1    0    0  501    0 -0.00000000000E+00 -0.00000000000E+00 -0.21151970918E+04  0.21151970918E+04  0.00000000000E+00 0. -1.
         25    2    1    2    0    0 -0.78266697510E+01  0.17053645220E+02 -0.93695299606E+01  0.12675129323E+03  0.12500407461E+03 0.  0.
          2    1    1    2  501    0 -0.46929032551E+02  0.34413314960E+02 -0.20460375197E+04  0.20468649546E+04  0.00000000000E+00 0. -1.
          1    1    1    2  502    0  0.54755702302E+02 -0.51466960180E+02  0.20589440768E+04  0.20603149628E+04  0.00000000000E+00 0. -1.
         22    1    3    3    0    0  0.38972223270E+02  0.47255282595E+02 -0.28900153592E+02  0.67728242243E+02  0.00000000000E+00 0.  1.
         22    1    3    3    0    0 -0.46798893021E+02 -0.30201637375E+02  0.19530623631E+02  0.59023050985E+02  0.00000000000E+00 0.  1.
</event>
<event>
 7    1  0.6443388E-006  0.8132552E+02  0.7818608E-02  0.1344106E+00
          2   -1    0    0  502    0  0.00000000000E+00  0.00000000000E+00  0.70506986299E+03  0.70506986299E+03  0.00000000000E+00 0. -1.
          1   -1    0    0  501    0 -0.00000000000E+00 -0.00000000000E+00 -0.10275480674E+03  0.10275480674E+03  0.00000000000E+00 0. -1.
         25    2    1    2    0    0 -0.19439990422E+01 -0.22767856084E+02  0.36772554776E+02  0.13229903815E+03  0.12501464037E+03 0.  0.
          2    1    1    2  501    0 -0.60257208727E+02  0.75159175145E+02 -0.76101594008E+01  0.96632020253E+02  0.00000000000E+00 0. -1.
          1    1    1    2  502    0  0.62201207769E+02 -0.52391319061E+02  0.57315266088E+03  0.57889361133E+03  0.00000000000E+00 0. -1.
         22    1    3    3    0    0  0.21087112231E+02  0.24861393436E+02  0.64719154828E+02  0.72466020917E+02  0.00000000000E+00 0.  1.
         22    1    3    3    0    0 -0.23031111273E+02 -0.47629249520E+02 -0.27946600052E+02  0.59833017230E+02  0.00000000000E+00 0.  1.
</event>
<event>
 7    1  0.6443388E-006  0.1127516E+03  0.7818608E-02  0.1345763E+00
          2   -1    0    0  502    0  0.00000000000E+00  0.00000000000E+00  0.15386839752E+04  0.15386839752E+04  0.00000000000E+00 0. -1.
          1   -1    0    0  501    0 -0.00000000000E+00 -0.00000000000E+00 -0.38267234119E+03  0.38267234119E+03  0.00000000000E+00 0. -1.
         25    2    1    2    0    0  0.15933965020E+03  0.19249520574E+02 -0.93534611019E+02  0.22390573940E+03  0.12500155403E+03 0.  0.
          2    1    1    2  501    0 -0.49072973711E+02  0.10126795588E+01 -0.21910037100E+03  0.22453096633E+03  0.00000000000E+00 0. -1.
          1    1    1    2  502    0 -0.11026667649E+03 -0.20262200133E+02  0.14686466160E+04  0.14729196106E+04  0.00000000000E+00 0. -1.
         22    1    3    3    0    0  0.37290307408E+02 -0.49023675783E+02 -0.14530266359E+02  0.63285199330E+02  0.00000000000E+00 0.  1.
         22    1    3    3    0    0  0.12204934279E+03  0.68273196357E+02 -0.79004344660E+02  0.16062054007E+03  0.00000000000E+00 0.  1.
</event>
<event>
 7    1  0.6443388E-006  0.2215720E+03  0.7818608E-02  0.1282684E+00
          2   -1    0    0  502    0  0.00000000000E+00  0.00000000000E+00  0.22563600287E+04  0.22563600287E+04  0.00000000000E+00 0. -1.
          1   -1    0    0  501    0 -0.00000000000E+00 -0.00000000000E+00 -0.91684697683E+02  0.91684697683E+02  0.00000000000E+00 0. -1.
         25    2    1    2    0    0  0.99249560664E+02 -0.24017204659E+03  0.10588620577E+04  0.10974271651E+04  0.12499775315E+03 0.  0.
          2    1    1    2  501    0 -0.84540014788E+02  0.19857569932E+03  0.89982943878E+02  0.23382953759E+03  0.00000000000E+00 0. -1.
          1    1    1    2  502    0 -0.14709545875E+02  0.41596347268E+02  0.10158303294E+04  0.10167880236E+04  0.00000000000E+00 0. -1.
         22    1    3    3    0    0  0.67336981228E+02 -0.18042503859E+03  0.52353603170E+03  0.55783280657E+03  0.00000000000E+00 0. -1.
         22    1    3    3    0    0  0.31912579435E+02 -0.59747007992E+02  0.53532602600E+03  0.53959435858E+03  0.00000000000E+00 0. -1.
</event>
<event>
 7    1  0.6443388E-006  0.5254616E+02  0.7818608E-02  0.1435057E+00
          2   -1    0    0  502    0  0.00000000000E+00  0.00000000000E+00  0.14431439143E+04  0.14431439143E+04  0.00000000000E+00 0. -1.
          1   -1    0    0  501    0 -0.00000000000E+00 -0.00000000000E+00 -0.58789383294E+02  0.58789383294E+02  0.00000000000E+00 0. -1.
         25    2    1    2    0    0 -0.18551579904E+02  0.24807299330E+02  0.15649764913E+03  0.20267274557E+03  0.12500065759E+03 0.  0.
          2    1    1    2  501    0 -0.28346316518E+02 -0.48507229200E+02 -0.12692920218E+02  0.57598395537E+02  0.00000000000E+00 0. -1.
          1    1    1    2  502    0  0.46897896423E+02  0.23699929870E+02  0.12405498021E+04  0.12416621565E+04  0.00000000000E+00 0. -1.
         22    1    3    3    0    0 -0.70158024214E+02  0.26406438851E+02  0.73893945384E+02  0.10526045572E+03  0.00000000000E+00 0. -1.
         22    1    3    3    0    0  0.51606444310E+02 -0.15991395207E+01  0.82603703743E+02  0.97412289849E+02  0.00000000000E+00 0. -1.
</event>
<event>
 7    1  0.6443388E-006  0.7870537E+02  0.7818608E-02  0.1335494E+00
          2   -1    0    0  502    0  0.00000000000E+00  0.00000000000E+00  0.27596809568E+03  0.27596809568E+03  0.00000000000E+00 0. -1.
          1   -1    0    0  501    0 -0.00000000000E+00 -0.00000000000E+00 -0.54613332763E+03  0.54613332763E+03  0.00000000000E+00 0. -1.
         25    2    1    2    0    0 -0.47332999114E+02  0.17379910123E+02 -0.10122615381E+03  0.16856544291E+03  0.12500040099E+03 0.  0.
          2    1    1    2  501    0 -0.92763652322E+01 -0.76289022320E+02 -0.40059252496E+03  0.40789758142E+03  0.00000000000E+00 0. -1.
          1    1    1    2  502    0  0.56609364346E+02  0.58909112197E+02  0.23165344682E+03  0.24563839898E+03  0.00000000000E+00 0. -1.
         22    1    3    3    0    0 -0.22743953426E+02  0.52077423734E+02 -0.11120492862E+03  0.12488347220E+03  0.00000000000E+00 0.  1.
         22    1    3    3    0    0 -0.24589045687E+02 -0.34697513611E+02  0.99787748057E+01  0.43681970711E+02  0.00000000000E+00 0.  1.
</event>
<event>
 7    1  0.6443388E-006  0.1320529E+03  0.7818608E-02  0.1372995E+00
          2   -1    0    0  502    0  0.00000000000E+00  0.00000000000E+00  0.13655490077E+04  0.13655490077E+04  0.00000000000E+00 0. -1.
          1   -1    0    0  501    0 -0.00000000000E+00 -0.00000000000E+00 -0.29235909166E+03  0.29235909166E+03  0.00000000000E+00 0. -1.
         25    2    1    2    0    0 -0.56506022759E+02 -0.81829593119E+02  0.96337596221E+03  0.97652819702E+03  0.12500024837E+03 0.  0.
          2    1    1    2  501    0  0.78761611936E+02  0.10663917200E+03 -0.26963842550E+03  0.30046661216E+03  0.00000000000E+00 0. -1.
          1    1    1    2  502    0 -0.22255589177E+02 -0.24809578886E+02  0.37945237930E+03  0.38091329014E+03  0.00000000000E+00 0. -1.
         22    1    3    3    0    0  0.34455028688E+02 -0.36788945612E+02  0.19212444504E+03  0.19862622662E+03  0.00000000000E+00 0. -1.
         22    1    3    3    0    0 -0.90961051447E+02 -0.45040647507E+02  0.77125151717E+03  0.77790197040E+03  0.00000000000E+00 0. -1.
</event>
<event>
 7    1  0.6443388E-006  0.6110429E+02  0.7818608E-02  0.1487588E+00
          2   -1    0    0  502    0  0.00000000000E+00  0.00000000000E+00  0.55833246676E+02  0.55833246676E+02  0.00000000000E+00 0. -1.
          1   -1    0    0  501    0 -0.00000000000E+00 -0.00000000000E+00 -0.15495872275E+04  0.15495872275E+04  0.00000000000E+00 0. -1.
         25    2    1    2    0    0 -0.34124990584E+02  0.44948155600E+02 -0.73633843465E+03  0.74900208605E+03  0.12499993154E+03 0.  0.
          2    1    1    2  501    0  0.25672204656E+02  0.15874126652E+02 -0.78747206062E+03  0.78805031327E+03  0.00000000000E+00 0. -1.
          1    1    1    2  502    0  0.84527859280E+01 -0.60822282252E+02  0.30056514401E+02  0.68368074905E+02  0.00000000000E+00 0. -1.
         22    1    3    3    0    0 -0.66044942211E+02  0.37214905393E+01 -0.58914308626E+03  0.59284513996E+03  0.00000000000E+00 0. -1.
         22    1    3    3    0    0  0.31919951627E+02  0.41226665060E+02 -0.14719534839E+03  0.15615694609E+03  0.00000000000E+00 0. -1.
</event>
<event>
 7    1  0.6443388E-006  0.5620179E+02  0.7818608E-02  0.1422658E+00
          2   -1    0    0  502    0  0.00000000000E+00  0.00000000000E+00  0.69903740669E+03  0.69903740669E+03  0.00000000000E+00 0. -1.
          1   -1    0    0  501    0 -0.00000000000E+00 -0.00000000000E+00 -0.38479182570E+03  0.38479182570E+03  0.00000000000E+00 0. -1.
         25    2    1    2    0    0 -0.42726115546E+02 -0.39665779634E+02 -0.23611927877E+03  0.27345239033E+03  0.12500000379E+03 0.  0.
          2    1    1    2  501    0 -0.51340925944E+01  0.61910580295E+02 -0.12149021747E+03  0.13645201281E+03  0.00000000000E+00 0. -1.
          1    1    1    2  502    0  0.47860208140E+02 -0.22244800662E+02  0.67185507723E+03  0.67392482925E+03  0.00000000000E+00 0. -1.
         22    1    3    3    0    0  0.27506727416E+01 -0.43728716430E+02 -0.12990801502E+02  0.45700413180E+02  0.00000000000E+00 0.  1.
         22    1    3    3    0    0 -0.45476788287E+02  0.40629367960E+01 -0.22312847727E+03  0.22775197715E+03  0.00000000000E+00 0.  1.
</event>
<event>
 7    1  0.6443388E-006  0.6631829E+02  0.7818608E-02  0.1400837E+00
          2   -1    0    0  502    0  0.00000000000E+00  0.00000000000E+00  0.42944021737E+03  0.42944021737E+03  0.00000000000E+00 0. -1.
          1   -1    0    0  501    0 -0.00000000000E+00 -0.00000000000E+00 -0.11006553967E+03  0.11006553967E+03  0.00000000000E+00 0. -1.
         25    2    1    2    0    0 -0.58178636289E+02 -0.82304041451E+01  0.14701924098E+02  0.13890772146E+03  0.12500686076E+03 0.  0.
          2    1    1    2  501    0  0.59721639764E+02 -0.44753297809E+02 -0.15369903052E+02  0.76195576254E+02  0.00000000000E+00 0. -1.
          1    1    1    2  502    0 -0.15430034749E+01  0.52983701954E+02  0.32004265666E+03  0.32440245932E+03  0.00000000000E+00 0. -1.
         22    1    3    3    0    0 -0.42648956417E+02 -0.58779596018E+02  0.37015922974E+02  0.81511673674E+02  0.00000000000E+00 0. -1.
         22    1    3    3    0    0 -0.15529679872E+02  0.50549191873E+02 -0.22313998876E+02  0.57396047789E+02  0.00000000000E+00 0. -1.
</event>
<event>
 7    1  0.6443388E-006  0.7521314E+02  0.7818608E-02  0.1352797E+00
          2   -1    0    0  502    0  0.00000000000E+00  0.00000000000E+00  0.45699515429E+03  0.45699515429E+03  0.00000000000E+00 0. -1.
          1   -1    0    0  501    0 -0.00000000000E+00 -0.00000000000E+00 -0.15515225551E+04  0.15515225551E+04  0.00000000000E+00 0. -1.
         25    2    1    2    0    0 -0.11918217308E+03 -0.29085363734E+02  0.20965764962E+02  0.17639652263E+03  0.12500328448E+03 0.  0.
          2    1    1    2  501    0  0.48445424029E+02  0.49539741398E+02 -0.14691989803E+04  0.14708320056E+04  0.00000000000E+00 0. -1.
          1    1    1    2  502    0  0.70736749047E+02 -0.20454377664E+02  0.35370581448E+03  0.36128918117E+03  0.00000000000E+00 0. -1.
         22    1    3    3    0    0 -0.15739106505E+02  0.45154505682E+02  0.59566207917E+01  0.48188486054E+02  0.00000000000E+00 0. -1.
         22    1    3    3    0    0 -0.10344306657E+03 -0.74239869416E+02  0.15009144170E+02  0.12820803657E+03  0.00000000000E+00 0. -1.
</event>
<event>
 7    1  0.6443388E-006  0.2389597E+03  0.7818608E-02  0.1347123E+00
          2   -1    0    0  502    0  0.00000000000E+00  0.00000000000E+00  0.30538719750E+04  0.30538719750E+04  0.00000000000E+00 0. -1.
          1   -1    0    0  501    0 -0.00000000000E+00 -0.00000000000E+00 -0.42504729967E+02  0.42504729967E+02  0.00000000000E+00 0. -1.
         25    2    1    2    0    0 -0.86127783334E+02 -0.23271154049E+03  0.74184441396E+03  0.79216989368E+03  0.12500939880E+03 0.  0.
          2    1    1    2  501    0  0.22431926178E+02  0.45619886252E+01  0.54456196841E+00  0.22897589393E+02  0.00000000000E+00 0. -1.
          1    1    1    2  502    0  0.63695857156E+02  0.22814955186E+03  0.22689782691E+04  0.22813092219E+04  0.00000000000E+00 0. -1.
         22    1    3    3    0    0 -0.69810783890E+02 -0.99809854397E+02  0.51087698462E+03  0.52519600721E+03  0.00000000000E+00 0. -1.
         22    1    3    3    0    0 -0.16316999444E+02 -0.13290168609E+03  0.23096742935E+03  0.26697388647E+03  0.00000000000E+00 0. -1.
</event>
<event>
 7    1  0.6443388E-006  0.8730135E+02  0.7818608E-02  0.1365579E+00
          2   -1    0    0  502    0  0.00000000000E+00  0.00000000000E+00  0.10375936263E+04  0.10375936263E+04  0.00000000000E+00 0. -1.
          1   -1    0    0  501    0 -0.00000000000E+00 -0.00000000000E+00 -0.24335034020E+04  0.24335034020E+04  0.00000000000E+00 0. -1.
         25    2    1    2    0    0 -0.10015162603E+03 -0.98774876082E+02  0.12375468663E+03  0.22523234420E+03  0.12501024787E+03 0.  0.
          2    1    1    2  501    0  0.61737450289E+02  0.61380742853E+02 -0.23811358704E+04  0.23827268290E+04  0.00000000000E+00 0. -1.
          1    1    1    2  502    0  0.38414175737E+02  0.37394133229E+02  0.86147140801E+03  0.86313785510E+03  0.00000000000E+00 0. -1.
         22    1    3    3    0    0 -0.98007509230E+02 -0.10540927893E+02  0.78710355127E+02  0.12614239189E+03  0.00000000000E+00 0. -1.
         22    1    3    3    0    0 -0.21441167958E+01 -0.88233948189E+02  0.45044331502E+02  0.99089952318E+02  0.00000000000E+00 0. -1.
</event>
<event>
 7    1  0.6443388E-006  0.8624967E+02  0.7818608E-02  0.1376880E+00
          2   -1    0    0  502    0  0.00000000000E+00  0.00000000000E+00  0.22102279955E+04  0.22102279955E+04  0.00000000000E+00 0. -1.
          1   -1    0    0  501    0 -0.00000000000E+00 -0.00000000000E+00 -0.14770728601E+02  0.14770728601E+02  0.00000000000E+00 0. -1.
         25    2    1    2    0    0  0.43221470076E+02 -0.59170635640E+02  0.75472732565E+03  0.76850997233E+03  0.12499992755E+03 0.  0.
          2    1    1    2  501    0 -0.37637823955E+02 -0.32035403756E+02  0.90057551073E+02  0.10272894135E+03  0.00000000000E+00 0. -1.
          1    1    1    2  502    0 -0.55836461214E+01  0.91206039396E+02  0.13506723901E+04  0.13537598104E+04  0.00000000000E+00 0. -1.
         22    1    3    3    0    0 -0.69062904973E+01  0.35946269793E+02  0.22821908763E+03  0.23113585425E+03  0.00000000000E+00 0. -1.
         22    1    3    3    0    0  0.50127760573E+02 -0.95116905433E+02  0.52650823801E+03  0.53737411807E+03  0.00000000000E+00 0. -1.
</event>
<event>
 7    1  0.9337617E-006  0.1756960E+03  0.7818608E-02  0.1306872E+00
          2   -1    0    0  502    0  0.00000000000E+00  0.00000000000E+00  0.17165033984E+04  0.17165033984E+04  0.00000000000E+00 0. -1.
          1   -1    0    0  501    0 -0.00000000000E+00 -0.00000000000E+00 -0.15947802137E+04  0.15947802137E+04  0.00000000000E+00 0. -1.
         25    2    1    2    0    0 -0.87612462712E+02 -0.10016660941E+03 -0.97593711130E+02  0.20702504540E+03  0.12500217481E+03 0.  0.
          2    1    1    2  501    0 -0.23081746926E+02 -0.37973101366E+02 -0.14374123239E+04  0.14380990620E+04  0.00000000000E+00 0. -1.
          1    1    1    2  502    0  0.11069420964E+03  0.13813971078E+03  0.16567292197E+04  0.16661595047E+04  0.00000000000E+00 0. -1.
         22    1    3    3    0    0  0.21091248507E+02  0.10432818723E+02  0.48622644890E+00  0.23535523922E+02  0.00000000000E+00 0.  1.
         22    1    3    3    0    0 -0.10870371122E+03 -0.11059942814E+03 -0.98079937579E+02  0.18348952148E+03  0.00000000000E+00 0.  1.
</event>
<event>
 7    1  0.6443388E-006  0.9371451E+02  0.7818608E-02  0.1385259E+00
          2   -1    0    0  502    0  0.00000000000E+00  0.00000000000E+00  0.70850163046E+03  0.70850163046E+03  0.00000000000E+00 0. -1.
          1   -1    0    0  501    0 -0.00000000000E+00 -0.00000000000E+00 -0.84368871650E+02  0.84368871650E+02  0.00000000000E+00 0. -1.
         25    2    1    2    0    0  0.11209553907E+03  0.36774701957E+00  0.95182406921E+02  0.19300286274E+03  0.12499947728E+03 0.  0.
          2    1    1    2  501    0 -0.82924261917E+02  0.30524245694E+02  0.21896006279E+02  0.91036244874E+02  0.00000000000E+00 0. -1.
          1    1    1    2  502    0 -0.29171277156E+02 -0.30891992714E+02  0.50705434561E+03  0.50883139450E+03  0.00000000000E+00 0. -1.
         22    1    3    3    0    0  0.12340762743E+03  0.17061231751E+02  0.34812203384E+02  0.12935384664E+03  0.00000000000E+00 0. -1.
         22    1    3    3    0    0 -0.11312088352E+02 -0.16693484732E+02  0.60370203537E+02  0.63649016100E+02  0.00000000000E+00 0. -1.
</event>
<event>
 7    1  0.6443388E-006  0.4256530E+02  0.7818608E-02  0.1521542E+00
          2   -1    0    0  502    0  0.00000000000E+00  0.00000000000E+00  0.83524857077E+03  0.83524857077E+03  0.00000000000E+00 0. -1.
          1   -1    0    0  501    0 -0.00000000000E+00 -0.00000000000E+00 -0.67149320797E+03  0.67149320797E+03  0.00000000000E+00 0. -1.
         25    2    1    2    0    0 -0.74160773368E+01 -0.21545985685E+02  0.44243164889E+02  0.13454426425E+03  0.12500189478E+03 0.  0.
          2    1    1    2  501    0 -0.33390058155E+02  0.81164412044E+01 -0.62525192071E+03  0.62619544629E+03  0.00000000000E+00 0. -1.
          1    1    1    2  502    0  0.40806135492E+02  0.13429544480E+02  0.74476411863E+03  0.74600206820E+03  0.00000000000E+00 0. -1.
         22    1    3    3    0    0 -0.56711603948E+02 -0.33901086168E+02 -0.16160547028E+01  0.66091612921E+02  0.00000000000E+00 0. -1.
         22    1    3    3    0    0  0.49295526611E+02  0.12355100484E+02  0.45859219592E+02  0.68452651324E+02  0.00000000000E+00 0. -1.
</event>
<event>
 7    1  0.6443388E-006  0.1015443E+03  0.7818608E-02  0.1416647E+00
          2   -1    0    0  502    0  0.00000000000E+00  0.00000000000E+00  0.15314878695E+04  0.15314878695E+04  0.00000000000E+00 0. -1.
          1   -1    0    0  501    0 -0.00000000000E+00 -0.00000000000E+00 -0.26743304834E+02  0.26743304834E+02  0.00000000000E+00 0. -1.
         25    2    1    2    0    0 -0.12558341404E+02  0.78781462835E+02  0.61961274126E+03  0.63711032667E+03  0.12500155354E+03 0.  0.
          2    1    1    2  501    0 -0.97450110421E+01  0.28999696262E+02  0.14675722738E+01  0.30628440899E+02  0.00000000000E+00 0. -1.
          1    1    1    2  502    0  0.22303352446E+02 -0.10778115910E+03  0.88366425110E+03  0.89049240674E+03  0.00000000000E+00 0. -1.
         22    1    3    3    0    0 -0.27995915758E+02 -0.25614836693E+02  0.10154464645E+03  0.10840298142E+03  0.00000000000E+00 0.  1.
         22    1    3    3    0    0  0.15437574354E+02  0.10439629953E+03  0.51806809481E+03  0.52870734525E+03  0.00000000000E+00 0.  1.
</event>
<event>
 7    1  0.6443388E-006  0.1712395E+03  0.7818608E-02  0.1272827E+00
          2   -1    0    0  502    0  0.00000000000E+00  0.00000000000E+00  0.18702015799E+04  0.18702015799E+04  0.00000000000E+00 0. -1.
          1   -1    0    0  501    0 -0.00000000000E+00 -0.00000000000E+00 -0.49433083640E+03  0.49433083640E+03  0.00000000000E+00 0. -1.
         25    2    1    2    0    0 -0.60181901934E+02  0.12117891992E+03  0.83234991823E+03  0.85249013738E+03  0.12500742372E+03 0.  0.
          2    1    1    2  501    0  0.12290052607E+03 -0.12036965917E+03 -0.46798095032E+03  0.49859759729E+03  0.00000000000E+00 0. -1.
          1    1    1    2  502    0 -0.62718624138E+02 -0.80926075073E+00  0.10115017756E+04  0.10134446817E+04  0.00000000000E+00 0. -1.
         22    1    3    3    0    0  0.24295062569E+01  0.10375964294E+03  0.32953948060E+03  0.34549708433E+03  0.00000000000E+00 0.  1.
         22    1    3    3    0    0 -0.62611408191E+02  0.17419276978E+02  0.50281043763E+03  0.50699305305E+03  0.00000000000E+00 0.  1.
</event>
<event>
 7    1  0.6443388E-006  0.6047581E+02  0.7818608E-02  0.1508913E+00
          2   -1    0    0  502    0  0.00000000000E+00  0.00000000000E+00  0.34486685524E+04  0.34486685524E+04  0.00000000000E+00 0. -1.
          1   -1    0    0  501    0 -0.00000000000E+00 -0.00000000000E+00 -0.65860950664E+03  0.65860950664E+03  0.00000000000E+00 0. -1.
         25    2    1    2    0    0 -0.44073897173E+02 -0.31198252253E+01  0.23439995989E+04  0.23477457949E+04  0.12499582561E+03 0.  0.
          2    1    1    2  501    0  0.53836950283E+02  0.27574085667E+02 -0.65518592468E+03  0.65797214479E+03  0.00000000000E+00 0. -1.
          1    1    1    2  502    0 -0.97630531099E+01 -0.24454260442E+02  0.11012453716E+04  0.11015601193E+04  0.00000000000E+00 0. -1.
         22    1    3    3    0    0 -0.53771889793E+02 -0.49065784457E+02  0.18723106217E+04  0.18737251483E+04  0.00000000000E+00 0.  1.
         22    1    3    3    0    0  0.96979926197E+01  0.45945959231E+02  0.47168897717E+03  0.47402064661E+03  0.00000000000E+00 0.  1.
</event>
<event>
 7    1  0.6443388E-006  0.9824862E+02  0.7818608E-02  0.1309616E+00
          2   -1    0    0  502    0  0.00000000000E+00  0.00000000000E+00  0.53324828975E+03  0.53324828975E+03  0.00000000000E+00 0. -1.
          1   -1    0    0  501    0 -0.00000000000E+00 -0.00000000000E+00 -0.41359991730E+03  0.41359991730E+03  0.00000000000E+00 0. -1.
         25    2    1    2    0    0  0.98053790864E+02  0.32817256691E+02 -0.16179410011E+03  0.22911403209E+03  0.12499756251E+03 0.  0.
          2    1    1    2  501    0 -0.94421820203E+02  0.44605106095E+02 -0.20238468020E+03  0.22773812680E+03  0.00000000000E+00 0. -1.
          1    1    1    2  502    0 -0.36319706609E+01 -0.77422362787E+02  0.48382715275E+03  0.48999604816E+03  0.00000000000E+00 0. -1.
         22    1    3    3    0    0 -0.12185008745E+01 -0.39285900868E+02 -0.44518245087E+02  0.59386369623E+02  0.00000000000E+00 0.  1.
         22    1    3    3    0    0  0.99272291738E+02  0.72103157559E+02 -0.11727585502E+03  0.16972766247E+03  0.00000000000E+00 0.  1.
</event>
<event>
 7    1  0.6443388E-006  0.5125741E+02  0.7818608E-02  0.1518423E+00
          2   -1    0    0  502    0  0.00000000000E+00  0.00000000000E+00  0.23584990183E+03  0.23584990183E+03  0.00000000000E+00 0. -1.
          1   -1    0    0  501    0 -0.00000000000E+00 -0.00000000000E+00 -0.48198583894E+03  0.48198583894E+03  0.00000000000E+00 0. -1.
         25    2    1    2    0    0 -0.68043720574E+02  0.20600263120E+02 -0.92244392611E+02  0.17083695932E+03  0.12498767920E+03 0.  0.
          2    1    1    2  501    0  0.40522881722E+02 -0.30168224181E+02 -0.34752886785E+03  0.35118163346E+03  0.00000000000E+00 0. -1.
          1    1    1    2  502    0  0.27520838852E+02  0.95679610604E+01  0.19363732335E+03  0.19581714798E+03  0.00000000000E+00 0. -1.
         22    1    3    3    0    0  0.14429435319E+01  0.62043480470E+02 -0.49170527892E+02  0.79178383211E+02  0.00000000000E+00 0. -1.
         22    1    3    3    0    0 -0.69486664106E+02 -0.41443217349E+02 -0.43073864719E+02  0.91658576111E+02  0.00000000000E+00 0. -1.
</event>
<event>
 7    1  0.6443388E-006  0.7305685E+02  0.7818608E-02  0.1472749E+00
          2   -1    0    0  502    0  0.00000000000E+00  0.00000000000E+00  0.13288938950E+04  0.13288938950E+04  0.00000000000E+00 0. -1.
          1   -1    0    0  501    0 -0.00000000000E+00 -0.00000000000E+00 -0.27301973396E+03  0.27301973396E+03  0.00000000000E+00 0. -1.
         25    2    1    2    0    0  0.89112513645E+02  0.35376710618E+02 -0.18019166415E+02  0.15856778610E+03  0.12500600261E+03 0.  0.
          2    1    1    2  501    0 -0.69195180675E+02 -0.15647654147E+02 -0.17775231514E+03  0.19138627863E+03  0.00000000000E+00 0. -1.
          1    1    1    2  502    0 -0.19917332970E+02 -0.19729056471E+02  0.12516456426E+04  0.12519595642E+04  0.00000000000E+00 0. -1.
         22    1    3    3    0    0  0.94006985292E+02 -0.82025088825E+01  0.24492838138E+02  0.97490992177E+02  0.00000000000E+00 0.  1.
         22    1    3    3    0    0 -0.48944716473E+01  0.43579219500E+02 -0.42512004553E+02  0.61076793924E+02  0.00000000000E+00 0.  1.
</event>
<event>
 7    1  0.6443388E-006  0.9962061E+02  0.7818608E-02  0.1310843E+00
          2   -1    0    0  502    0  0.00000000000E+00  0.00000000000E+00  0.14126804438E+04  0.14126804438E+04  0.00000000000E+00 0. -1.
          1   -1    0    0  501    0 -0.00000000000E+00 -0.00000000000E+00 -0.76551850682E+02  0.76551850682E+02  0.00000000000E+00 0. -1.
         25    2    1    2    0    0  0.97383754771E+02 -0.79869530420E+02  0.38198351339E+03  0.42118731365E+03  0.12499844438E+03 0.  0.
          2    1    1    2  501    0  0.15883971610E+01  0.75577519249E+02 -0.28225680806E+02  0.80691842701E+02  0.00000000000E+00 0. -1.
          1    1    1    2  502    0 -0.98972151932E+02  0.42920111709E+01  0.98237076049E+03  0.98735313809E+03  0.00000000000E+00 0. -1.
         22    1    3    3    0    0  0.22573702105E+02  0.25263071889E+02  0.26506042339E+02  0.43015870426E+02  0.00000000000E+00 0.  1.
         22    1    3    3    0    0  0.74810052665E+02 -0.10513260231E+03  0.35547747105E+03  0.37817144323E+03  0.00000000000E+00 0.  1.
</event>
<event>
 7    1  0.6443388E-006  0.9908336E+02  0.7818608E-02  0.1342009E+00
          2   -1    0    0  502    0  0.00000000000E+00  0.00000000000E+00  0.99630975298E+03  0.99630975298E+03  0.00000000000E+00 0. -1.
          1   -1    0    0  501    0 -0.00000000000E+00 -0.00000000000E+00 -0.80717241158E+03  0.80717241158E+03  0.00000000000E+00 0. -1.
         25    2    1    2    0    0  0.44517751482E+02  0.10084809846E+03  0.57092819713E+03  0.59475590964E+03  0.12499366631E+03 0.  0.
          2    1    1    2  501    0  0.13112364476E+02 -0.98238283695E+02 -0.79013531505E+03  0.79632688675E+03  0.00000000000E+00 0. -1.
          1    1    1    2  502    0 -0.57630115958E+02 -0.26098147663E+01  0.40834445932E+03  0.41239936815E+03  0.00000000000E+00 0. -1.
         22    1    3    3    0    0 -0.34537522275E+02  0.15233961973E+02  0.61428515144E+02  0.72099767788E+02  0.00000000000E+00 0. -1.
         22    1    3    3    0    0  0.79055273757E+02  0.85614136489E+02  0.50949968198E+03  0.52265614185E+03  0.00000000000E+00 0. -1.
</event>
<event>
 7    1  0.9021324E-006  0.4080503E+02  0.7818608E-02  0.1529991E+00
          2   -1    0    0  502    0  0.00000000000E+00  0.00000000000E+00  0.12076566409E+04  0.12076566409E+04  0.00000000000E+00 0. -1.
          1   -1    0    0  501    0 -0.00000000000E+00 -0.00000000000E+00 -0.13986567976E+04  0.13986567976E+04  0.00000000000E+00 0. -1.
         25    2    1    2    0    0  0.64719974704E+02  0.50761308199E+01 -0.63388598270E+03  0.64934665757E+03  0.12500080161E+03 0.  0.
          2    1    1    2  501    0 -0.26964614912E+02 -0.20530118141E+02 -0.75631414678E+03  0.75707309081E+03  0.00000000000E+00 0. -1.
          1    1    1    2  502    0 -0.37755359792E+02  0.15453987321E+02  0.11991999727E+04  0.11998936901E+04  0.00000000000E+00 0. -1.
         22    1    3    3    0    0 -0.30838007166E+02 -0.63388311651E+01 -0.63247319811E+02  0.70649748264E+02  0.00000000000E+00 0. -1.
         22    1    3    3    0    0  0.95557981869E+02  0.11414961985E+02 -0.57063866289E+03  0.57869690931E+03  0.00000000000E+00 0. -1.
</event>
<event>
 7    1  0.6443388E-006  0.9937933E+02  0.7818608E-02  0.1325776E+00
          2   -1    0    0  502    0  0.00000000000E+00  0.00000000000E+00  0.51135911226E+03  0.51135911226E+03  0.00000000000E+00 0. -1.
          1   -1    0    0  501    0 -0.00000000000E+00 -0.00000000000E+00 -0.11498395034E+04  0.11498395034E+04  0.00000000000E+00 0. -1.
         25    2    1    2    0    0  0.78715771537E+02 -0.29782930673E+02 -0.16792981337E+03  0.22562600118E+03  0.12499389802E+03 0.  0.
          2    1    1    2  501    0 -0.31122997183E+02 -0.58529462043E+02 -0.94667552641E+03  0.94899362020E+03  0.00000000000E+00 0. -1.
          1    1    1    2  502    0 -0.47592774354E+02  0.88312392716E+02  0.47612494868E+03  0.48657899424E+03  0.00000000000E+00 0. -1.
         22    1    3    3    0    0  0.49258788674E+02 -0.56584395929E+02 -0.16992700369E+03  0.18575093192E+03  0.00000000000E+00 0. -1.
         22    1    3    3    0    0  0.29456982863E+02  0.26801465256E+02  0.19971903281E+01  0.39875069260E+02  0.00000000000E+00 0. -1.
</event>
<event>
 7    1  0.6443388E-006  0.9921590E+02  0.7818608E-02  0.1475098E+00
          2   -1    0    0  502    0  0.00000000000E+00  0.00000000000E+00  0.10757756311E+04  0.10757756311E+04  0.00000000000E+00 0. -1.
          1   -1    0    0  501    0 -0.00000000000E+00 -0.00000000000E+00 -0.14690005698E+04  0.14690005698E+04  0.00000000000E+00 0. -1.
         25    2    1    2    0    0  0.85884633113E+02 -0.23372922399E+02  0.88034223015E+02  0.17691800628E+03  0.12500997087E+03 0.  0.
          2    1    1    2  501    0 -0.99052916645E+02  0.79227988278E+01 -0.14227162623E+04  0.14261822513E+04  0.00000000000E+00 0. -1.
          1    1    1    2  502    0  0.13168283533E+02  0.15450123572E+02  0.94145710056E+03  0.94167594331E+03  0.00000000000E+00 0. -1.
         22    1    3    3    0    0 -0.27832956506E+02  0.76379254264E+01 -0.14965388358E+01  0.28900709354E+02  0.00000000000E+00 0.  1.
         22    1    3    3    0    0  0.11371758962E+03 -0.31010847826E+02  0.89530761851E+02  0.14801729693E+03  0.00000000000E+00 0.  1.
</event>
<event>
 7    1  0.6443388E-006  0.4436277E+02  0.7818608E-02  0.1498363E+00
          2   -1    0    0  502    0  0.00000000000E+00  0.00000000000E+00  0.43434906430E+03  0.43434906430E+03  0.00000000000E+00 0. -1.
          1   -1    0    0  501    0 -0.00000000000E+00 -0.00000000000E+00 -0.13993704976E+03  0.13993704976E+03  0.00000000000E+00 0. -1.
         25    2    1    2    0    0 -0.38634735855E+00 -0.10335468344E+02 -0.39729518577E+02  0.13156868132E+03  0.12499964835E+03 0.  0.
          2    1    1    2  501    0  0.44706343976E+02  0.12283002768E+02 -0.42845599853E+02  0.63129032746E+02  0.00000000000E+00 0. -1.
          1    1    1    2  502    0 -0.44319996617E+02 -0.19475344239E+01  0.37698713297E+03  0.37958840000E+03  0.00000000000E+00 0. -1.
         22    1    3    3    0    0 -0.49479019703E+02 -0.34240549092E+02 -0.47175400049E+02  0.76459838887E+02  0.00000000000E+00 0. -1.
         22    1    3    3    0    0  0.49092672345E+02  0.23905080748E+02  0.74458814713E+01  0.55108842434E+02  0.00000000000E+00 0. -1.
</event>
<event>
 7    1  0.6443388E-006  0.1442378E+03  0.7818608E-02  0.1382455E+00
          2   -1    0    0  502    0  0.00000000000E+00  0.00000000000E+00  0.94203352355E+03  0.94203352355E+03  0.00000000000E+00 0. -1.
          1   -1    0    0  501    0 -0.00000000000E+00 -0.00000000000E+00 -0.29337986692E+03  0.29337986692E+03  0.00000000000E+00 0. -1.
         25    2    1    2    0    0  0.10636070321E+03  0.99397408786E+02  0.30714801028E+02  0.19432289700E+03  0.12500218092E+03 0.  0.
          2    1    1    2  501    0 -0.21996727160E+02  0.17710975622E+02 -0.20431896537E+03  0.20626142216E+03  0.00000000000E+00 0. -1.
          1    1    1    2  502    0 -0.84363976049E+02 -0.11710838441E+03  0.82225782097E+03  0.83482907131E+03  0.00000000000E+00 0. -1.
         22    1    3    3    0    0  0.26952071061E+02  0.10750784047E+03  0.70125086168E+01  0.11105640537E+03  0.00000000000E+00 0. -1.
         22    1    3    3    0    0  0.79408632148E+02 -0.81104316871E+01  0.23702292412E+02  0.83266491624E+02  0.00000000000E+00 0. -1.
</event>
<event>
 7    1  0.6443388E-006  0.6509202E+02  0.7818608E-02  0.1410651E+00
          2   -1    0    0  502    0  0.00000000000E+00  0.00000000000E+00  0.63483380024E+03  0.63483380024E+03  0.00000000000E+00 0. -1.
          1   -1    0    0  501    0 -0.00000000000E+00 -0.00000000000E+00 -0.25628780208E+03  0.25628780208E+03  0.00000000000E+00 0. -1.
         25    2    1    2    0    0 -0.40561518287E+02  0.55982025412E+02  0.51946915005E+02  0.15199453017E+03  0.12499852515E+03 0.  0.
          2    1    1    2  501    0 -0.85702008496E+01 -0.65257444142E+02 -0.19979850347E+03  0.21036022520E+03  0.00000000000E+00 0. -1.
          1    1    1    2  502    0  0.49131719137E+02  0.92754187302E+01  0.52639758663E+03  0.52876684694E+03  0.00000000000E+00 0. -1.
         22    1    3    3    0    0  0.40663590380E+02  0.22082909466E+02  0.43611193928E+02  0.63585522794E+02  0.00000000000E+00 0.  1.
         22    1    3    3    0    0 -0.81225108667E+02  0.33899115946E+02  0.83357210760E+01  0.88409007379E+02  0.00000000000E+00 0.  1.
</event>
<event>
 7    1  0.6443388E-006  0.1934825E+03  0.7818608E-02  0.1247199E+00
          2   -1    0    0  502    0  0.00000000000E+00  0.00000000000E+00  0.42208601590E+03  0.42208601590E+03  0.00000000000E+00 0. -1.
          1   -1    0    0  501    0 -0.00000000000E+00 -0.00000000000E+00 -0.86834662838E+03  0.86834662838E+03  0.00000000000E+00 0. -1.
         25    2    1    2    0    0  0.76667308360E+01 -0.20942003069E+03 -0.26077660026E+03  0.35713436918E+03  0.12499997756E+03 0.  0.
          2    1    1    2  501    0 -0.71429170532E+02  0.17725868721E+03 -0.53939721528E+03  0.57225180161E+03  0.00000000000E+00 0. -1.
          1    1    1    2  502    0  0.63762439696E+02  0.32161343484E+02  0.35391320306E+03  0.36104647350E+03  0.00000000000E+00 0. -1.
         22    1    3    3    0    0  0.39898113822E+01  0.49589739890E+01  0.99349398665E+01  0.11798857913E+02  0.00000000000E+00 0.  1.
         22    1    3    3    0    0  0.36769194538E+01 -0.21437900468E+03 -0.27071154013E+03  0.34533551126E+03  0.00000000000E+00 0.  1.
</event>
<event>
 7    1  0.6443388E-006  0.8489388E+02  0.7818608E-02  0.1444025E+00
          2   -1    0    0  502    0  0.00000000000E+00  0.00000000000E+00  0.43162211095E+03  0.43162211095E+03  0.00000000000E+00 0. -1.
          1   -1    0    0  501    0 -0.00000000000E+00 -0.00000000000E+00 -0.21277497592E+03  0.21277497592E+03  0.00000000000E+00 0. -1.
         25    2    1    2    0    0 -0.61834182756E+02  0.29842275477E+02 -0.84304039752E+02  0.16566907773E+03  0.12500017854E+03 0.  0.
          2    1    1    2  501    0  0.91519755368E+02 -0.28080499380E+02 -0.60902735260E+02  0.11346154957E+03  0.00000000000E+00 0. -1.
          1    1    1    2  502    0 -0.29685572612E+02 -0.17617760966E+01  0.36405391004E+03  0.36526645957E+03  0.00000000000E+00 0. -1.
         22    1    3    3    0    0 -0.71805415292E+02  0.28860652507E+02  0.33340263344E+01  0.77460123031E+02  0.00000000000E+00 0. -1.
         22    1    3    3    0    0  0.99712325357E+01  0.98162296963E+00 -0.87638066086E+02  0.88208954700E+02  0.00000000000E+00 0. -1.
</event>
<event>
 7    1  0.6443388E-006  0.1050293E+03  0.7818608E-02  0.1364986E+00
          2   -1    0    0  502    0  0.00000000000E+00  0.00000000000E+00  0.67864747758E+03  0.67864747758E+03  0.00000000000E+00 0. -1.
          1   -1    0    0  501    0 -0.00000000000E+00 -0.00000000000E+00 -0.88562672224E+02  0.88562672224E+02  0.00000000000E+00 0. -1.
         25    2    1    2    0    0 -0.76752922485E+02  0.79079011180E+02  0.86131612424E+02  0.18758415358E+03  0.12499863557E+03 0.  0.
          2    1    1    2  501    0  0.36616073745E+02 -0.98938387285E+02  0.38928133547E+02  0.11244972617E+03  0.00000000000E+00 0. -1.
          1    1    1    2  502    0  0.40136848740E+02  0.19859376105E+02  0.46502505938E+03  0.46717627005E+03  0.00000000000E+00 0. -1.
         22    1    3    3    0    0 -0.22748932991E+02  0.10437308226E+03  0.51030062191E+02  0.11838632311E+03  0.00000000000E+00 0. -1.
         22    1    3    3    0    0 -0.54003989494E+02 -0.25294071076E+02  0.35101550233E+02  0.69197830469E+02  0.00000000000E+00 0. -1.
</event>
<event>
 7    1  0.6443388E-006  0.7788308E+02  0.7818608E-02  0.1355799E+00
          2   -1    0    0  502    0  0.00000000000E+00  0.00000000000E+00  0.69278748967E+02  0.69278748967E+02  0.00000000000E+00 0. -1.
          1   -1    0    0  501    0 -0.00000000000E+00 -0.00000000000E+00 -0.21786177880E+04  0.21786177880E+04  0.00000000000E+00 0. -1.
         25    2    1    2    0    0  0.81194733621E+02 -0.10427410635E+03 -0.20897469492E+03  0.27705709749E+03  0.12499815249E+03 0.  0.
          2    1    1    2  501    0 -0.64892521642E+02  0.41109932424E+02 -0.19039575012E+04  0.19055065553E+04  0.00000000000E+00 0. -1.
          1    1    1    2  502    0 -0.16302211979E+02  0.63164173931E+02  0.35931570434E+01  0.65332884227E+02  0.00000000000E+00 0. -1.
         22    1    3    3    0    0  0.52288037967E+02 -0.13191090868E+03 -0.16137405077E+03  0.21488627459E+03  0.00000000000E+00 0.  1.
         22    1    3    3    0    0  0.28906695654E+02  0.27636802328E+02 -0.47600644147E+02  0.62170822897E+02  0.00000000000E+00 0.  1.
</event>
<event>
 7    1  0.6443388E-006  0.1744640E+03  0.7818608E-02  0.1282179E+00
          2   -1    0    0  502    0  0.00000000000E+00  0.00000000000E+00  0.37017545018E+04  0.37017545018E+04  0.00000000000E+00 0. -1.
          1   -1    0    0  501    0 -0.00000000000E+00 -0.00000000000E+00 -0.90820042381E+03  0.90820042381E+03  0.00000000000E+00 0. -1.
         25    2    1    2    0    0 -0.25492126164E+02 -0.21459789447E+03 -0.22800097782E+02  0.25069187362E+03  0.12499786492E+03 0.  0.
          2    1    1    2  501    0  0.38380752995E+02  0.41193665560E+02 -0.76831694127E+03  0.77037713006E+03  0.00000000000E+00 0. -1.
          1    1    1    2  502    0 -0.12888626831E+02  0.17340422891E+03  0.35846711171E+04  0.35888859220E+04  0.00000000000E+00 0. -1.
         22    1    3    3    0    0  0.35148629685E+02 -0.15094337861E+03 -0.42276657571E+02  0.16064446921E+03  0.00000000000E+00 0.  1.
         22    1    3    3    0    0 -0.60640755848E+02 -0.63654515866E+02  0.19476559790E+02  0.90047404411E+02  0.00000000000E+00 0.  1.
</event>
<event>
 7    1  0.6443388E-006  0.6489603E+02  0.7818608E-02  0.1414339E+00
          2   -1    0    0  502    0  0.00000000000E+00  0.00000000000E+00  0.16830830059E+03  0.16830830059E+03  0.00000000000E+00 0. -1.
          1   -1    0    0  501    0 -0.00000000000E+00 -0.00000000000E+00 -0.30367966244E+03  0.30367966244E+03  0.00000000000E+00 0. -1.
         25    2    1    2    0    0  0.52355460043E+02 -0.25735497511E+02 -0.76309730095E+02  0.15764055817E+03  0.12499584250E+03 0.  0.
          2    1    1    2  501    0 -0.64851540112E+02 -0.21368083730E+02 -0.17539600624E+03  0.18821816135E+03  0.00000000000E+00 0. -1.
          1    1    1    2  502    0  0.12496080069E+02  0.47103581241E+02  0.11633437449E+03  0.12612924352E+03  0.00000000000E+00 0. -1.
         22    1    3    3    0    0  0.14766606994E+02  0.38348884646E+02 -0.72392104102E+02  0.83242455346E+02  0.00000000000E+00 0.  1.
         22    1    3    3    0    0  0.37588853049E+02 -0.64084382156E+02 -0.39176259928E+01  0.74398102821E+02  0.00000000000E+00 0.  1.
</event>
<event>
 7    1  0.6443388E-006  0.5301549E+02  0.7818608E-02  0.1568853E+00
          2   -1    0    0  502    0  0.00000000000E+00  0.00000000000E+00  0.25525377164E+04  0.25525377164E+04  0.00000000000E+00 0. -1.
          1   -1    0    0  501    0 -0.00000000000E+00 -0.00000000000E+00 -0.68546020440E+02  0.68546020440E+02  0.00000000000E+00 0. -1.
         25    2    1    2    0    0 -0.58884146632E+02 -0.43167803512E+00  0.14468013437E+04  0.14533845826E+04  0.12500035154E+03 0.  0.
          2    1    1    2  501    0  0.49918962709E+02 -0.17801773819E+02 -0.54383262810E+02  0.75936455428E+02  0.00000000000E+00 0. -1.
          1    1    1    2  502    0  0.89651839225E+01  0.18233451855E+02  0.10915736151E+04  0.10917626988E+04  0.00000000000E+00 0. -1.
         22    1    3    3    0    0 -0.50109411006E+02 -0.47652252464E+02  0.11977457868E+04  0.11997402469E+04  0.00000000000E+00 0.  1.
         22    1    3    3    0    0 -0.87747356255E+01  0.47220574429E+02  0.24905555682E+03  0.25364433567E+03  0.00000000000E+00 0.  1.
</event>
<event>
 7    1  0.6443388E-006  0.1213354E+03  0.7818608E-02  0.1283131E+00
          2   -1    0    0  502    0  0.00000000000E+00  0.00000000000E+00  0.95169320503E+02  0.95169320503E+02  0.00000000000E+00 0. -1.
          1   -1    0    0  501    0 -0.00000000000E+00 -0.00000000000E+00 -0.69080230232E+03  0.69080230232E+03  0.00000000000E+00 0. -1.
         25    2    1    2    0    0  0.17464328472E+02 -0.54663450394E+02 -0.24455829022E+03  0.28058352582E+03  0.12500104827E+03 0.  0.
          2    1    1    2  501    0  0.36845438308E+02 -0.71266986004E+02 -0.35915622769E+03  0.36800783348E+03  0.00000000000E+00 0. -1.
          1    1    1    2  502    0 -0.54309766780E+02  0.12593043640E+03  0.80815360904E+01  0.13738026352E+03  0.00000000000E+00 0. -1.
         22    1    3    3    0    0 -0.12347278677E+01 -0.57419348066E+02 -0.25332105555E+03  0.25975000148E+03  0.00000000000E+00 0.  1.
         22    1    3    3    0    0  0.18699056339E+02  0.27558976715E+01  0.87627653326E+01  0.20833524335E+02  0.00000000000E+00 0.  1.
</event>
<event>
 7    1  0.6443388E-006  0.2489552E+03  0.7818608E-02  0.1187884E+00
          2   -1    0    0  502    0  0.00000000000E+00  0.00000000000E+00  0.27431473263E+04  0.27431473263E+04  0.00000000000E+00 0. -1.
          1   -1    0    0  501    0 -0.00000000000E+00 -0.00000000000E+00 -0.93369153080E+03  0.93369153080E+03  0.00000000000E+00 0. -1.
         25    2    1    2    0    0 -0.51584339667E+02  0.26470434851E+03 -0.83258007460E+03  0.88404987747E+03  0.12500107606E+03 0.  0.
          2    1    1    2  501    0  0.57953192585E+02 -0.16114007491E+03  0.24256377487E+02  0.17295394798E+03  0.00000000000E+00 0. -1.
          1    1    1    2  502    0 -0.63688529178E+01 -0.10356427360E+03  0.26177794926E+04  0.26198350316E+04  0.00000000000E+00 0. -1.
         22    1    3    3    0    0 -0.63629672987E+02  0.48397035073E+02 -0.19915026133E+03  0.21459691255E+03  0.00000000000E+00 0.  1.
         22    1    3    3    0    0  0.12045333320E+02  0.21630731344E+03 -0.63342981328E+03  0.66945296493E+03  0.00000000000E+00 0.  1.
</event>
<event>
 7    1  0.6443388E-006  0.8659705E+02  0.7818608E-02  0.1361949E+00
          2   -1    0    0  502    0  0.00000000000E+00  0.00000000000E+00  0.16587861254E+04  0.16587861254E+04  0.00000000000E+00 0. -1.
          1   -1    0    0  501    0 -0.00000000000E+00 -0.00000000000E+00 -0.54500123974E+03  0.54500123974E+03  0.00000000000E+00 0. -1.
         25    2    1    2    0    0  0.47713022988E+02  0.14864033502E+02  0.93268826799E+02  0.16377767719E+03  0.12500632559E+03 0.  0.
          2    1    1    2  501    0 -0.52802249628E+02 -0.70340900485E+02 -0.50544073073E+03  0.51303630683E+03  0.00000000000E+00 0. -1.
          1    1    1    2  502    0  0.50892266408E+01  0.55476866983E+02  0.15259567896E+04  0.15269733811E+04  0.00000000000E+00 0. -1.
         22    1    3    3    0    0 -0.35613609654E+02  0.15057529258E+02 -0.56197750740E-01  0.38666025631E+02  0.00000000000E+00 0. -1.
         22    1    3    3    0    0  0.83326632641E+02 -0.19349575654E+00  0.93325024550E+02  0.12511165156E+03  0.00000000000E+00 0. -1.
</event>
<event>
 7    1  0.6443388E-006  0.6718852E+02  0.7818608E-02  0.1433074E+00
          2   -1    0    0  502    0  0.00000000000E+00  0.00000000000E+00  0.52146904169E+02  0.52146904169E+02  0.00000000000E+00 0. -1.
          1   -1    0    0  501    0 -0.00000000000E+00 -0.00000000000E+00 -0.84486826985E+03  0.84486826985E+03  0.00000000000E+00 0. -1.
         25    2    1    2    0    0  0.44954844786E+02 -0.11993287630E+02 -0.93074876076E+02  0.16264665028E+03  0.12500489300E+03 0.  0.
          2    1    1    2  501    0 -0.43853193322E+02  0.52763693353E+02 -0.68874189409E+03  0.69215063865E+03  0.00000000000E+00 0. -1.
          1    1    1    2  502    0 -0.11016514634E+01 -0.40770405724E+02 -0.10904595519E+02  0.42217885099E+02  0.00000000000E+00 0. -1.
         22    1    3    3    0    0 -0.19068255147E+02  0.43063274265E+00  0.22771651425E+02  0.29704072238E+02  0.00000000000E+00 0. -1.
         22    1    3    3    0    0  0.64023099933E+02 -0.12423920373E+02 -0.11584652750E+03  0.13294257804E+03  0.00000000000E+00 0. -1.
</event>
<event>
 7    1  0.6443388E-006  0.1036353E+03  0.7818608E-02  0.1374069E+00
          2   -1    0    0  502    0  0.00000000000E+00  0.00000000000E+00  0.40114756977E+03  0.40114756977E+03  0.00000000000E+00 0. -1.
          1   -1    0    0  501    0 -0.00000000000E+00 -0.00000000000E+00 -0.18311281106E+03  0.18311281106E+03  0.00000000000E+00 0. -1.
         25    2    1    2    0    0  0.83863836631E+02  0.30598756445E+02  0.22119179877E+03  0.26929243616E+03  0.12499270916E+03 0.  0.
          2    1    1    2  501    0  0.35519413107E+02 -0.22589444108E+02 -0.13234771926E+03  0.13888063395E+03  0.00000000000E+00 0. -1.
          1    1    1    2  502    0 -0.11938324974E+03 -0.80093123372E+01  0.12919067920E+03  0.17608731072E+03  0.00000000000E+00 0. -1.
         22    1    3    3    0    0 -0.29750347928E+02  0.69843688369E+01  0.85229414844E+02  0.90542353429E+02  0.00000000000E+00 0.  1.
         22    1    3    3    0    0  0.11361418456E+03  0.23614387608E+02  0.13596238392E+03  0.17875008273E+03  0.00000000000E+00 0.  1.
</event>
<event>
 7    1  0.6443388E-006  0.5371113E+02  0.7818608E-02  0.1443635E+00
          2   -1    0    0  502    0  0.00000000000E+00  0.00000000000E+00  0.11873151787E+04  0.11873151787E+04  0.00000000000E+00 0. -1.
          1   -1    0    0  501    0 -0.00000000000E+00 -0.00000000000E+00 -0.67030321420E+02  0.67030321420E+02  0.00000000000E+00 0. -1.
         25    2    1    2    0    0  0.35129908878E+02  0.91277277283E+02  0.23463793757E+03  0.28327686211E+03  0.12500066805E+03 0.  0.
          2    1    1    2  501    0 -0.79930524292E+01 -0.46456263901E+02 -0.28721903097E+02  0.55199828444E+02  0.00000000000E+00 0. -1.
          1    1    1    2  502    0 -0.27136856448E+02 -0.44821013382E+02  0.91436882277E+03  0.91586880953E+03  0.00000000000E+00 0. -1.
         22    1    3    3    0    0  0.23357493164E+02  0.55872231203E+01 -0.82923359386E+01  0.25407722929E+02  0.00000000000E+00 0. -1.
         22    1    3    3    0    0  0.11772415714E+02  0.85690054162E+02  0.24293027351E+03  0.25786913918E+03  0.00000000000E+00 0. -1.
</event>
<event>
 7    1  0.6443388E-006  0.6067945E+02  0.7818608E-02  0.1481590E+00
          2   -1    0    0  502    0  0.00000000000E+00  0.00000000000E+00  0.47966615025E+02  0.47966615025E+02  0.00000000000E+00 0. -1.
          1   -1    0    0  501    0 -0.00000000000E+00 -0.00000000000E+00 -0.42248275116E+04  0.42248275116E+04  0.00000000000E+00 0. -1.
         25    2    1    2    0    0  0.72844944332E+02 -0.28132747887E+02 -0.23456333624E+04  0.23502591482E+04  0.12499742239E+03 0.  0.
          2    1    1    2  501    0 -0.28735238681E+02 -0.13390082660E+02 -0.18565902882E+04  0.18568609281E+04  0.00000000000E+00 0. -1.
          1    1    1    2  502    0 -0.44109705652E+02  0.41522830547E+02  0.25362753996E+02  0.65674050275E+02  0.00000000000E+00 0. -1.
         22    1    3    3    0    0  0.65405871631E+02 -0.69875101618E+02 -0.19528326107E+04  0.19551766323E+04  0.00000000000E+00 0. -1.
         22    1    3    3    0    0  0.74390727014E+01  0.41742353731E+02 -0.39280075167E+03  0.39508251595E+03  0.00000000000E+00 0. -1.
</event>
<event>
 7    1  0.9919861E-006  0.4713905E+02  0.7818608E-02  0.1493905E+00
          2   -1    0    0  502    0  0.00000000000E+00  0.00000000000E+00  0.24975519918E+04  0.24975519918E+04  0.00000000000E+00 0. -1.
          1   -1    0    0  501    0 -0.00000000000E+00 -0.00000000000E+00 -0.23706403307E+04  0.23706403307E+04  0.00000000000E+00 0. -1.
         25    2    1    2    0    0  0.66993821144E+02 -0.39799251242E+02 -0.38207160310E+03  0.40948259556E+03  0.12500053480E+03 0.  0.
          2    1    1    2  501    0 -0.20654990896E+02  0.31230722433E+02 -0.19744622015E+04  0.19748171995E+04  0.00000000000E+00 0. -1.
          1    1    1    2  502    0 -0.46338830247E+02  0.85685288089E+01  0.24834454656E+04  0.24838925274E+04  0.00000000000E+00 0. -1.
         22    1    3    3    0    0  0.19248607803E+01  0.41261100102E+02 -0.80132675917E+02  0.90152255769E+02  0.00000000000E+00 0.  1.
         22    1    3    3    0    0  0.65068960363E+02 -0.81060351343E+02 -0.30193892718E+03  0.31933033979E+03  0.00000000000E+00 0.  1.
</event>
<event>
 7    1  0.6443388E-006  0.6716517E+02  0.7818608E-02  0.1416428E+00
          2   -1    0    0  502    0  0.00000000000E+00  0.00000000000E+00  0.81369976420E+02  0.81369976420E+02  0.00000000000E+00 0. -1.
          1   -1    0    0  501    0 -0.00000000000E+00 -0.00000000000E+00 -0.46238726892E+03  0.46238726892E+03  0.00000000000E+00 0. -1.
         25    2    1    2    0    0 -0.67336742214E+02  0.63259568833E+02 -0.10533556637E+03  0.18776638307E+03  0.12499849266E+03 0.  0.
          2    1    1    2  501    0  0.56232134075E+01 -0.45988659040E+02 -0.28717098780E+03  0.29088443328E+03  0.00000000000E+00 0. -1.
          1    1    1    2  502    0  0.61713528806E+02 -0.17270909793E+02  0.11489261667E+02  0.65106428995E+02  0.00000000000E+00 0. -1.
         22    1    3    3    0    0  0.34420228768E+02 -0.15161972117E+01 -0.18234490213E+02  0.38981375498E+02  0.00000000000E+00 0. -1.
         22    1    3    3    0    0 -0.10175697098E+03  0.64775766045E+02 -0.87101076153E+02  0.14878500757E+03  0.00000000000E+00 0. -1.
</event>
<event>
 7    1  0.6443388E-006  0.5473749E+02  0.7818608E-02  0.1485834E+00
          2   -1    0    0  502    0  0.00000000000E+00  0.00000000000E+00  0.33300423279E+03  0.33300423279E+03  0.00000000000E+00 0. -1.
          1   -1    0    0  501    0 -0.00000000000E+00 -0.00000000000E+00 -0.98298653269E+02  0.98298653269E+02  0.00000000000E+00 0. -1.
         25    2    1    2    0    0  0.39867994578E+02 -0.25141636016E+02  0.86818014536E+01  0.13387140216E+03  0.12499847914E+03 0.  0.
          2    1    1    2  501    0 -0.20782126077E+02 -0.27048743877E+02 -0.23741100482E+02  0.41559248811E+02  0.00000000000E+00 0. -1.
          1    1    1    2  502    0 -0.19085868501E+02  0.52190379893E+02  0.24976487855E+03  0.25587223509E+03  0.00000000000E+00 0. -1.
         22    1    3    3    0    0  0.26228119399E+02  0.42463337045E+02 -0.26434590647E+02  0.56478640413E+02  0.00000000000E+00 0. -1.
         22    1    3    3    0    0  0.13639875179E+02 -0.67604973060E+02  0.35116392101E+02  0.77392761752E+02  0.00000000000E+00 0. -1.
</event>
<event>
 7    1  0.6443388E-006  0.1758593E+03  0.7818608E-02  0.1281754E+00
          2   -1    0    0  502    0  0.00000000000E+00  0.00000000000E+00  0.22055214749E+04  0.22055214749E+04  0.00000000000E+00 0. -1.
          1   -1    0    0  501    0 -0.00000000000E+00 -0.00000000000E+00 -0.61504878363E+03  0.61504878363E+03  0.00000000000E+00 0. -1.
         25    2    1    2    0    0  0.14857593721E+03  0.89712864535E+01 -0.34250456964E+01  0.19442343729E+03  0.12503379116E+03 0.  0.
          2    1    1    2  501    0  0.23501423874E+02 -0.50919452000E+02 -0.51087053699E+03  0.51393950332E+03  0.00000000000E+00 0. -1.
          1    1    1    2  502    0 -0.17207736108E+03  0.41948165547E+02  0.21047682740E+04  0.21122073179E+04  0.00000000000E+00 0. -1.
         22    1    3    3    0    0  0.89886835173E+02 -0.46070806598E+02 -0.36542793352E+02  0.10741293267E+03  0.00000000000E+00 0. -1.
         22    1    3    3    0    0  0.58689102032E+02  0.55042093052E+02  0.33117747656E+02  0.87010504623E+02  0.00000000000E+00 0. -1.
</event>
<event>
 7    1  0.6443388E-006  0.9846794E+02  0.7818608E-02  0.1407546E+00
          2   -1    0    0  502    0  0.00000000000E+00  0.00000000000E+00  0.26133403577E+04  0.26133403577E+04  0.00000000000E+00 0. -1.
          1   -1    0    0  501    0 -0.00000000000E+00 -0.00000000000E+00 -0.44887484891E+03  0.44887484891E+03  0.00000000000E+00 0. -1.
         25    2    1    2    0    0 -0.62474225691E+02  0.62682970453E+02  0.37172775122E+02  0.15760444209E+03  0.12500064519E+03 0.  0.
          2    1    1    2  501    0  0.89807616375E+02 -0.42691970632E+02 -0.38218256920E+03  0.39490698717E+03  0.00000000000E+00 0. -1.
          1    1    1    2  502    0 -0.27333390683E+02 -0.19990999821E+02  0.25094753029E+04  0.25097037774E+04  0.00000000000E+00 0. -1.
         22    1    3    3    0    0 -0.74414106281E+02  0.56696397969E+02 -0.22694614780E+02  0.96265187353E+02  0.00000000000E+00 0. -1.
         22    1    3    3    0    0  0.11939880589E+02  0.59865724839E+01  0.59867389901E+02  0.61339254741E+02  0.00000000000E+00 0. -1.
</event>
<event>
 7    1  0.6443388E-006  0.1763339E+03  0.7818608E-02  0.1188794E+00
          2   -1    0    0  502    0  0.00000000000E+00  0.00000000000E+00  0.25874183368E+03  0.25874183368E+03  0.00000000000E+00 0. -1.
          1   -1    0    0  501    0 -0.00000000000E+00 -0.00000000000E+00 -0.19665301782E+04  0.19665301782E+04  0.00000000000E+00 0. -1.
         25    2    1    2    0    0 -0.43878827937E+02 -0.56100027850E+01 -0.46136594215E+03  0.48004277419E+03  0.12500283522E+03 0.  0.
          2    1    1    2  501    0 -0.12452355741E+03 -0.74333554741E+02 -0.14568820672E+04  0.14640822899E+04  0.00000000000E+00 0. -1.
          1    1    1    2  502    0  0.16840238535E+03  0.79943557526E+02  0.21045966481E+03  0.28114694786E+03  0.00000000000E+00 0. -1.
         22    1    3    3    0    0 -0.44916736268E+02  0.54557388392E+02 -0.28748761005E+03  0.29604585415E+03  0.00000000000E+00 0. -1.
         22    1    3    3    0    0  0.10379083307E+01 -0.60167391177E+02 -0.17387833209E+03  0.18399692005E+03  0.00000000000E+00 0. -1.
</event>
<event>
 7    1  0.6443388E-006  0.9591113E+02  0.7818608E-02  0.1476276E+00
          2   -1    0    0  502    0  0.00000000000E+00  0.00000000000E+00  0.62643368781E+03  0.62643368781E+03  0.00000000000E+00 0. -1.
          1   -1    0    0  501    0 -0.00000000000E+00 -0.00000000000E+00 -0.18603497654E+03  0.18603497654E+03  0.00000000000E+00 0. -1.
         25    2    1    2    0    0 -0.73568065154E+02  0.71999407854E+02  0.16860449181E+03  0.23376980241E+03  0.12499868366E+03 0.  0.
          2    1    1    2  501    0 -0.59508324689E+01 -0.19956520093E+02 -0.14740157292E+03  0.14886537140E+03  0.00000000000E+00 0. -1.
          1    1    1    2  502    0  0.79518897623E+02 -0.52042887761E+02  0.41919579238E+03  0.42983349054E+03  0.00000000000E+00 0. -1.
         22    1    3    3    0    0 -0.26402862508E+00 -0.22878883373E+01 -0.18973569721E+02  0.19112835795E+02  0.00000000000E+00 0. -1.
         22    1    3    3    0    0 -0.73304036529E+02  0.74287296191E+02  0.18757806153E+03  0.21465696661E+03  0.00000000000E+00 0. -1.
</event>
<event>
 7    1  0.6443388E-006  0.1582659E+03  0.7818608E-02  0.1404273E+00
          2   -1    0    0  502    0  0.00000000000E+00  0.00000000000E+00  0.58520979678E+03  0.58520979678E+03  0.00000000000E+00 0. -1.
          1   -1    0    0  501    0 -0.00000000000E+00 -0.00000000000E+00 -0.71232602275E+03  0.71232602275E+03  0.00000000000E+00 0. -1.
         25    2    1    2    0    0 -0.55307883755E+02 -0.16636795188E+03  0.13196214505E+03  0.25254045017E+03  0.12500165529E+03 0.  0.
          2    1    1    2  501    0  0.60459177236E+02  0.14537341485E+03 -0.64222340632E+03  0.66124098896E+03  0.00000000000E+00 0. -1.
          1    1    1    2  502    0 -0.51512934813E+01  0.20994537028E+02  0.38314503529E+03  0.38375438040E+03  0.00000000000E+00 0. -1.
         22    1    3    3    0    0 -0.41677136020E+02 -0.16638013742E+03  0.15141175841E+03  0.22878997876E+03  0.00000000000E+00 0. -1.
         22    1    3    3    0    0 -0.13630747734E+02  0.12185545069E-01 -0.19449613358E+02  0.23750471407E+02  0.00000000000E+00 0. -1.
</event>
<event>
 7    1  0.6443388E-006  0.5212650E+02  0.7818608E-02  0.1449796E+00
          2   -1    0    0  502    0  0.00000000000E+00  0.00000000000E+00  0.56281471160E+02  0.56281471160E+02  0.00000000000E+00 0. -1.
          1   -1    0    0  501    0 -0.00000000000E+00 -0.00000000000E+00 -0.11410669062E+04  0.11410669062E+04  0.00000000000E+00 0. -1.
         25    2    1    2    0    0 -0.35720156630E+01  0.47343456875E+02 -0.16904507921E+03  0.21552678791E+03  0.12498558035E+03 0.  0.
          2    1    1    2  501    0  0.45381044881E+02 -0.27204606510E+02 -0.93135633951E+03  0.93285806048E+03  0.00000000000E+00 0. -1.
          1    1    1    2  502    0 -0.41809029218E+02 -0.20138850365E+02  0.15615983724E+02  0.48963528936E+02  0.00000000000E+00 0. -1.
         22    1    3    3    0    0  0.14740241248E+02 -0.37070739591E+02 -0.89978750301E+02  0.98426063375E+02  0.00000000000E+00 0.  1.
         22    1    3    3    0    0 -0.18312256911E+02  0.84414196466E+02 -0.79066328911E+02  0.11710072453E+03  0.00000000000E+00 0.  1.
</event>
<event>
 7    1  0.6443388E-006  0.4314015E+02  0.7818608E-02  0.1511843E+00
          2   -1    0    0  502    0  0.00000000000E+00  0.00000000000E+00  0.27588660946E+03  0.27588660946E+03  0.00000000000E+00 0. -1.
          1   -1    0    0  501    0 -0.00000000000E+00 -0.00000000000E+00 -0.79622260624E+03  0.79622260624E+03  0.00000000000E+00 0. -1.
         25    2    1    2    0    0  0.14496773444E+02 -0.28680040469E+02 -0.12288756766E+03  0.17820611632E+03  0.12499345761E+03 0.  0.
          2    1    1    2  501    0 -0.43270023926E+02  0.67351747649E+01 -0.64360894645E+03  0.64509699542E+03  0.00000000000E+00 0. -1.
          1    1    1    2  502    0  0.28773250482E+02  0.21944865704E+02  0.24616051733E+03  0.24880610396E+03  0.00000000000E+00 0. -1.
         22    1    3    3    0    0 -0.11511883023E+00  0.23807797119E+02 -0.12138903650E+03  0.12370174873E+03  0.00000000000E+00 0.  1.
         22    1    3    3    0    0  0.14611892274E+02 -0.52487837587E+02 -0.14985311562E+01  0.54504367587E+02  0.00000000000E+00 0.  1.
</event>
<event>
 7    1  0.6443388E-006  0.3810281E+03  0.7818608E-02  0.1169241E+00
          2   -1    0    0  502    0  0.00000000000E+00  0.00000000000E+00  0.32421671276E+04  0.32421671276E+04  0.00000000000E+00 0. -1.
          1   -1    0    0  501    0 -0.00000000000E+00 -0.00000000000E+00 -0.47887383063E+03  0.47887383063E+03  0.00000000000E+00 0. -1.
         25    2    1    2    0    0 -0.32302710878E+03 -0.24324634976E+03  0.61637592563E+03  0.74770142630E+03  0.12499136575E+03 0.  0.
          2    1    1    2  501    0  0.34265203623E+03  0.16193828949E+03 -0.32545349482E+03  0.49955420610E+03  0.00000000000E+00 0. -1.
          1    1    1    2  502    0 -0.19624927451E+02  0.81308060272E+02  0.24723708662E+04  0.24737853258E+04  0.00000000000E+00 0. -1.
         22    1    3    3    0    0 -0.86345165978E+01 -0.57230442991E+02  0.88989341851E+02  0.10615545886E+03  0.00000000000E+00 0. -1.
         22    1    3    3    0    0 -0.31439259218E+03 -0.18601590677E+03  0.52738658378E+03  0.64154596745E+03  0.00000000000E+00 0. -1.
</event>
<event>
 7    1  0.6443388E-006  0.2188203E+03  0.7818608E-02  0.1249109E+00
          2   -1    0    0  502    0  0.00000000000E+00  0.00000000000E+00  0.27631240493E+04  0.27631240493E+04  0.00000000000E+00 0. -1.
          1   -1    0    0  501    0 -0.00000000000E+00 -0.00000000000E+00 -0.57811181997E+03  0.57811181997E+03  0.00000000000E+00 0. -1.
         25    2    1    2    0    0  0.24035405831E+03 -0.71425900422E+02 -0.33855385749E+03  0.43944906776E+03  0.12500014457E+03 0.  0.
          2    1    1    2  501    0 -0.18007723062E+03  0.57134966310E+02 -0.14147606857E+03  0.23602476849E+03  0.00000000000E+00 0. -1.
          1    1    1    2  502    0 -0.60276827691E+02  0.14290934112E+02  0.26650421554E+04  0.26657620331E+04  0.00000000000E+00 0. -1.
         22    1    3    3    0    0  0.21111340045E+03 -0.37997531596E+02 -0.33095594386E+03  0.39439132475E+03  0.00000000000E+00 0.  1.
         22    1    3    3    0    0  0.29240657859E+02 -0.33428368826E+02 -0.75979136219E+01  0.45057743017E+02  0.00000000000E+00 0.  1.
</event>
<event>
 7    1  0.6443388E-006  0.6041591E+02  0.7818608E-02  0.1496659E+00
          2   -1    0    0  502    0  0.00000000000E+00  0.00000000000E+00  0.22003511119E+04  0.22003511119E+04  0.00000000000E+00 0. -1.
          1   -1    0    0  501    0 -0.00000000000E+00 -0.00000000000E+00 -0.23081905817E+03  0.23081905817E+03  0.00000000000E+00 0. -1.
         25    2    1    2    0    0 -0.20125107628E+02 -0.40733923413E+02  0.10878598282E+02  0.13343492650E+03  0.12498905247E+03 0.  0.
          2    1    1    2  501    0  0.48682024268E+02  0.38264808313E+02 -0.16378719253E+03  0.17510105505E+03  0.00000000000E+00 0. -1.
          1    1    1    2  502    0 -0.28556916640E+02  0.24691150997E+01  0.21224406480E+04  0.21226341885E+04  0.00000000000E+00 0. -1.
         22    1    3    3    0    0 -0.18613090559E+02  0.57712045533E+01  0.61597180576E+02  0.64606242710E+02  0.00000000000E+00 0. -1.
         22    1    3    3    0    0 -0.15120170693E+01 -0.46505127966E+02 -0.50718582294E+02  0.68828683793E+02  0.00000000000E+00 0. -1.
</event>
<event>
 7    1  0.6443388E-006  0.3641463E+02  0.7818608E-02  0.1604539E+00
          2   -1    0    0  502    0  0.00000000000E+00  0.00000000000E+00  0.34849229913E+03  0.34849229913E+03  0.00000000000E+00 0. -1.
          1   -1    0    0  501    0 -0.00000000000E+00 -0.00000000000E+00 -0.10465363682E+03  0.10465363682E+03  0.00000000000E+00 0. -1.
         25    2    1    2    0    0  0.46935499519E+02  0.31407323249E+02  0.88533790067E+02  0.16325731884E+03  0.12500143640E+03 0.  0.
          2    1    1    2  501    0 -0.23609108761E+02 -0.26804840956E+02 -0.61856741600E+02  0.71429307686E+02  0.00000000000E+00 0. -1.
          1    1    1    2  502    0 -0.23326390758E+02 -0.46024822924E+01  0.21716161384E+03  0.21845930943E+03  0.00000000000E+00 0. -1.
         22    1    3    3    0    0  0.13110501906E+02  0.49118723502E+02  0.10875572000E+03  0.12005140937E+03  0.00000000000E+00 0. -1.
         22    1    3    3    0    0  0.33824997613E+02 -0.17711400253E+02 -0.20221929935E+02  0.43205909465E+02  0.00000000000E+00 0. -1.
</event>
<event>
 7    1  0.6443388E-006  0.8209171E+02  0.7818608E-02  0.1325428E+00
          2   -1    0    0  502    0  0.00000000000E+00  0.00000000000E+00  0.67765094503E+03  0.67765094503E+03  0.00000000000E+00 0. -1.
          1   -1    0    0  501    0 -0.00000000000E+00 -0.00000000000E+00 -0.13989199280E+03  0.13989199280E+03  0.00000000000E+00 0. -1.
         25    2    1    2    0    0 -0.11591541974E+02  0.57000748448E+01  0.14633367061E+03  0.19289352324E+03  0.12501005341E+03 0.  0.
          2    1    1    2  501    0  0.73650399266E+02  0.48037693496E+02 -0.96101569549E+02  0.13025940649E+03  0.00000000000E+00 0. -1.
          1    1    1    2  502    0 -0.62058857292E+02 -0.53737768341E+02  0.48752685116E+03  0.49439000811E+03  0.00000000000E+00 0. -1.
         22    1    3    3    0    0  0.35103238420E+02 -0.30221898060E+02  0.14568474589E+02  0.48557604160E+02  0.00000000000E+00 0.  1.
         22    1    3    3    0    0 -0.46694780394E+02  0.35921972905E+02  0.13176519602E+03  0.14433591908E+03  0.00000000000E+00 0.  1.
</event>
<event>
 7    1  0.6443388E-006  0.1267789E+03  0.7818608E-02  0.1287808E+00
          2   -1    0    0  502    0  0.00000000000E+00  0.00000000000E+00  0.17227000086E+04  0.17227000086E+04  0.00000000000E+00 0. -1.
          1   -1    0    0  501    0 -0.00000000000E+00 -0.00000000000E+00 -0.19012653187E+04  0.19012653187E+04  0.00000000000E+00 0. -1.
         25    2    1    2    0    0  0.15669339865E+03 -0.26645657302E+02  0.73755745794E+03  0.76476862541E+03  0.12496893378E+03 0.  0.
          2    1    1    2  501    0 -0.58511398906E+02 -0.44432752715E+02 -0.18831600550E+04  0.18845927003E+04  0.00000000000E+00 0. -1.
          1    1    1    2  502    0 -0.98181999744E+02  0.71078410017E+02  0.96703728701E+03  0.97460400159E+03  0.00000000000E+00 0. -1.
         22    1    3    3    0    0  0.10983335738E+03  0.18580481207E+01  0.66393646577E+03  0.67296244272E+03  0.00000000000E+00 0.  1.
         22    1    3    3    0    0  0.46860041274E+02 -0.28503705423E+02  0.73620992167E+02  0.91806182682E+02  0.00000000000E+00 0.  1.
</event>
<event>
 7    1  0.6443388E-006  0.5227002E+02  0.7818608E-02  0.1463804E+00
          2   -1    0    0  502    0  0.00000000000E+00  0.00000000000E+00  0.61873749354E+02  0.61873749354E+02  0.00000000000E+00 0. -1.
          1   -1    0    0  501    0 -0.00000000000E+00 -0.00000000000E+00 -0.57145213581E+03  0.57145213581E+03  0.00000000000E+00 0. -1.
         25    2    1    2    0    0  0.45104002519E+02  0.66629913164E-01 -0.28740958152E+03  0.31664298583E+03  0.12499654973E+03 0.  0.
          2    1    1    2  501    0 -0.10201843651E+02 -0.40518021484E+02 -0.25203473825E+03  0.25547465033E+03  0.00000000000E+00 0. -1.
          1    1    1    2  502    0 -0.34902158867E+02  0.40451391571E+02  0.29865933310E+02  0.61208249003E+02  0.00000000000E+00 0. -1.
         22    1    3    3    0    0 -0.22029209034E+02 -0.46242055583E+02 -0.11714682930E+03  0.12785536113E+03  0.00000000000E+00 0.  1.
         22    1    3    3    0    0  0.67133211553E+02  0.46308685497E+02 -0.17026275222E+03  0.18878762470E+03  0.00000000000E+00 0.  1.
</event>
<event>
 7    1  0.6443388E-006  0.4915570E+02  0.7818608E-02  0.1511807E+00
          2   -1    0    0  502    0  0.00000000000E+00  0.00000000000E+00  0.10572456165E+04  0.10572456165E+04  0.00000000000E+00 0. -1.
          1   -1    0    0  501    0 -0.00000000000E+00 -0.00000000000E+00 -0.52261715374E+02  0.52261715374E+02  0.00000000000E+00 0. -1.
         25    2    1    2    0    0  0.25188311676E+00 -0.54359985591E+02  0.17028457914E+03  0.21812163066E+03  0.12500054556E+03 0.  0.
          2    1    1    2  501    0 -0.28772566050E+02  0.40372515894E+02 -0.61324865441E+01  0.49954058774E+02  0.00000000000E+00 0. -1.
          1    1    1    2  502    0  0.28520682934E+02  0.13987469697E+02  0.84083180849E+03  0.84143164240E+03  0.00000000000E+00 0. -1.
         22    1    3    3    0    0  0.51287066391E+01 -0.53536240540E+02  0.63981473827E+01  0.54160585049E+02  0.00000000000E+00 0. -1.
         22    1    3    3    0    0 -0.48768235223E+01 -0.82374505128E+00  0.16388643176E+03  0.16396104561E+03  0.00000000000E+00 0. -1.
</event>
<event>
 7    1  0.6443388E-006  0.1746291E+03  0.7818608E-02  0.1275336E+00
          2   -1    0    0  502    0  0.00000000000E+00  0.00000000000E+00  0.16133320801E+04  0.16133320801E+04  0.00000000000E+00 0. -1.
          1   -1    0    0  501    0 -0.00000000000E+00 -0.00000000000E+00 -0.36471065810E+03  0.36471065810E+03  0.00000000000E+00 0. -1.
         25    2    1    2    0    0 -0.75971265181E+02  0.20131292364E+03  0.55815063342E+02  0.25502848825E+03  0.12500272864E+03 0.  0.
          2    1    1    2  501    0  0.51890364347E+02 -0.30205309858E+02 -0.25650509918E+03  0.26343848724E+03  0.00000000000E+00 0. -1.
          1    1    1    2  502    0  0.24080900834E+02 -0.17110761378E+03  0.14493114579E+04  0.14595757627E+04  0.00000000000E+00 0. -1.
         22    1    3    3    0    0 -0.82277498080E+02  0.19902264305E+03  0.80146358793E+02  0.22978911629E+03  0.00000000000E+00 0.  1.
         22    1    3    3    0    0  0.63062328991E+01  0.22902805847E+01 -0.24331295451E+02  0.25239371958E+02  0.00000000000E+00 0.  1.
</event>
<event>
 7    1  0.6443388E-006  0.2267703E+03  0.7818608E-02  0.1168785E+00
          2   -1    0    0  502    0  0.00000000000E+00  0.00000000000E+00  0.37917991965E+04  0.37917991965E+04  0.00000000000E+00 0. -1.
          1   -1    0    0  501    0 -0.00000000000E+00 -0.00000000000E+00 -0.46315916125E+03  0.46315916125E+03  0.00000000000E+00 0. -1.
         25    2    1    2    0    0 -0.75054598201E+01  0.94846047346E+02  0.65940501136E+02  0.17036743801E+03  0.12499923848E+03 0.  0.
          2    1    1    2  501    0 -0.15564448840E+02  0.14041577156E+03 -0.39487436754E+03  0.41938598821E+03  0.00000000000E+00 0. -1.
          1    1    1    2  502    0  0.23069908660E+02 -0.23526181891E+03  0.36575739017E+04  0.36652049316E+04  0.00000000000E+00 0. -1.
         22    1    3    3    0    0  0.28184119458E+02  0.65757294822E+02 -0.18760126925E+02  0.73961535775E+02  0.00000000000E+00 0. -1.
         22    1    3    3    0    0 -0.35689579278E+02  0.29088752525E+02  0.84700628061E+02  0.96405902238E+02  0.00000000000E+00 0. -1.
</event>
<event>
 7    1  0.6443388E-006  0.1412799E+03  0.7818608E-02  0.1329225E+00
          2   -1    0    0  502    0  0.00000000000E+00  0.00000000000E+00  0.14583275874E+04  0.14583275874E+04  0.00000000000E+00 0. -1.
          1   -1    0    0  501    0 -0.00000000000E+00 -0.00000000000E+00 -0.10762768767E+04  0.10762768767E+04  0.00000000000E+00 0. -1.
         25    2    1    2    0    0 -0.17376748069E+03  0.53543809682E+02  0.25726853682E+03  0.33893083718E+03  0.12499974181E+03 0.  0.
          2    1    1    2  501    0  0.44724657073E+02 -0.67491400871E+01 -0.10308881591E+04  0.10318799554E+04  0.00000000000E+00 0. -1.
          1    1    1    2  502    0  0.12904282362E+03 -0.46794669595E+02  0.11556703330E+04  0.11637936716E+04  0.00000000000E+00 0. -1.
         22    1    3    3    0    0  0.15456264400E+02  0.95871118626E+01  0.57389008546E+02  0.60202218605E+02  0.00000000000E+00 0.  1.
         22    1    3    3    0    0 -0.18922374509E+03  0.43956697819E+02  0.19987952827E+03  0.27872861857E+03  0.00000000000E+00 0.  1.
</event>
<event>
 7    1  0.6443388E-006  0.1003329E+03  0.7818608E-02  0.1326053E+00
          2   -1    0    0  502    0  0.00000000000E+00  0.00000000000E+00  0.80578176582E+03  0.80578176582E+03  0.00000000000E+00 0. -1.
          1   -1    0    0  501    0 -0.00000000000E+00 -0.00000000000E+00 -0.66227640232E+03  0.66227640232E+03  0.00000000000E+00 0. -1.
         25    2    1    2    0    0 -0.16042111290E+03 -0.15247090593E+01 -0.17919253336E+03  0.27105851805E+03  0.12500199197E+03 0.  0.
          2    1    1    2  501    0  0.62904647734E+02 -0.18252396241E+02 -0.43141087324E+03  0.43635477106E+03  0.00000000000E+00 0. -1.
          1    1    1    2  502    0  0.97516465166E+02  0.19777105300E+02  0.75410877009E+03  0.76064487903E+03  0.00000000000E+00 0. -1.
         22    1    3    3    0    0 -0.16844430975E+03  0.10945748179E+02 -0.11277582925E+03  0.20300660717E+03  0.00000000000E+00 0. -1.
         22    1    3    3    0    0  0.80231968473E+01 -0.12470457238E+02 -0.66416704102E+02  0.68051910886E+02  0.00000000000E+00 0. -1.
</event>
<event>
 7    1  0.6443388E-006  0.6444194E+02  0.7818608E-02  0.1426409E+00
          2   -1    0    0  502    0  0.00000000000E+00  0.00000000000E+00  0.15774147087E+04  0.15774147087E+04  0.00000000000E+00 0. -1.
          1   -1    0    0  501    0 -0.00000000000E+00 -0.00000000000E+00 -0.24440694774E+02  0.24440694774E+02  0.00000000000E+00 0. -1.
         25    2    1    2    0    0  0.54441263096E+02 -0.50749824986E+02  0.50092729966E+03  0.52162133353E+03  0.12498503983E+03 0.  0.
          2    1    1    2  501    0 -0.42806105231E+02 -0.12970068989E+02  0.25184056165E+02  0.51330517429E+02  0.00000000000E+00 0. -1.
          1    1    1    2  502    0 -0.11635157866E+02  0.63719893975E+02  0.10268626581E+04  0.10289035526E+04  0.00000000000E+00 0. -1.
         22    1    3    3    0    0  0.69085269847E+02 -0.83973611559E+02  0.39197717169E+03  0.40678058591E+03  0.00000000000E+00 0.  1.
         22    1    3    3    0    0 -0.14644006751E+02  0.33223786573E+02  0.10895012798E+03  0.11484074762E+03  0.00000000000E+00 0.  1.
</event>
<event>
 7    1  0.6443388E-006  0.9771584E+02  0.7818608E-02  0.1303235E+00
          2   -1    0    0  502    0  0.00000000000E+00  0.00000000000E+00  0.75882344430E+03  0.75882344430E+03  0.00000000000E+00 0. -1.
          1   -1    0    0  501    0 -0.00000000000E+00 -0.00000000000E+00 -0.10688956302E+04  0.10688956302E+04  0.00000000000E+00 0. -1.
         25    2    1    2    0    0  0.23554190606E+02 -0.46974520612E+02 -0.32270294915E+03  0.35003277256E+03  0.12499737196E+03 0.  0.
          2    1    1    2  501    0 -0.73430785649E+02 -0.37830498020E+02 -0.72693099757E+03  0.73160911837E+03  0.00000000000E+00 0. -1.
          1    1    1    2  502    0  0.49876595044E+02  0.84805018632E+02  0.73956176077E+03  0.74607718362E+03  0.00000000000E+00 0. -1.
         22    1    3    3    0    0  0.16501864141E+02 -0.49439607127E+02 -0.33314272843E+03  0.33719529027E+03  0.00000000000E+00 0.  1.
         22    1    3    3    0    0  0.70523264644E+01  0.24650865149E+01  0.10439779284E+02  0.12837482291E+02  0.00000000000E+00 0.  1.
</event>
<event>
 7    1  0.6443388E-006  0.6674028E+02  0.7818608E-02  0.1385672E+00
          2   -1    0    0  502    0  0.00000000000E+00  0.00000000000E+00  0.91315645145E+03  0.91315645145E+03  0.00000000000E+00 0. -1.
          1   -1    0    0  501    0 -0.00000000000E+00 -0.00000000000E+00 -0.80457973348E+03  0.80457973348E+03  0.00000000000E+00 0. -1.
         25    2    1    2    0    0 -0.40656542856E+02 -0.10416873953E+03  0.76836058916E+02  0.18447718823E+03  0.12499588895E+03 0.  0.
          2    1    1    2  501    0  0.45324286336E+02  0.38488973395E+02 -0.74819234353E+03  0.75055144722E+03  0.00000000000E+00 0. -1.
          1    1    1    2  502    0 -0.46677434800E+01  0.65679766135E+02  0.77993300258E+03  0.78270754948E+03  0.00000000000E+00 0. -1.
         22    1    3    3    0    0 -0.39373792280E+02 -0.13124462000E+01 -0.19133233702E+02  0.43796103314E+02  0.00000000000E+00 0.  1.
         22    1    3    3    0    0 -0.12827505753E+01 -0.10285629333E+03  0.95969292618E+02  0.14068108491E+03  0.00000000000E+00 0.  1.
</event>
<event>
 7    1  0.6443388E-006  0.4389587E+02  0.7818608E-02  0.1543956E+00
          2   -1    0    0  502    0  0.00000000000E+00  0.00000000000E+00  0.16892156346E+04  0.16892156346E+04  0.00000000000E+00 0. -1.
          1   -1    0    0  501    0 -0.00000000000E+00 -0.00000000000E+00 -0.42653705727E+03  0.42653705727E+03  0.00000000000E+00 0. -1.
         25    2    1    2    0    0 -0.63475612248E+02 -0.34950431263E+02  0.19333985664E+03  0.24136616994E+03  0.12500656714E+03 0.  0.
          2    1    1    2  501    0  0.37776988064E+02  0.22046928825E+02 -0.40119468489E+03  0.40357198005E+03  0.00000000000E+00 0. -1.
          1    1    1    2  502    0  0.25698624184E+02  0.12903502437E+02  0.14705334056E+04  0.14708145419E+04  0.00000000000E+00 0. -1.
         22    1    3    3    0    0 -0.47614164791E+02 -0.43913787110E+02  0.20808170979E+03  0.21793009736E+03  0.00000000000E+00 0.  1.
         22    1    3    3    0    0 -0.15861447457E+02  0.89633558478E+01 -0.14741853148E+02  0.23436072575E+02  0.00000000000E+00 0.  1.
</event>
<event>
 7    1  0.6443388E-006  0.3752561E+02  0.7818608E-02  0.1586651E+00
          2   -1    0    0  502    0  0.00000000000E+00  0.00000000000E+00  0.27961923476E+04  0.27961923476E+04  0.00000000000E+00 0. -1.
          1   -1    0    0  501    0 -0.00000000000E+00 -0.00000000000E+00 -0.11735501668E+03  0.11735501668E+03  0.00000000000E+00 0. -1.
         25    2    1    2    0    0 -0.16919778439E+02  0.28707124503E+02  0.19534976663E+03  0.23430034023E+03  0.12499896085E+03 0.  0.
          2    1    1    2  501    0 -0.18948208994E+02 -0.17376789249E+02 -0.96051978315E+02  0.99433243772E+02  0.00000000000E+00 0. -1.
          1    1    1    2  502    0  0.35867987434E+02 -0.11330335254E+02  0.25795395427E+04  0.25798137803E+04  0.00000000000E+00 0. -1.
         22    1    3    3    0    0  0.43484699891E+02 -0.57405413239E+01  0.13593899560E+03  0.14284006253E+03  0.00000000000E+00 0. -1.
         22    1    3    3    0    0 -0.60404478331E+02  0.34447665827E+02  0.59410771029E+02  0.91460277703E+02  0.00000000000E+00 0. -1.
</event>
<event>
 7    1  0.6443388E-006  0.7606139E+02  0.7818608E-02  0.1472362E+00
          2   -1    0    0  502    0  0.00000000000E+00  0.00000000000E+00  0.10580873361E+04  0.10580873361E+04  0.00000000000E+00 0. -1.
          1   -1    0    0  501    0 -0.00000000000E+00 -0.00000000000E+00 -0.30900469077E+03  0.30900469077E+03  0.00000000000E+00 0. -1.
         25    2    1    2    0    0  0.44659897247E+02  0.30203013024E+02 -0.93733495923E+02  0.16527860689E+03  0.12499728485E+03 0.  0.
          2    1    1    2  501    0  0.26790194046E+02 -0.33729199586E+01 -0.17704916982E+03  0.17909634172E+03  0.00000000000E+00 0. -1.
          1    1    1    2  502    0 -0.71450091293E+02 -0.26830093065E+02  0.10198653111E+04  0.10227170783E+04  0.00000000000E+00 0. -1.
         22    1    3    3    0    0  0.11410634586E+02 -0.48904472686E+02 -0.37676875018E+02  0.62780545884E+02  0.00000000000E+00 0. -1.
         22    1    3    3    0    0  0.33249262661E+02  0.79107485710E+02 -0.56056620905E+02  0.10249806101E+03  0.00000000000E+00 0. -1.
</event>
<event>
 7    1  0.6443388E-006  0.9354460E+02  0.7818608E-02  0.1324864E+00
          2   -1    0    0  502    0  0.00000000000E+00  0.00000000000E+00  0.11093030313E+04  0.11093030313E+04  0.00000000000E+00 0. -1.
          1   -1    0    0  501    0 -0.00000000000E+00 -0.00000000000E+00 -0.31663961876E+03  0.31663961876E+03  0.00000000000E+00 0. -1.
         25    2    1    2    0    0  0.94902766050E+01 -0.70254704372E+02  0.60189482770E+02  0.15581453667E+03  0.12501842731E+03 0.  0.
          2    1    1    2  501    0  0.69217102629E+02  0.15794392502E+02 -0.26180114125E+03  0.27125690349E+03  0.00000000000E+00 0. -1.
          1    1    1    2  502    0 -0.78707379234E+02  0.54460311870E+02  0.99427507104E+03  0.99887120992E+03  0.00000000000E+00 0. -1.
         22    1    3    3    0    0 -0.30373661235E+01 -0.45344927805E+02  0.98472583229E+02  0.10845385064E+03  0.00000000000E+00 0. -1.
         22    1    3    3    0    0  0.12527642728E+02 -0.24909776567E+02 -0.38283100459E+02  0.47360686035E+02  0.00000000000E+00 0. -1.
</event>
<event>
 7    1  0.6443388E-006  0.1047790E+03  0.7818608E-02  0.1325855E+00
          2   -1    0    0  502    0  0.00000000000E+00  0.00000000000E+00  0.45910598170E+03  0.45910598170E+03  0.00000000000E+00 0. -1.
          1   -1    0    0  501    0 -0.00000000000E+00 -0.00000000000E+00 -0.34021321029E+04  0.34021321029E+04  0.00000000000E+00 0. -1.
         25    2    1    2    0    0 -0.68322829374E+02 -0.17840321767E+01  0.15361510931E+03  0.20947351670E+03  0.12494142871E+03 0.  0.
          2    1    1    2  501    0 -0.48845610483E+02 -0.39518029261E+02 -0.33599927925E+04  0.33605801782E+04  0.00000000000E+00 0. -1.
          1    1    1    2  502    0  0.11716843986E+03  0.41302061438E+02  0.26335156202E+03  0.29118438969E+03  0.00000000000E+00 0. -1.
         22    1    3    3    0    0  0.37844373151E+01 -0.46598503975E+02  0.96271546809E+02  0.10702314359E+03  0.00000000000E+00 0.  1.
         22    1    3    3    0    0 -0.72107266689E+02  0.44814471799E+02  0.57343562497E+02  0.10245037312E+03  0.00000000000E+00 0.  1.
</event>
<event>
 7    1  0.6443388E-006  0.2878318E+02  0.7818608E-02  0.1621350E+00
          2   -1    0    0  502    0  0.00000000000E+00  0.00000000000E+00  0.78272208182E+03  0.78272208182E+03  0.00000000000E+00 0. -1.
          1   -1    0    0  501    0 -0.00000000000E+00 -0.00000000000E+00 -0.59973649471E+03  0.59973649471E+03  0.00000000000E+00 0. -1.
         25    2    1    2    0    0  0.44909667427E+02  0.81891362638E+01  0.21162003339E+03  0.24998877492E+03  0.12500963511E+03 0.  0.
          2    1    1    2  501    0 -0.20474894783E+02 -0.20210258884E+02 -0.57985937869E+03  0.58057262676E+03  0.00000000000E+00 0. -1.
          1    1    1    2  502    0 -0.24434772645E+02  0.12021122620E+02  0.55122493241E+03  0.55189717486E+03  0.00000000000E+00 0. -1.
         22    1    3    3    0    0  0.45967810920E+02 -0.53462137512E+02  0.12740778039E+03  0.14561587239E+03  0.00000000000E+00 0.  1.
         22    1    3    3    0    0 -0.10581434930E+01  0.61651273776E+02  0.84212253001E+02  0.10437290252E+03  0.00000000000E+00 0.  1.
</event>
<event>
 7    1  0.6443388E-006  0.7794544E+02  0.7818608E-02  0.1398753E+00
          2   -1    0    0  502    0  0.00000000000E+00  0.00000000000E+00  0.13637532131E+04  0.13637532131E+04  0.00000000000E+00 0. -1.
          1   -1    0    0  501    0 -0.00000000000E+00 -0.00000000000E+00 -0.11251238252E+04  0.11251238252E+04  0.00000000000E+00 0. -1.
         25    2    1    2    0    0  0.48846176958E+02  0.86216777275E+02  0.31684175345E+03  0.35472950774E+03  0.12500018098E+03 0.  0.
          2    1    1    2  501    0 -0.37738793373E+01 -0.77810711059E+02 -0.11042958289E+04  0.11070402101E+04  0.00000000000E+00 0. -1.
          1    1    1    2  502    0 -0.45072297621E+02 -0.84060662157E+01  0.10260834634E+04  0.10271073205E+04  0.00000000000E+00 0. -1.
         22    1    3    3    0    0  0.22253534094E+02 -0.11052102259E+01 -0.26644469417E+01  0.22439709152E+02  0.00000000000E+00 0.  1.
         22    1    3    3    0    0  0.26592642864E+02  0.87321987501E+02  0.31950620039E+03  0.33228979858E+03  0.00000000000E+00 0.  1.
</event>
<event>
 7    1  0.6443388E-006  0.6284697E+02  0.7818608E-02  0.1520014E+00
          2   -1    0    0  502    0  0.00000000000E+00  0.00000000000E+00  0.20691794526E+04  0.20691794526E+04  0.00000000000E+00 0. -1.
          1   -1    0    0  501    0 -0.00000000000E+00 -0.00000000000E+00 -0.34982484198E+03  0.34982484198E+03  0.00000000000E+00 0. -1.
         25    2    1    2    0    0 -0.12002762861E+02 -0.82563006808E+02  0.40583284875E+03  0.43276396483E+03  0.12499452677E+03 0.  0.
          2    1    1    2  501    0  0.11371982627E+02  0.20578824133E+02 -0.33536531906E+03  0.33618849953E+03  0.00000000000E+00 0. -1.
          1    1    1    2  502    0  0.63078023408E+00  0.61984182675E+02  0.16488870809E+04  0.16500518302E+04  0.00000000000E+00 0. -1.
         22    1    3    3    0    0 -0.47569833464E+02  0.10061045170E+01  0.22988946227E+03  0.23476172211E+03  0.00000000000E+00 0.  1.
         22    1    3    3    0    0  0.35567070603E+02 -0.83569111325E+02  0.17594338647E+03  0.19800224272E+03  0.00000000000E+00 0.  1.
</event>
<event>
 7    1  0.6443388E-006  0.1421463E+03  0.7818608E-02  0.1222541E+00
          2   -1    0    0  502    0  0.00000000000E+00  0.00000000000E+00  0.20295262256E+04  0.20295262256E+04  0.00000000000E+00 0. -1.
          1   -1    0    0  501    0 -0.00000000000E+00 -0.00000000000E+00 -0.11119750179E+03  0.11119750179E+03  0.00000000000E+00 0. -1.
         25    2    1    2    0    0 -0.17154458302E+03 -0.57808197632E+02  0.33088872523E+03  0.39733342110E+03  0.12496866553E+03 0.  0.
          2    1    1    2  501    0  0.12933372151E+03 -0.59991154294E+02 -0.82434009347E+01  0.14280792615E+03  0.00000000000E+00 0. -1.
          1    1    1    2  502    0  0.42210861514E+02  0.11779935193E+03  0.15956833995E+04  0.16005823802E+04  0.00000000000E+00 0. -1.
         22    1    3    3    0    0 -0.35928144409E+02  0.18038486841E+01  0.18834973940E+03  0.19175429529E+03  0.00000000000E+00 0. -1.
         22    1    3    3    0    0 -0.13561643861E+03 -0.59612046316E+02  0.14253898583E+03  0.20557912581E+03  0.00000000000E+00 0. -1.
</event>
<event>
 7    1  0.6443388E-006  0.1283799E+03  0.7818608E-02  0.1268197E+00
          2   -1    0    0  502    0  0.00000000000E+00  0.00000000000E+00  0.65156555105E+03  0.65156555105E+03  0.00000000000E+00 0. -1.
          1   -1    0    0  501    0 -0.00000000000E+00 -0.00000000000E+00 -0.27289722086E+03  0.27289722086E+03  0.00000000000E+00 0. -1.
         25    2    1    2    0    0  0.46721001769E+02 -0.46493494124E+02  0.17863748133E+02  0.14243943124E+03  0.12500152428E+03 0.  0.
          2    1    1    2  501    0 -0.78385934180E+02  0.12805431576E+03 -0.17988008211E+03  0.23430558338E+03  0.00000000000E+00 0. -1.
          1    1    1    2  502    0  0.31664932410E+02 -0.81560821634E+02  0.54068466417E+03  0.54771775728E+03  0.00000000000E+00 0. -1.
         22    1    3    3    0    0  0.83088453597E+02 -0.23329239256E+01  0.18813085860E+02  0.85223622634E+02  0.00000000000E+00 0. -1.
         22    1    3    3    0    0 -0.36367451828E+02 -0.44160570198E+02 -0.94933772735E+00  0.57215808609E+02  0.00000000000E+00 0. -1.
</event>
<event>
 7    1  0.6443388E-006  0.1249487E+03  0.7818608E-02  0.1315600E+00
          2   -1    0    0  502    0  0.00000000000E+00  0.00000000000E+00  0.31062604036E+03  0.31062604036E+03  0.00000000000E+00 0. -1.
          1   -1    0    0  501    0 -0.00000000000E+00 -0.00000000000E+00 -0.33234135626E+03  0.33234135626E+03  0.00000000000E+00 0. -1.
         25    2    1    2    0    0 -0.33636691106E+02  0.13626948107E+03 -0.99323519015E+02  0.21258125307E+03  0.12499931706E+03 0.  0.
          2    1    1    2  501    0 -0.21871453085E+02 -0.12038388223E+03 -0.15114341083E+03  0.19446071634E+03  0.00000000000E+00 0. -1.
          1    1    1    2  502    0  0.55508144190E+02 -0.15885598841E+02  0.22875161394E+03  0.23592542721E+03  0.00000000000E+00 0. -1.
         22    1    3    3    0    0 -0.78223173266E+02  0.90876547183E+02 -0.42324013675E+02  0.12715633605E+03  0.00000000000E+00 0.  1.
         22    1    3    3    0    0  0.44586482161E+02  0.45392933890E+02 -0.56999505340E+02  0.85424917018E+02  0.00000000000E+00 0.  1.
</event>
<event>
 7    1  0.6443388E-006  0.4634666E+02  0.7818608E-02  0.1564378E+00
          2   -1    0    0  502    0  0.00000000000E+00  0.00000000000E+00  0.55717285693E+02  0.55717285693E+02  0.00000000000E+00 0. -1.
          1   -1    0    0  501    0 -0.00000000000E+00 -0.00000000000E+00 -0.50818415540E+03  0.50818415540E+03  0.00000000000E+00 0. -1.
         25    2    1    2    0    0 -0.28697938355E+02  0.89512677116E+01 -0.65251991901E+02  0.14417286212E+03  0.12499717943E+03 0.  0.
          2    1    1    2  501    0  0.34285204554E+02 -0.32193857017E+02 -0.39244940783E+03  0.39525745709E+03  0.00000000000E+00 0. -1.
          1    1    1    2  502    0 -0.55872661992E+01  0.23242589305E+02  0.52345300267E+01  0.24471121875E+02  0.00000000000E+00 0. -1.
         22    1    3    3    0    0 -0.78103586981E+02  0.10394458304E+02 -0.34940661543E+02  0.86192023365E+02  0.00000000000E+00 0.  1.
         22    1    3    3    0    0  0.49405648625E+02 -0.14431905922E+01 -0.30311330358E+02  0.57980838760E+02  0.00000000000E+00 0.  1.
</event>
<event>
 7    1  0.6443388E-006  0.4155775E+02  0.7818608E-02  0.1588890E+00
          2   -1    0    0  502    0  0.00000000000E+00  0.00000000000E+00  0.37735998383E+02  0.37735998383E+02  0.00000000000E+00 0. -1.
          1   -1    0    0  501    0 -0.00000000000E+00 -0.00000000000E+00 -0.76837252817E+03  0.76837252817E+03  0.00000000000E+00 0. -1.
         25    2    1    2    0    0 -0.91018826158E+01  0.18137716786E+02 -0.49167760605E+03  0.50772397792E+03  0.12499979371E+03 0.  0.
          2    1    1    2  501    0 -0.17803163689E+02  0.14402886564E+02 -0.25288855535E+03  0.25392325062E+03  0.00000000000E+00 0. -1.
          1    1    1    2  502    0  0.26905046304E+02 -0.32540603350E+02  0.13929631621E+02  0.44461298003E+02  0.00000000000E+00 0. -1.
         22    1    3    3    0    0  0.45130248922E+01 -0.19248362616E+02 -0.44877936095E+03  0.44921462762E+03  0.00000000000E+00 0.  1.
         22    1    3    3    0    0 -0.13614907508E+02  0.37386079402E+02 -0.42898245104E+02  0.58509350300E+02  0.00000000000E+00 0.  1.
</event>
<event>
 7    1  0.6443388E-006  0.1136082E+03  0.7818608E-02  0.1280072E+00
          2   -1    0    0  502    0  0.00000000000E+00  0.00000000000E+00  0.25521262784E+04  0.25521262784E+04  0.00000000000E+00 0. -1.
          1   -1    0    0  501    0 -0.00000000000E+00 -0.00000000000E+00 -0.66164662876E+03  0.66164662876E+03  0.00000000000E+00 0. -1.
         25    2    1    2    0    0  0.27498615504E+02 -0.91579309440E+00  0.95165240352E+01  0.12834442442E+03  0.12499885807E+03 0.  0.
          2    1    1    2  501    0  0.87846066238E+02  0.79951392933E+01 -0.59764919537E+03  0.60412367470E+03  0.00000000000E+00 0. -1.
          1    1    1    2  502    0 -0.11534468174E+03 -0.70793461989E+01  0.24786123210E+04  0.24813048081E+04  0.00000000000E+00 0. -1.
         22    1    3    3    0    0  0.46961303337E+02 -0.53535084963E+02 -0.12150556535E+01  0.71223912370E+02  0.00000000000E+00 0.  1.
         22    1    3    3    0    0 -0.19462687834E+02  0.52619291868E+02  0.10731579689E+02  0.57120512052E+02  0.00000000000E+00 0.  1.
</event>
<event>
 7    1  0.6443388E-006  0.2893624E+03  0.7818608E-02  0.1114282E+00
          2   -1    0    0  502    0  0.00000000000E+00  0.00000000000E+00  0.21753007093E+03  0.21753007093E+03  0.00000000000E+00 0. -1.
          1   -1    0    0  501    0 -0.00000000000E+00 -0.00000000000E+00 -0.17760876459E+04  0.17760876459E+04  0.00000000000E+00 0. -1.
         25    2    1    2    0    0 -0.36478700816E+03 -0.29009369524E+03 -0.74041462930E+03  0.88377733301E+03  0.12499855090E+03 0.  0.
          2    1    1    2  501    0  0.13399529814E+03  0.16600986945E+03 -0.82051454772E+03  0.84779604841E+03  0.00000000000E+00 0. -1.
          1    1    1    2  502    0  0.23079171002E+03  0.12408382579E+03  0.23716020266E+01  0.26204433543E+03  0.00000000000E+00 0. -1.
         22    1    3    3    0    0 -0.32615302492E+03 -0.20385145730E+03 -0.54920816836E+03  0.67049297126E+03  0.00000000000E+00 0. -1.
         22    1    3    3    0    0 -0.38633983234E+02 -0.86242237937E+02 -0.19120646094E+03  0.21328436175E+03  0.00000000000E+00 0. -1.
</event>
<event>
 7    1  0.6443388E-006  0.1471042E+03  0.7818608E-02  0.1241608E+00
          2   -1    0    0  502    0  0.00000000000E+00  0.00000000000E+00  0.19051895153E+04  0.19051895153E+04  0.00000000000E+00 0. -1.
          1   -1    0    0  501    0 -0.00000000000E+00 -0.00000000000E+00 -0.70973835819E+02  0.70973835819E+02  0.00000000000E+00 0. -1.
         25    2    1    2    0    0 -0.42749128748E+02  0.62465593187E+02  0.85416099133E+03  0.86657092390E+03  0.12499891474E+03 0.  0.
          2    1    1    2  501    0  0.95924076569E+01 -0.15614622677E+03  0.36269655340E+02  0.16058999445E+03  0.00000000000E+00 0. -1.
          1    1    1    2  502    0  0.33156721091E+02  0.93680633581E+02  0.94378503276E+03  0.94900243273E+03  0.00000000000E+00 0. -1.
         22    1    3    3    0    0  0.44160425620E+02  0.29831279802E+02  0.30846441022E+03  0.31303408891E+03  0.00000000000E+00 0.  1.
         22    1    3    3    0    0 -0.86909554368E+02  0.32634313385E+02  0.54569658111E+03  0.55353683499E+03  0.00000000000E+00 0.  1.
</event>
<event>
 7    1  0.6443388E-006  0.2243643E+03  0.7818608E-02  0.1154366E+00
          2   -1    0    0  502    0  0.00000000000E+00  0.00000000000E+00  0.42835449336E+03  0.42835449336E+03  0.00000000000E+00 0. -1.
          1   -1    0    0  501    0 -0.00000000000E+00 -0.00000000000E+00 -0.18872009268E+04  0.18872009268E+04  0.00000000000E+00 0. -1.
         25    2    1    2    0    0  0.20859581863E+02 -0.89130414088E+02 -0.34765534389E+03  0.38061550531E+03  0.12499828750E+03 0.  0.
          2    1    1    2  501    0 -0.10051916670E+03 -0.13561498843E+03 -0.14833619971E+04  0.14929361481E+04  0.00000000000E+00 0. -1.
          1    1    1    2  502    0  0.79659584834E+02  0.22474540252E+03  0.37217090753E+03  0.44200376675E+03  0.00000000000E+00 0. -1.
         22    1    3    3    0    0 -0.18202474223E+02 -0.49227525504E+02 -0.35167611976E+02  0.63177846332E+02  0.00000000000E+00 0.  1.
         22    1    3    3    0    0  0.39062056086E+02 -0.39902888584E+02 -0.31248773191E+03  0.31743765898E+03  0.00000000000E+00 0.  1.
</event>
<event>
 7    1  0.6443388E-006  0.1012461E+03  0.7818608E-02  0.1408227E+00
          2   -1    0    0  502    0  0.00000000000E+00  0.00000000000E+00  0.93093657187E+02  0.93093657187E+02  0.00000000000E+00 0. -1.
          1   -1    0    0  501    0 -0.00000000000E+00 -0.00000000000E+00 -0.80685226820E+03  0.80685226820E+03  0.00000000000E+00 0. -1.
         25    2    1    2    0    0  0.12677460452E+03 -0.73632577284E+01 -0.53441047601E+03  0.56333415993E+03  0.12499920382E+03 0.  0.
          2    1    1    2  501    0 -0.29371112419E+02 -0.14508911405E+02 -0.22462058181E+03  0.22699686457E+03  0.00000000000E+00 0. -1.
          1    1    1    2  502    0 -0.97403492104E+02  0.21872169134E+02  0.45272446804E+02  0.10961490089E+03  0.00000000000E+00 0. -1.
         22    1    3    3    0    0  0.94546667633E+02 -0.30517505529E+02 -0.17101958453E+03  0.19778293353E+03  0.00000000000E+00 0.  1.
         22    1    3    3    0    0  0.32227936889E+02  0.23154247800E+02 -0.36339089149E+03  0.36555122640E+03  0.00000000000E+00 0.  1.
</event>
<event>
 7    1  0.6443388E-006  0.7318714E+02  0.7818608E-02  0.1490260E+00
          2   -1    0    0  502    0  0.00000000000E+00  0.00000000000E+00  0.15759841253E+04  0.15759841253E+04  0.00000000000E+00 0. -1.
          1   -1    0    0  501    0 -0.00000000000E+00 -0.00000000000E+00 -0.15156368520E+03  0.15156368520E+03  0.00000000000E+00 0. -1.
         25    2    1    2    0    0 -0.47162445610E+02  0.53798751805E+02  0.15162198766E+03  0.20912379977E+03  0.12499973806E+03 0.  0.
          2    1    1    2  501    0  0.64189802831E+02 -0.35857439037E+02 -0.11168767059E+03  0.13371694913E+03  0.00000000000E+00 0. -1.
          1    1    1    2  502    0 -0.17027357221E+02 -0.17941312768E+02  0.13844861230E+04  0.13847070616E+04  0.00000000000E+00 0. -1.
         22    1    3    3    0    0  0.18867929937E+02  0.72815604355E+02  0.75511141429E+02  0.10658350481E+03  0.00000000000E+00 0.  1.
         22    1    3    3    0    0 -0.66030375546E+02 -0.19016852550E+02  0.76110846234E+02  0.10254029496E+03  0.00000000000E+00 0.  1.
</event>
<event>
 7    1  0.6443388E-006  0.8142162E+02  0.7818608E-02  0.1343110E+00
          2   -1    0    0  502    0  0.00000000000E+00  0.00000000000E+00  0.15918198876E+04  0.15918198876E+04  0.00000000000E+00 0. -1.
          1   -1    0    0  501    0 -0.00000000000E+00 -0.00000000000E+00 -0.50823128516E+02  0.50823128516E+02  0.00000000000E+00 0. -1.
         25    2    1    2    0    0 -0.51467814383E+01  0.27750891791E+02  0.55912566672E+03  0.57362062687E+03  0.12499004375E+03 0.  0.
          2    1    1    2  501    0  0.80730851879E+02  0.10583463679E+02 -0.20604694898E+01  0.81447686787E+02  0.00000000000E+00 0. -1.
          1    1    1    2  502    0 -0.75584070440E+02 -0.38334355470E+02  0.98393156186E+03  0.98757470246E+03  0.00000000000E+00 0. -1.
         22    1    3    3    0    0 -0.59192653894E+02  0.39072336854E+02  0.26329277366E+03  0.27267838646E+03  0.00000000000E+00 0.  1.
         22    1    3    3    0    0  0.54045872456E+02 -0.11321445063E+02  0.29583289305E+03  0.30094224041E+03  0.00000000000E+00 0.  1.
</event>
<event>
 7    1  0.6443388E-006  0.6694913E+02  0.7818608E-02  0.1503224E+00
          2   -1    0    0  502    0  0.00000000000E+00  0.00000000000E+00  0.26797191197E+04  0.26797191197E+04  0.00000000000E+00 0. -1.
          1   -1    0    0  501    0 -0.00000000000E+00 -0.00000000000E+00 -0.94065188814E+02  0.94065188814E+02  0.00000000000E+00 0. -1.
         25    2    1    2    0    0 -0.83544590396E+02  0.32484879599E+02  0.14914159009E+04  0.14993268653E+04  0.12499877420E+03 0.  0.
          2    1    1    2  501    0  0.64701871677E+02 -0.16475705792E+02 -0.77593722403E+02  0.10236487110E+03  0.00000000000E+00 0. -1.
          1    1    1    2  502    0  0.18842718719E+02 -0.16009173807E+02  0.11718317524E+04  0.11720925722E+04  0.00000000000E+00 0. -1.
         22    1    3    3    0    0 -0.10670773209E+03 -0.69471203523E+01  0.95620069309E+03  0.96216140435E+03  0.00000000000E+00 0.  1.
         22    1    3    3    0    0  0.23163141696E+02  0.39431999952E+02  0.53521520779E+03  0.53716546092E+03  0.00000000000E+00 0.  1.
</event>
<event>
 7    1  0.6443388E-006  0.6107837E+02  0.7818608E-02  0.1498576E+00
          2   -1    0    0  502    0  0.00000000000E+00  0.00000000000E+00  0.92934702203E+03  0.92934702203E+03  0.00000000000E+00 0. -1.
          1   -1    0    0  501    0 -0.00000000000E+00 -0.00000000000E+00 -0.11528998383E+03  0.11528998383E+03  0.00000000000E+00 0. -1.
         25    2    1    2    0    0 -0.50148072385E+02  0.65071905679E+02  0.15815746291E+03  0.21768735736E+03  0.12499928164E+03 0.  0.
          2    1    1    2  501    0  0.26243108398E+02 -0.97055356039E+01 -0.81972965141E+02  0.86616771897E+02  0.00000000000E+00 0. -1.
          1    1    1    2  502    0  0.23904963987E+02 -0.55366370075E+02  0.73787254044E+03  0.74033287660E+03  0.00000000000E+00 0. -1.
         22    1    3    3    0    0 -0.16548917692E+02 -0.36545894924E+02  0.61766063080E+02  0.73651311333E+02  0.00000000000E+00 0. -1.
         22    1    3    3    0    0 -0.33599154694E+02  0.10161780060E+03  0.96391399825E+02  0.14403604603E+03  0.00000000000E+00 0. -1.
</event>
<event>
 7    1  0.6443388E-006  0.9284682E+02  0.7818608E-02  0.1308972E+00
          2   -1    0    0  502    0  0.00000000000E+00  0.00000000000E+00  0.78811932412E+03  0.78811932412E+03  0.00000000000E+00 0. -1.
          1   -1    0    0  501    0 -0.00000000000E+00 -0.00000000000E+00 -0.40308446599E+03  0.40308446599E+03  0.00000000000E+00 0. -1.
         25    2    1    2    0    0  0.26952392964E+02  0.27115974600E+02 -0.14465986449E+02  0.13151491530E+03  0.12500080247E+03 0.  0.
          2    1    1    2  501    0 -0.10170227934E+03  0.77898349360E+01 -0.31979997928E+03  0.33567255160E+03  0.00000000000E+00 0. -1.
          1    1    1    2  502    0  0.74749886375E+02 -0.34905809536E+02  0.71930082386E+03  0.72401632320E+03  0.00000000000E+00 0. -1.
         22    1    3    3    0    0  0.75955332217E+02  0.31431710861E+01 -0.11463246588E+02  0.76879763521E+02  0.00000000000E+00 0.  1.
         22    1    3    3    0    0 -0.49002939252E+02  0.23972803514E+02 -0.30027398603E+01  0.54635151783E+02  0.00000000000E+00 0.  1.
</event>
<event>
 7    1  0.6443388E-006  0.7595082E+02  0.7818608E-02  0.1373485E+00
          2   -1    0    0  502    0  0.00000000000E+00  0.00000000000E+00  0.16545719844E+04  0.16545719844E+04  0.00000000000E+00 0. -1.
          1   -1    0    0  501    0 -0.00000000000E+00 -0.00000000000E+00 -0.24796824538E+02  0.24796824538E+02  0.00000000000E+00 0. -1.
         25    2    1    2    0    0  0.32072983843E+02  0.25770775510E+02  0.95394978662E+03  0.96298451583E+03  0.12500469260E+03 0.  0.
          2    1    1    2  501    0  0.36561034966E+02 -0.66571901747E+02  0.63854806767E+02  0.99226829675E+02  0.00000000000E+00 0. -1.
          1    1    1    2  502    0 -0.68634018809E+02  0.40801126237E+02  0.61197056648E+03  0.61715746344E+03  0.00000000000E+00 0. -1.
         22    1    3    3    0    0 -0.20305050546E+02 -0.36942387958E+02  0.18689978482E+03  0.19159479292E+03  0.00000000000E+00 0.  1.
         22    1    3    3    0    0  0.52378034389E+02  0.62713163468E+02  0.76705000180E+03  0.77138972291E+03  0.00000000000E+00 0.  1.
</event>
<event>
 7    1  0.6443388E-006  0.7750698E+02  0.7818608E-02  0.1388673E+00
          2   -1    0    0  502    0  0.00000000000E+00  0.00000000000E+00  0.12016648958E+03  0.12016648958E+03  0.00000000000E+00 0. -1.
          1   -1    0    0  501    0 -0.00000000000E+00 -0.00000000000E+00 -0.26160506926E+04  0.26160506926E+04  0.00000000000E+00 0. -1.
         25    2    1    2    0    0 -0.45586320785E+02 -0.43897279092E+02 -0.29465417891E+03  0.32628642158E+03  0.12504663133E+03 0.  0.
          2    1    1    2  501    0 -0.33011809482E+02  0.37522145532E+02 -0.22903711082E+04  0.22909163023E+04  0.00000000000E+00 0. -1.
          1    1    1    2  502    0  0.78598130267E+02  0.63751335603E+01  0.89141084085E+02  0.11901445829E+03  0.00000000000E+00 0. -1.
         22    1    3    3    0    0 -0.67266855439E+02  0.17509230187E+02 -0.10644661988E+03  0.12713097917E+03  0.00000000000E+00 0. -1.
         22    1    3    3    0    0  0.21680534654E+02 -0.61406509279E+02 -0.18820755903E+03  0.19915544241E+03  0.00000000000E+00 0. -1.
</event>
<event>
 7    1  0.6443388E-006  0.7988116E+02  0.7818608E-02  0.1340602E+00
          2   -1    0    0  502    0  0.00000000000E+00  0.00000000000E+00  0.11269846989E+04  0.11269846989E+04  0.00000000000E+00 0. -1.
          1   -1    0    0  501    0 -0.00000000000E+00 -0.00000000000E+00 -0.17961481302E+03  0.17961481302E+03  0.00000000000E+00 0. -1.
         25    2    1    2    0    0  0.57196635204E+02  0.70989672080E+02  0.21366722890E+03  0.26379837455E+03  0.12499963636E+03 0.  0.
          2    1    1    2  501    0  0.24012164863E+02 -0.68336954846E+02 -0.14408186190E+03  0.16126408896E+03  0.00000000000E+00 0. -1.
          1    1    1    2  502    0 -0.81208800067E+02 -0.26527172337E+01  0.87778451891E+03  0.88153704843E+03  0.00000000000E+00 0. -1.
         22    1    3    3    0    0 -0.14850544317E+02  0.78643291633E+02  0.13426312370E+03  0.15630704517E+03  0.00000000000E+00 0.  1.
         22    1    3    3    0    0  0.72047179520E+02 -0.76536195533E+01  0.79404105202E+02  0.10749132938E+03  0.00000000000E+00 0.  1.
</event>
<event>
 7    1  0.6443388E-006  0.9915503E+02  0.7818608E-02  0.1448203E+00
          2   -1    0    0  502    0  0.00000000000E+00  0.00000000000E+00  0.11886875905E+03  0.11886875905E+03  0.00000000000E+00 0. -1.
          1   -1    0    0  501    0 -0.00000000000E+00 -0.00000000000E+00 -0.39677052902E+03  0.39677052902E+03  0.00000000000E+00 0. -1.
         25    2    1    2    0    0 -0.11518144969E+03 -0.12822229691E+02 -0.15075309404E+03  0.22755707705E+03  0.12499820809E+03 0.  0.
          2    1    1    2  501    0  0.21659411900E+02 -0.11840777510E+02 -0.17738512183E+03  0.17909443202E+03  0.00000000000E+00 0. -1.
          1    1    1    2  502    0  0.93522037789E+02  0.24663007201E+02  0.50236445897E+02  0.10898777901E+03  0.00000000000E+00 0. -1.
         22    1    3    3    0    0 -0.44178004139E+02 -0.50424697728E+02 -0.12727457999E+03  0.14385119013E+03  0.00000000000E+00 0.  1.
         22    1    3    3    0    0 -0.71003445549E+02  0.37602468037E+02 -0.23478514053E+02  0.83705886916E+02  0.00000000000E+00 0.  1.
</event>
<event>
 7    1  0.6443388E-006  0.9525155E+02  0.7818608E-02  0.1322480E+00
          2   -1    0    0  502    0  0.00000000000E+00  0.00000000000E+00  0.20485461834E+04  0.20485461834E+04  0.00000000000E+00 0. -1.
          1   -1    0    0  501    0 -0.00000000000E+00 -0.00000000000E+00 -0.24441241910E+03  0.24441241910E+03  0.00000000000E+00 0. -1.
         25    2    1    2    0    0  0.46879663413E+02 -0.12843781409E+02 -0.10792361409E+02  0.13455323675E+03  0.12500173156E+03 0.  0.
          2    1    1    2  501    0 -0.79539852570E+02  0.76129259405E+02 -0.15338297327E+03  0.18880833873E+03  0.00000000000E+00 0. -1.
          1    1    1    2  502    0  0.32660189157E+02 -0.63285477995E+02  0.19683090990E+04  0.19695970270E+04  0.00000000000E+00 0. -1.
         22    1    3    3    0    0  0.72156519396E+02 -0.36228242938E+02 -0.39348457628E+02  0.89818427928E+02  0.00000000000E+00 0.  1.
         22    1    3    3    0    0 -0.25276855984E+02  0.23384461529E+02  0.28556096219E+02  0.44734808826E+02  0.00000000000E+00 0.  1.
</event>
<event>
 7    1  0.6443388E-006  0.7541029E+02  0.7818608E-02  0.1418360E+00
          2   -1    0    0  502    0  0.00000000000E+00  0.00000000000E+00  0.44459773119E+03  0.44459773119E+03  0.00000000000E+00 0. -1.
          1   -1    0    0  501    0 -0.00000000000E+00 -0.00000000000E+00 -0.38725015840E+03  0.38725015840E+03  0.00000000000E+00 0. -1.
         25    2    1    2    0    0 -0.12890031403E+02 -0.79100920792E+02  0.30018647722E+03  0.33490257743E+03  0.12499882672E+03 0.  0.
          2    1    1    2  501    0  0.47861337630E+02  0.58369301228E+02 -0.36265117592E+03  0.37042348516E+03  0.00000000000E+00 0. -1.
          1    1    1    2  502    0 -0.34971306227E+02  0.20731619564E+02  0.11981227148E+03  0.12652182700E+03  0.00000000000E+00 0. -1.
         22    1    3    3    0    0 -0.52275054443E+02  0.48063281109E+01  0.76576088363E+02  0.92842228624E+02  0.00000000000E+00 0. -1.
         22    1    3    3    0    0  0.39385023039E+02 -0.83907248903E+02  0.22361038886E+03  0.24206034881E+03  0.00000000000E+00 0. -1.
</event>
<event>
 7    1  0.6443388E-006  0.1078841E+03  0.7818608E-02  0.1314803E+00
          2   -1    0    0  502    0  0.00000000000E+00  0.00000000000E+00  0.54323682360E+03  0.54323682360E+03  0.00000000000E+00 0. -1.
          1   -1    0    0  501    0 -0.00000000000E+00 -0.00000000000E+00 -0.28465843615E+03  0.28465843615E+03  0.00000000000E+00 0. -1.
         25    2    1    2    0    0 -0.12200822844E+02  0.12993790354E+03  0.34483164480E+03  0.38931544635E+03  0.12499973861E+03 0.  0.
          2    1    1    2  501    0 -0.46620177657E+02 -0.97132821147E+02 -0.24417885346E+03  0.26689237228E+03  0.00000000000E+00 0. -1.
          1    1    1    2  502    0  0.58821000501E+02 -0.32805082398E+02  0.15792559611E+03  0.17168744112E+03  0.00000000000E+00 0. -1.
         22    1    3    3    0    0 -0.43851862176E+02  0.14060893791E+03  0.27857232958E+03  0.31511331620E+03  0.00000000000E+00 0. -1.
         22    1    3    3    0    0  0.31651039332E+02 -0.10671034370E+02  0.66259315217E+02  0.74202130147E+02  0.00000000000E+00 0. -1.
</event>
<event>
 7    1  0.6443388E-006  0.5058492E+02  0.7818608E-02  0.1479191E+00
          2   -1    0    0  502    0  0.00000000000E+00  0.00000000000E+00  0.45180216515E+02  0.45180216515E+02  0.00000000000E+00 0. -1.
          1   -1    0    0  501    0 -0.00000000000E+00 -0.00000000000E+00 -0.76722663437E+03  0.76722663437E+03  0.00000000000E+00 0. -1.
         25    2    1    2    0    0 -0.12420804312E+02  0.10590792360E+02 -0.20366351930E+03  0.23951922208E+03  0.12499674951E+03 0.  0.
          2    1    1    2  501    0 -0.30384194240E+02  0.23932363813E+02 -0.51641404691E+03  0.51786043017E+03  0.00000000000E+00 0. -1.
          1    1    1    2  502    0  0.42804998552E+02 -0.34523156174E+02 -0.19688516518E+01  0.55027198639E+02  0.00000000000E+00 0. -1.
         22    1    3    3    0    0 -0.36055158932E+02 -0.42975432680E+02 -0.14981493783E+03  0.15997305366E+03  0.00000000000E+00 0.  1.
         22    1    3    3    0    0  0.23634354620E+02  0.53566225040E+02 -0.53848581466E+02  0.79546168413E+02  0.00000000000E+00 0.  1.
</event>
<event>
 7    1  0.6443388E-006  0.2848168E+03  0.7818608E-02  0.1293973E+00
          2   -1    0    0  502    0  0.00000000000E+00  0.00000000000E+00  0.58111581246E+03  0.58111581246E+03  0.00000000000E+00 0. -1.
          1   -1    0    0  501    0 -0.00000000000E+00 -0.00000000000E+00 -0.14622643291E+04  0.14622643291E+04  0.00000000000E+00 0. -1.
         25    2    1    2    0    0  0.29166546117E+03  0.95517208848E+02 -0.47919563550E+03  0.58261747588E+03  0.12498955034E+03 0.  0.
          2    1    1    2  501    0 -0.26280724590E+03 -0.84552119941E+02 -0.91042084277E+03  0.95135840798E+03  0.00000000000E+00 0. -1.
          1    1    1    2  502    0 -0.28858215272E+02 -0.10965088907E+02  0.50846796163E+03  0.50940425770E+03  0.00000000000E+00 0. -1.
         22    1    3    3    0    0  0.39417401011E+01  0.56504622776E+01 -0.90385388121E+02  0.90647578152E+02  0.00000000000E+00 0.  1.
         22    1    3    3    0    0  0.28772372107E+03  0.89866746571E+02 -0.38881024737E+03  0.49196989773E+03  0.00000000000E+00 0.  1.
</event>
<event>
 7    1  0.6443388E-006  0.1652031E+03  0.7818608E-02  0.1286591E+00
          2   -1    0    0  502    0  0.00000000000E+00  0.00000000000E+00  0.24817003937E+04  0.24817003937E+04  0.00000000000E+00 0. -1.
          1   -1    0    0  501    0 -0.00000000000E+00 -0.00000000000E+00 -0.24274378923E+03  0.24274378923E+03  0.00000000000E+00 0. -1.
         25    2    1    2    0    0 -0.13115489509E+03 -0.54995946432E+02  0.29361636688E+03  0.34937397219E+03  0.12500176365E+03 0.  0.
          2    1    1    2  501    0  0.12580402747E+03  0.11177552527E+03 -0.18147258609E+03  0.24749287036E+03  0.00000000000E+00 0. -1.
          1    1    1    2  502    0  0.53508676208E+01 -0.56779578842E+02  0.21268128237E+04  0.21275773404E+04  0.00000000000E+00 0. -1.
         22    1    3    3    0    0 -0.11905122751E+03 -0.66401285119E+02  0.30156320756E+03  0.33094213027E+03  0.00000000000E+00 0. -1.
         22    1    3    3    0    0 -0.12103667580E+02  0.11405338686E+02 -0.79468406837E+01  0.18431841913E+02  0.00000000000E+00 0. -1.
</event>
<event>
 7    1  0.6443388E-006  0.2709648E+03  0.7818608E-02  0.1283371E+00
          2   -1    0    0  502    0  0.00000000000E+00  0.00000000000E+00  0.63812508748E+03  0.63812508748E+03  0.00000000000E+00 0. -1.
          1   -1    0    0  501    0 -0.00000000000E+00 -0.00000000000E+00 -0.84011499445E+03  0.84011499445E+03  0.00000000000E+00 0. -1.
         25    2    1    2    0    0 -0.27475642259E+03 -0.12065434089E+03 -0.71284966331E+02  0.33279709677E+03  0.12499519777E+03 0.  0.
          2    1    1    2  501    0  0.24493235949E+03  0.10077191966E+03 -0.60989192154E+03  0.66491728544E+03  0.00000000000E+00 0. -1.
          1    1    1    2  502    0  0.29824063100E+02  0.19882421228E+02  0.47918698091E+03  0.48052569971E+03  0.00000000000E+00 0. -1.
         22    1    3    3    0    0 -0.56789026694E+02 -0.76877182555E+02 -0.54068946412E+02  0.10981140977E+03  0.00000000000E+00 0.  1.
         22    1    3    3    0    0 -0.21796739589E+03 -0.43777158336E+02 -0.17216019919E+02  0.22298568700E+03  0.00000000000E+00 0.  1.
</event>
<event>
 7    1  0.6443388E-006  0.7245831E+02  0.7818608E-02  0.1504847E+00
          2   -1    0    0  502    0  0.00000000000E+00  0.00000000000E+00  0.23143602627E+04  0.23143602627E+04  0.00000000000E+00 0. -1.
          1   -1    0    0  501    0 -0.00000000000E+00 -0.00000000000E+00 -0.55703714190E+02  0.55703714190E+02  0.00000000000E+00 0. -1.
         25    2    1    2    0    0 -0.39081939870E+02  0.72491807742E+02  0.18512462761E+03  0.23807184690E+03  0.12499846529E+03 0.  0.
          2    1    1    2  501    0 -0.10582119714E+02 -0.19961999533E+02 -0.24146548677E+02  0.33068391191E+02  0.00000000000E+00 0. -1.
          1    1    1    2  502    0  0.49664059584E+02 -0.52529808210E+02  0.20976784696E+04  0.20989237388E+04  0.00000000000E+00 0. -1.
         22    1    3    3    0    0 -0.57175255074E+02  0.82860509542E+02  0.19142840504E+03  0.21628617175E+03  0.00000000000E+00 0. -1.
         22    1    3    3    0    0  0.18093315203E+02 -0.10368701799E+02 -0.63037774265E+01  0.21785675154E+02  0.00000000000E+00 0. -1.
</event>
<event>
 7    1  0.6443388E-006  0.1047186E+03  0.7818608E-02  0.1344993E+00
          2   -1    0    0  502    0  0.00000000000E+00  0.00000000000E+00  0.72790188178E+02  0.72790188178E+02  0.00000000000E+00 0. -1.
          1   -1    0    0  501    0 -0.00000000000E+00 -0.00000000000E+00 -0.14135295261E+04  0.14135295261E+04  0.00000000000E+00 0. -1.
         25    2    1    2    0    0 -0.55851935282E+01 -0.60935721088E+02 -0.32781327329E+03  0.35613154674E+03  0.12499511970E+03 0.  0.
          2    1    1    2  501    0 -0.26551662092E+02 -0.46099775835E+02 -0.10169686731E+04  0.10183592010E+04  0.00000000000E+00 0. -1.
          1    1    1    2  502    0  0.32136855621E+02  0.10703549692E+03  0.40426084408E+01  0.11182896661E+03  0.00000000000E+00 0. -1.
         22    1    3    3    0    0 -0.24970352288E+02 -0.35322554975E+02 -0.21805681584E+02  0.48442637549E+02  0.00000000000E+00 0. -1.
         22    1    3    3    0    0  0.19385158760E+02 -0.25613166112E+02 -0.30600759171E+03  0.30768890919E+03  0.00000000000E+00 0. -1.
</event>
<event>
 7    1  0.6443388E-006  0.4722415E+02  0.7818608E-02  0.1505519E+00
          2   -1    0    0  502    0  0.00000000000E+00  0.00000000000E+00  0.73856850296E+03  0.73856850296E+03  0.00000000000E+00 0. -1.
          1   -1    0    0  501    0 -0.00000000000E+00 -0.00000000000E+00 -0.68584481236E+03  0.68584481236E+03  0.00000000000E+00 0. -1.
         25    2    1    2    0    0  0.17323720047E+02 -0.19240094370E+02  0.52709711411E+02  0.13809005488E+03  0.12498102685E+03 0.  0.
          2    1    1    2  501    0 -0.47430628798E+02  0.23771523405E+01 -0.64181385609E+03  0.64356844334E+03  0.00000000000E+00 0. -1.
          1    1    1    2  502    0  0.30106908751E+02  0.16862942030E+02  0.64182783528E+03  0.64275481710E+03  0.00000000000E+00 0. -1.
         22    1    3    3    0    0 -0.25812602425E+02  0.18608717308E+02 -0.25714136005E+02  0.40911998170E+02  0.00000000000E+00 0. -1.
         22    1    3    3    0    0  0.43136322471E+02 -0.37848811679E+02  0.78423847416E+02  0.97178056707E+02  0.00000000000E+00 0. -1.
</event>
<event>
 7    1  0.6443388E-006  0.4203918E+02  0.7818608E-02  0.1519030E+00
          2   -1    0    0  502    0  0.00000000000E+00  0.00000000000E+00  0.47063295916E+03  0.47063295916E+03  0.00000000000E+00 0. -1.
          1   -1    0    0  501    0 -0.00000000000E+00 -0.00000000000E+00 -0.23050555384E+03  0.23050555384E+03  0.00000000000E+00 0. -1.
         25    2    1    2    0    0 -0.15534118766E+02  0.71015913249E+02  0.33118117944E+03  0.36137345457E+03  0.12500092506E+03 0.  0.
          2    1    1    2  501    0 -0.42229786759E+01 -0.41664596970E+02 -0.21079050397E+03  0.21491023417E+03  0.00000000000E+00 0. -1.
          1    1    1    2  502    0  0.19757097442E+02 -0.29351316278E+02  0.11973672984E+03  0.12485482426E+03  0.00000000000E+00 0. -1.
         22    1    3    3    0    0  0.34419787567E+02  0.85501721251E+02  0.22467311771E+03  0.24284413918E+03  0.00000000000E+00 0. -1.
         22    1    3    3    0    0 -0.49953906332E+02 -0.14485808002E+02  0.10650806173E+03  0.11852931538E+03  0.00000000000E+00 0. -1.
</event>
<event>
 7    1  0.6443388E-006  0.2205375E+03  0.7818608E-02  0.1133569E+00
          2   -1    0    0  502    0  0.00000000000E+00  0.00000000000E+00  0.12488323883E+04  0.12488323883E+04  0.00000000000E+00 0. -1.
          1   -1    0    0  501    0 -0.00000000000E+00 -0.00000000000E+00 -0.45039395534E+03  0.45039395534E+03  0.00000000000E+00 0. -1.
         25    2    1    2    0    0 -0.90115844640E+01 -0.13938482940E+03  0.26083237887E+03  0.32119734896E+03  0.12499947115E+03 0.  0.
          2    1    1    2  501    0  0.22313933724E+03  0.86601166309E+02 -0.37184444418E+03  0.44222077800E+03  0.00000000000E+00 0. -1.
          1    1    1    2  502    0 -0.21412775277E+03  0.52783663093E+02  0.90945049828E+03  0.93580821669E+03  0.00000000000E+00 0. -1.
         22    1    3    3    0    0 -0.19863988061E+02 -0.72872193566E+02  0.23854221949E+03  0.25021455812E+03  0.00000000000E+00 0.  1.
         22    1    3    3    0    0  0.10852403597E+02 -0.66512635836E+02  0.22290159382E+02  0.70982790837E+02  0.00000000000E+00 0.  1.
</event>
<event>
 7    1  0.6443388E-006  0.1692904E+03  0.7818608E-02  0.1185580E+00
          2   -1    0    0  502    0  0.00000000000E+00  0.00000000000E+00  0.16207303123E+04  0.16207303123E+04  0.00000000000E+00 0. -1.
          1   -1    0    0  501    0 -0.00000000000E+00 -0.00000000000E+00 -0.39500407947E+03  0.39500407947E+03  0.00000000000E+00 0. -1.
         25    2    1    2    0    0  0.14633807430E+02 -0.81790588782E+02 -0.28145003040E+03  0.31897102993E+03  0.12499819834E+03 0.  0.
          2    1    1    2  501    0  0.15149268043E+03  0.39443726179E+02 -0.21933960550E+02  0.15807257315E+03  0.00000000000E+00 0. -1.
          1    1    1    2  502    0 -0.16612648786E+03  0.42346862603E+02  0.15291102238E+04  0.15386907887E+04  0.00000000000E+00 0. -1.
         22    1    3    3    0    0 -0.18184794006E+02 -0.16631849801E+02 -0.22598438055E+03  0.22732409774E+03  0.00000000000E+00 0.  1.
         22    1    3    3    0    0  0.32818601436E+02 -0.65158738980E+02 -0.55465649842E+02  0.91646932181E+02  0.00000000000E+00 0.  1.
</event>
<event>
 7    1  0.6443388E-006  0.2275863E+03  0.7818608E-02  0.1234848E+00
          2   -1    0    0  502    0  0.00000000000E+00  0.00000000000E+00  0.63092047762E+03  0.63092047762E+03  0.00000000000E+00 0. -1.
          1   -1    0    0  501    0 -0.00000000000E+00 -0.00000000000E+00 -0.21378918480E+04  0.21378918480E+04  0.00000000000E+00 0. -1.
         25    2    1    2    0    0 -0.11427398943E+03 -0.16399201858E+03 -0.58621331260E+03  0.63184088018E+03  0.12499969275E+03 0.  0.
          2    1    1    2  501    0  0.18275482429E+03  0.15726145403E+03 -0.15173694050E+04  0.15364050254E+04  0.00000000000E+00 0. -1.
          1    1    1    2  502    0 -0.68480834865E+02  0.67305645479E+01  0.59661134724E+03  0.60056642006E+03  0.00000000000E+00 0. -1.
         22    1    3    3    0    0 -0.72936727966E+02 -0.39056354333E+02 -0.36658271801E+03  0.37580321213E+03  0.00000000000E+00 0.  1.
         22    1    3    3    0    0 -0.41337261461E+02 -0.12493566424E+03 -0.21963059459E+03  0.25603766805E+03  0.00000000000E+00 0.  1.
</event>
<event>
 7    1  0.6443388E-006  0.2165538E+03  0.7818608E-02  0.1191040E+00
          2   -1    0    0  502    0  0.00000000000E+00  0.00000000000E+00  0.44298870655E+03  0.44298870655E+03  0.00000000000E+00 0. -1.
          1   -1    0    0  501    0 -0.00000000000E+00 -0.00000000000E+00 -0.12083811593E+04  0.12083811593E+04  0.00000000000E+00 0. -1.
         25    2    1    2    0    0  0.18362832814E+03 -0.95595169832E+02 -0.10643437583E+03  0.26421977297E+03  0.12500405066E+03 0.  0.
          2    1    1    2  501    0 -0.11633654305E+03  0.18909059241E+03 -0.10014713545E+04  0.10257847324E+04  0.00000000000E+00 0. -1.
          1    1    1    2  502    0 -0.67291785092E+02 -0.93495422574E+02  0.34251327760E+03  0.36136536043E+03  0.00000000000E+00 0. -1.
         22    1    3    3    0    0  0.10974403746E+03 -0.68677610230E+02  0.29600446350E+01  0.12949567471E+03  0.00000000000E+00 0. -1.
         22    1    3    3    0    0  0.73884290680E+02 -0.26917559602E+02 -0.10939442046E+03  0.13472409826E+03  0.00000000000E+00 0. -1.
</event>
<event>
 7    1  0.6443388E-006  0.6059131E+02  0.7818608E-02  0.1547605E+00
          2   -1    0    0  502    0  0.00000000000E+00  0.00000000000E+00  0.22244172647E+04  0.22244172647E+04  0.00000000000E+00 0. -1.
          1   -1    0    0  501    0 -0.00000000000E+00 -0.00000000000E+00 -0.42872032273E+02  0.42872032273E+02  0.00000000000E+00 0. -1.
         25    2    1    2    0    0 -0.69947575946E+02  0.28350454309E+02  0.70601482530E+03  0.72095709245E+03  0.12500313585E+03 0.  0.
          2    1    1    2  501    0  0.11574962239E+02 -0.16734334278E+02 -0.31840531276E+02  0.37786732149E+02  0.00000000000E+00 0. -1.
          1    1    1    2  502    0  0.58372613707E+02 -0.11616120031E+02  0.15073709383E+04  0.15085454723E+04  0.00000000000E+00 0. -1.
         22    1    3    3    0    0  0.14578689746E+01  0.26454351729E+02  0.53458131524E+03  0.53523746198E+03  0.00000000000E+00 0. -1.
         22    1    3    3    0    0 -0.71405444921E+02  0.18961025802E+01  0.17143351007E+03  0.18571963047E+03  0.00000000000E+00 0. -1.
</event>
<event>
 7    1  0.6443388E-006  0.1534401E+03  0.7818608E-02  0.1315729E+00
          2   -1    0    0  502    0  0.00000000000E+00  0.00000000000E+00  0.14360488184E+04  0.14360488184E+04  0.00000000000E+00 0. -1.
          1   -1    0    0  501    0 -0.00000000000E+00 -0.00000000000E+00 -0.14977803911E+04  0.14977803911E+04  0.00000000000E+00 0. -1.
         25    2    1    2    0    0 -0.16737614120E+03 -0.38243468950E+02  0.13903452471E+03  0.25383673424E+03  0.12500061211E+03 0.  0.
          2    1    1    2  501    0  0.15304786409E+03 -0.64786109651E+01 -0.14358589692E+04  0.14440071331E+04  0.00000000000E+00 0. -1.
          1    1    1    2  502    0  0.14328277107E+02  0.44722079915E+02  0.12350928718E+04  0.12359853421E+04  0.00000000000E+00 0. -1.
         22    1    3    3    0    0 -0.15296241983E+02  0.81771586292E+01 -0.21674602814E+02  0.27760211620E+02  0.00000000000E+00 0. -1.
         22    1    3    3    0    0 -0.15207989922E+03 -0.46420627579E+02  0.16070912752E+03  0.22607652262E+03  0.00000000000E+00 0. -1.
</event>
<event>
 7    1  0.6443388E-006  0.9002707E+02  0.7818608E-02  0.1352273E+00
          2   -1    0    0  502    0  0.00000000000E+00  0.00000000000E+00  0.15631717188E+03  0.15631717188E+03  0.00000000000E+00 0. -1.
          1   -1    0    0  501    0 -0.00000000000E+00 -0.00000000000E+00 -0.72821485361E+03  0.72821485361E+03  0.00000000000E+00 0. -1.
         25    2    1    2    0    0  0.63314054445E+02  0.90460337679E+02 -0.88017980484E+02  0.18858477501E+03  0.12500124117E+03 0.  0.
          2    1    1    2  501    0 -0.82341560105E+02 -0.35514559640E+02 -0.57821701064E+03  0.58512932575E+03  0.00000000000E+00 0. -1.
          1    1    1    2  502    0  0.19027505661E+02 -0.54945778038E+02  0.94337309391E+02  0.11081792472E+03  0.00000000000E+00 0. -1.
         22    1    3    3    0    0  0.86156751703E+01  0.79494294757E+02 -0.10340575136E+03  0.13071465936E+03  0.00000000000E+00 0. -1.
         22    1    3    3    0    0  0.54698379274E+02  0.10966042922E+02  0.15387770877E+02  0.57870115649E+02  0.00000000000E+00 0. -1.
</event>
<event>
 7    1  0.6443388E-006  0.7597181E+02  0.7818608E-02  0.1375929E+00
          2   -1    0    0  502    0  0.00000000000E+00  0.00000000000E+00  0.83560446351E+03  0.83560446351E+03  0.00000000000E+00 0. -1.
          1   -1    0    0  501    0 -0.00000000000E+00 -0.00000000000E+00 -0.10986019777E+04  0.10986019777E+04  0.00000000000E+00 0. -1.
         25    2    1    2    0    0  0.35247780030E+02  0.21150914638E+01  0.21938068106E+02  0.13171186423E+03  0.12497942526E+03 0.  0.
          2    1    1    2  501    0 -0.59151137700E+02  0.49135686362E+02 -0.10412416270E+04  0.10440772474E+04  0.00000000000E+00 0. -1.
          1    1    1    2  502    0  0.23903357670E+02 -0.51250777826E+02  0.75630604464E+03  0.75841732964E+03  0.00000000000E+00 0. -1.
         22    1    3    3    0    0  0.81059757834E+02  0.14197972341E+02  0.10398049575E+02  0.82948093370E+02  0.00000000000E+00 0.  1.
         22    1    3    3    0    0 -0.45811977804E+02 -0.12082880878E+02  0.11540018531E+02  0.48763770858E+02  0.00000000000E+00 0.  1.
</event>
<event>
 7    1  0.6443388E-006  0.4474345E+03  0.7818608E-02  0.1068236E+00
          2   -1    0    0  502    0  0.00000000000E+00  0.00000000000E+00  0.14101090923E+04  0.14101090923E+04  0.00000000000E+00 0. -1.
          1   -1    0    0  501    0 -0.00000000000E+00 -0.00000000000E+00 -0.72895179778E+03  0.72895179778E+03  0.00000000000E+00 0. -1.
         25    2    1    2    0    0 -0.25706106266E+03  0.60853919758E+03  0.52852985088E+03  0.85520145106E+03  0.12500149477E+03 0.  0.
          2    1    1    2  501    0  0.98156569701E+02 -0.41130584489E+03 -0.45765725448E+03  0.62310301941E+03  0.00000000000E+00 0. -1.
          1    1    1    2  502    0  0.15890449296E+03 -0.19723335269E+03  0.61028469813E+03  0.66075641962E+03  0.00000000000E+00 0. -1.
         22    1    3    3    0    0 -0.22085739387E+03  0.39687448329E+03  0.31776626262E+03  0.55431285532E+03  0.00000000000E+00 0.  1.
         22    1    3    3    0    0 -0.36203668789E+02  0.21166471429E+03  0.21076358825E+03  0.30088859574E+03  0.00000000000E+00 0.  1.
</event>
<event>
 7    1  0.6443388E-006  0.1101959E+03  0.7818608E-02  0.1331015E+00
          2   -1    0    0  502    0  0.00000000000E+00  0.00000000000E+00  0.38629617197E+03  0.38629617197E+03  0.00000000000E+00 0. -1.
          1   -1    0    0  501    0 -0.00000000000E+00 -0.00000000000E+00 -0.19794955385E+04  0.19794955385E+04  0.00000000000E+00 0. -1.
         25    2    1    2    0    0 -0.66416616072E+02  0.58511230199E+01 -0.10538183042E+04  0.10632984900E+04  0.12500103204E+03 0.  0.
          2    1    1    2  501    0 -0.29751378913E+02  0.48717908878E+02 -0.91201534091E+03  0.91380006634E+03  0.00000000000E+00 0. -1.
          1    1    1    2  502    0  0.96167994985E+02 -0.54569031898E+02  0.37263427858E+03  0.38869315414E+03  0.00000000000E+00 0. -1.
         22    1    3    3    0    0 -0.54840537266E+02 -0.43904433109E+02 -0.31603175385E+03  0.32374550686E+03  0.00000000000E+00 0. -1.
         22    1    3    3    0    0 -0.11576078806E+02  0.49755556129E+02 -0.73778655039E+03  0.73955298316E+03  0.00000000000E+00 0. -1.
</event>
<event>
 7    1  0.6443388E-006  0.1883168E+03  0.7818608E-02  0.1279369E+00
          2   -1    0    0  502    0  0.00000000000E+00  0.00000000000E+00  0.39959598256E+03  0.39959598256E+03  0.00000000000E+00 0. -1.
          1   -1    0    0  501    0 -0.00000000000E+00 -0.00000000000E+00 -0.19643150855E+04  0.19643150855E+04  0.00000000000E+00 0. -1.
         25    2    1    2    0    0 -0.18994421028E+03 -0.13240861624E+03  0.79456445506E+02  0.27486166116E+03  0.12499904546E+03 0.  0.
          2    1    1    2  501    0  0.13654493285E+03  0.12810585415E+03 -0.18586137794E+04  0.18680205592E+04  0.00000000000E+00 0. -1.
          1    1    1    2  502    0  0.53399277435E+02  0.43027620876E+01  0.21443823099E+03  0.22102884767E+03  0.00000000000E+00 0. -1.
         22    1    3    3    0    0 -0.19461201671E+02 -0.51836392305E+02 -0.23352078601E+02  0.60092175137E+02  0.00000000000E+00 0. -1.
         22    1    3    3    0    0 -0.17048300861E+03 -0.80572223937E+02  0.10280852411E+03  0.21476948602E+03  0.00000000000E+00 0. -1.
</event>
<event>
 7    1  0.6443388E-006  0.9250841E+02  0.7818608E-02  0.1306786E+00
          2   -1    0    0  502    0  0.00000000000E+00  0.00000000000E+00  0.90725296476E+03  0.90725296476E+03  0.00000000000E+00 0. -1.
          1   -1    0    0  501    0 -0.00000000000E+00 -0.00000000000E+00 -0.10839921630E+04  0.10839921630E+04  0.00000000000E+00 0. -1.
         25    2    1    2    0    0  0.86139742815E+02 -0.31735273541E+02  0.39521493058E+03  0.42455485432E+03  0.12499920038E+03 0.  0.
          2    1    1    2  501    0 -0.76613072855E+02 -0.52190037073E+02 -0.10637057687E+04  0.10677374795E+04  0.00000000000E+00 0. -1.
          1    1    1    2  502    0 -0.95266699598E+01  0.83925310614E+02  0.49175163987E+03  0.49895279388E+03  0.00000000000E+00 0. -1.
         22    1    3    3    0    0  0.40958063256E+02 -0.74391550020E+02  0.29182159101E+03  0.30392681132E+03  0.00000000000E+00 0. -1.
         22    1    3    3    0    0  0.45181679559E+02  0.42656276479E+02  0.10339333958E+03  0.12062804301E+03  0.00000000000E+00 0. -1.
</event>
<event>
 7    1  0.6443388E-006  0.7073098E+02  0.7818608E-02  0.1420192E+00
          2   -1    0    0  502    0  0.00000000000E+00  0.00000000000E+00  0.13742034671E+04  0.13742034671E+04  0.00000000000E+00 0. -1.
          1   -1    0    0  501    0 -0.00000000000E+00 -0.00000000000E+00 -0.44104324959E+02  0.44104324959E+02  0.00000000000E+00 0. -1.
         25    2    1    2    0    0  0.36890879954E+02 -0.39501282132E+01  0.25927170436E+03  0.29021830032E+03  0.12501321780E+03 0.  0.
          2    1    1    2  501    0 -0.72252300049E+02  0.27950665531E+02  0.25021585976E+02  0.81410775275E+02  0.00000000000E+00 0. -1.
          1    1    1    2  502    0  0.35361420096E+02 -0.24000537318E+02  0.10458058518E+04  0.10466787165E+04  0.00000000000E+00 0. -1.
         22    1    3    3    0    0  0.32831703281E+02  0.43974299857E+02  0.46051142963E+02  0.71640544082E+02  0.00000000000E+00 0.  1.
         22    1    3    3    0    0  0.40591766726E+01 -0.47924428070E+02  0.21322056139E+03  0.21857775624E+03  0.00000000000E+00 0.  1.
</event>
<event>
 7    1  0.6443388E-006  0.5188556E+02  0.7818608E-02  0.1445824E+00
          2   -1    0    0  502    0  0.00000000000E+00  0.00000000000E+00  0.12843523729E+03  0.12843523729E+03  0.00000000000E+00 0. -1.
          1   -1    0    0  501    0 -0.00000000000E+00 -0.00000000000E+00 -0.70478729024E+03  0.70478729024E+03  0.00000000000E+00 0. -1.
         25    2    1    2    0    0  0.11083955449E+02 -0.97382302902E+02 -0.17092714228E+03  0.23333891483E+03  0.12499917687E+03 0.  0.
          2    1    1    2  501    0 -0.45713576511E+01  0.49815203196E+02 -0.49538998307E+03  0.49790931615E+03  0.00000000000E+00 0. -1.
          1    1    1    2  502    0 -0.65125977982E+01  0.47567099705E+02  0.89965072401E+02  0.10197429655E+03  0.00000000000E+00 0. -1.
         22    1    3    3    0    0 -0.43469876172E+02 -0.92875810401E+02 -0.12647550958E+03  0.16282383368E+03  0.00000000000E+00 0. -1.
         22    1    3    3    0    0  0.54553831621E+02 -0.45064925011E+01 -0.44451632700E+02  0.70515081145E+02  0.00000000000E+00 0. -1.
</event>
<event>
 7    1  0.6443388E-006  0.8559143E+02  0.7818608E-02  0.1467034E+00
          2   -1    0    0  502    0  0.00000000000E+00  0.00000000000E+00  0.25918203760E+04  0.25918203760E+04  0.00000000000E+00 0. -1.
          1   -1    0    0  501    0 -0.00000000000E+00 -0.00000000000E+00 -0.36112242907E+02  0.36112242907E+02  0.00000000000E+00 0. -1.
         25    2    1    2    0    0  0.11793534828E+02 -0.89576327376E+02  0.13123819390E+04  0.13214134627E+04  0.12499671865E+03 0.  0.
          2    1    1    2  501    0  0.12631990991E+02  0.84591078304E+02  0.26646048268E+02  0.89583645903E+02  0.00000000000E+00 0. -1.
          1    1    1    2  502    0 -0.24425525819E+02  0.49852490719E+01  0.12166801459E+04  0.12169355104E+04  0.00000000000E+00 0. -1.
         22    1    3    3    0    0  0.43775523729E+02 -0.75711613237E+02  0.45532366855E+03  0.46364661974E+03  0.00000000000E+00 0.  1.
         22    1    3    3    0    0 -0.31981988901E+02 -0.13864714139E+02  0.85705827041E+03  0.85776684291E+03  0.00000000000E+00 0.  1.
</event>
<event>
 7    1  0.6443388E-006  0.5919731E+02  0.7818608E-02  0.1406476E+00
          2   -1    0    0  502    0  0.00000000000E+00  0.00000000000E+00  0.23495258781E+03  0.23495258781E+03  0.00000000000E+00 0. -1.
          1   -1    0    0  501    0 -0.00000000000E+00 -0.00000000000E+00 -0.31751434046E+04  0.31751434046E+04  0.00000000000E+00 0. -1.
         25    2    1    2    0    0 -0.72302017872E+00 -0.40474024623E+02 -0.44186160144E+02  0.13862033471E+03  0.12499804406E+03 0.  0.
          2    1    1    2  501    0  0.55416640889E+02  0.12471468826E+02 -0.30784433937E+04  0.30789674032E+04  0.00000000000E+00 0. -1.
          1    1    1    2  502    0 -0.54693620711E+02  0.28002555797E+02  0.18243873706E+03  0.19250825452E+03  0.00000000000E+00 0. -1.
         22    1    3    3    0    0  0.48561554421E+02 -0.36625157864E+02 -0.61253127999E+02  0.86322490963E+02  0.00000000000E+00 0. -1.
         22    1    3    3    0    0 -0.49284574600E+02 -0.38488667592E+01  0.17066967855E+02  0.52297843747E+02  0.00000000000E+00 0. -1.
</event>
<event>
 7    1  0.6443388E-006  0.1076973E+03  0.7818608E-02  0.1383244E+00
          2   -1    0    0  502    0  0.00000000000E+00  0.00000000000E+00  0.99817996203E+03  0.99817996203E+03  0.00000000000E+00 0. -1.
          1   -1    0    0  501    0 -0.00000000000E+00 -0.00000000000E+00 -0.20724412666E+03  0.20724412666E+03  0.00000000000E+00 0. -1.
         25    2    1    2    0    0  0.60501457416E+02  0.69424868925E+02  0.26225142824E+03  0.30476299265E+03  0.12499772518E+03 0.  0.
          2    1    1    2  501    0 -0.40307331085E+02 -0.10111888057E+03 -0.16951158837E+03  0.20145443043E+03  0.00000000000E+00 0. -1.
          1    1    1    2  502    0 -0.20194126330E+02  0.31694011650E+02  0.69819599550E+03  0.69920666561E+03  0.00000000000E+00 0. -1.
         22    1    3    3    0    0 -0.20182093023E+02  0.62676350538E+02  0.16838939470E+03  0.18080550335E+03  0.00000000000E+00 0. -1.
         22    1    3    3    0    0  0.80683550439E+02  0.67485183867E+01  0.93862033543E+02  0.12395748930E+03  0.00000000000E+00 0. -1.
</event>
<event>
 7    1  0.6443388E-006  0.4861512E+02  0.7818608E-02  0.1477896E+00
          2   -1    0    0  502    0  0.00000000000E+00  0.00000000000E+00  0.43604023723E+03  0.43604023723E+03  0.00000000000E+00 0. -1.
          1   -1    0    0  501    0 -0.00000000000E+00 -0.00000000000E+00 -0.47178654888E+03  0.47178654888E+03  0.00000000000E+00 0. -1.
         25    2    1    2    0    0  0.15768771743E+02  0.47040237435E+00  0.18713800638E+03  0.22559366324E+03  0.12499196783E+03 0.  0.
          2    1    1    2  501    0  0.34185364366E+02 -0.21931325406E+02 -0.44841039958E+03  0.45024605342E+03  0.00000000000E+00 0. -1.
          1    1    1    2  502    0 -0.49954136109E+02  0.21460923032E+02  0.22552608155E+03  0.23198706945E+03  0.00000000000E+00 0. -1.
         22    1    3    3    0    0  0.46225134302E+02 -0.48977708831E+02  0.11103694510E+03  0.12986447621E+03  0.00000000000E+00 0. -1.
         22    1    3    3    0    0 -0.30456362559E+02  0.49448111205E+02  0.76101061280E+02  0.95729187033E+02  0.00000000000E+00 0. -1.
</event>
<event>
 7    1  0.6443388E-006  0.8127783E+02  0.7818608E-02  0.1391230E+00
          2   -1    0    0  502    0  0.00000000000E+00  0.00000000000E+00  0.14828452720E+04  0.14828452720E+04  0.00000000000E+00 0. -1.
          1   -1    0    0  501    0 -0.00000000000E+00 -0.00000000000E+00 -0.88021969476E+03  0.88021969476E+03  0.00000000000E+00 0. -1.
         25    2    1    2    0    0  0.58333439596E+01  0.62365788308E+02  0.13827314801E+03  0.19664237624E+03  0.12500096487E+03 0.  0.
          2    1    1    2  501    0  0.40024106669E+02 -0.71138749393E+02 -0.84866198651E+03  0.85257833547E+03  0.00000000000E+00 0. -1.
          1    1    1    2  502    0 -0.45857450629E+02  0.87729610856E+01  0.13130144158E+04  0.13138442551E+04  0.00000000000E+00 0. -1.
         22    1    3    3    0    0  0.38974208607E+02 -0.18261766176E+02  0.82792507461E+02  0.93311737376E+02  0.00000000000E+00 0.  1.
         22    1    3    3    0    0 -0.33140864647E+02  0.80627554484E+02  0.55480640549E+02  0.10333063886E+03  0.00000000000E+00 0.  1.
</event>
<event>
 7    1  0.6443388E-006  0.8780134E+02  0.7818608E-02  0.1346580E+00
          2   -1    0    0  502    0  0.00000000000E+00  0.00000000000E+00  0.65636003724E+03  0.65636003724E+03  0.00000000000E+00 0. -1.
          1   -1    0    0  501    0 -0.00000000000E+00 -0.00000000000E+00 -0.47331060690E+04  0.47331060690E+04  0.00000000000E+00 0. -1.
         25    2    1    2    0    0 -0.45951067725E+02 -0.45093331754E+02  0.15131634391E+03  0.20654618257E+03  0.12497911988E+03 0.  0.
          2    1    1    2  501    0  0.87888268012E+02 -0.13703801500E+01 -0.47030273063E+04  0.47038486444E+04  0.00000000000E+00 0. -1.
          1    1    1    2  502    0 -0.41937200287E+02  0.46463711904E+02  0.47496493063E+03  0.47907127927E+03  0.00000000000E+00 0. -1.
         22    1    3    3    0    0  0.22912431130E+02  0.28565801783E+02  0.22586310669E+02  0.43024713380E+02  0.00000000000E+00 0.  1.
         22    1    3    3    0    0 -0.68863498856E+02 -0.73659133538E+02  0.12873003324E+03  0.16352146919E+03  0.00000000000E+00 0.  1.
</event>
<event>
 7    1  0.6443388E-006  0.1497855E+03  0.7818608E-02  0.1265840E+00
          2   -1    0    0  502    0  0.00000000000E+00  0.00000000000E+00  0.11014923858E+04  0.11014923858E+04  0.00000000000E+00 0. -1.
          1   -1    0    0  501    0 -0.00000000000E+00 -0.00000000000E+00 -0.85803223472E+02  0.85803223472E+02  0.00000000000E+00 0. -1.
         25    2    1    2    0    0  0.61615543800E+02  0.92187515902E+02  0.33409717171E+03  0.37355129065E+03  0.12499853310E+03 0.  0.
          2    1    1    2  501    0 -0.17736790860E+02  0.74647405848E+02 -0.29368408624E+02  0.82154320489E+02  0.00000000000E+00 0. -1.
          1    1    1    2  502    0 -0.43878752940E+02 -0.16683492175E+03  0.71096039921E+03  0.73158999810E+03  0.00000000000E+00 0. -1.
         22    1    3    3    0    0  0.99475071570E+02  0.55048325436E+02  0.21603828162E+03  0.24412731744E+03  0.00000000000E+00 0. -1.
         22    1    3    3    0    0 -0.37859527769E+02  0.37139190466E+02  0.11805889009E+03  0.12942397320E+03  0.00000000000E+00 0. -1.
</event>
<event>
 7    1  0.6443388E-006  0.1438352E+03  0.7818608E-02  0.1297279E+00
          2   -1    0    0  502    0  0.00000000000E+00  0.00000000000E+00  0.10853705508E+04  0.10853705508E+04  0.00000000000E+00 0. -1.
          1   -1    0    0  501    0 -0.00000000000E+00 -0.00000000000E+00 -0.13250827767E+03  0.13250827767E+03  0.00000000000E+00 0. -1.
         25    2    1    2    0    0 -0.28410648014E+02  0.95259031072E+02  0.15966777380E+03  0.22583388602E+03  0.12500279263E+03 0.  0.
          2    1    1    2  501    0  0.40942178362E+02 -0.15320214892E+03 -0.34452127098E+02  0.16227787731E+03  0.00000000000E+00 0. -1.
          1    1    1    2  502    0 -0.12531530348E+02  0.57943117845E+02  0.82764662643E+03  0.82976706514E+03  0.00000000000E+00 0. -1.
         22    1    3    3    0    0 -0.81123367853E+01 -0.29545090866E+02  0.49050087026E+02  0.57832805912E+02  0.00000000000E+00 0. -1.
         22    1    3    3    0    0 -0.20298311228E+02  0.12480412194E+03  0.11061768677E+03  0.16800108011E+03  0.00000000000E+00 0. -1.
</event>
<event>
 7    1  0.6443388E-006  0.1099650E+03  0.7818608E-02  0.1384523E+00
          2   -1    0    0  502    0  0.00000000000E+00  0.00000000000E+00  0.98992407970E+03  0.98992407970E+03  0.00000000000E+00 0. -1.
          1   -1    0    0  501    0 -0.00000000000E+00 -0.00000000000E+00 -0.80708888558E+03  0.80708888558E+03  0.00000000000E+00 0. -1.
         25    2    1    2    0    0  0.11788973508E+03  0.81662376859E+02  0.18855458953E+03  0.26785164930E+03  0.12499975749E+03 0.  0.
          2    1    1    2  501    0 -0.95933608268E+02 -0.52597265591E+02 -0.76310117232E+03  0.77090409827E+03  0.00000000000E+00 0. -1.
          1    1    1    2  502    0 -0.21956126808E+02 -0.29065111267E+02  0.75738177691E+03  0.75825721770E+03  0.00000000000E+00 0. -1.
         22    1    3    3    0    0  0.11207010799E+03  0.38838775074E+01  0.10675265079E+03  0.15482545675E+03  0.00000000000E+00 0.  1.
         22    1    3    3    0    0  0.58196270911E+01  0.77778499351E+02  0.81801938737E+02  0.11302619255E+03  0.00000000000E+00 0.  1.
</event>
<event>
 7    1  0.6443388E-006  0.1106859E+03  0.7818608E-02  0.1302849E+00
          2   -1    0    0  502    0  0.00000000000E+00  0.00000000000E+00  0.67424637263E+03  0.67424637263E+03  0.00000000000E+00 0. -1.
          1   -1    0    0  501    0 -0.00000000000E+00 -0.00000000000E+00 -0.94795628584E+03  0.94795628584E+03  0.00000000000E+00 0. -1.
         25    2    1    2    0    0  0.82685146158E+02  0.14338803203E+03 -0.28885561515E+02  0.20941988977E+03  0.12500141376E+03 0.  0.
          2    1    1    2  501    0  0.35661874938E+00 -0.73181064418E+02 -0.82210178354E+03  0.82535261426E+03  0.00000000000E+00 0. -1.
          1    1    1    2  502    0 -0.83041764907E+02 -0.70206967608E+02  0.57727743185E+03  0.58743015444E+03  0.00000000000E+00 0. -1.
         22    1    3    3    0    0  0.64607624322E+02  0.66947428992E+02  0.43408081228E+02  0.10266627920E+03  0.00000000000E+00 0.  1.
         22    1    3    3    0    0  0.18077521836E+02  0.76440603034E+02 -0.72293642743E+02  0.10675361057E+03  0.00000000000E+00 0.  1.
</event>
<event>
 7    1  0.6443388E-006  0.4444934E+02  0.7818608E-02  0.1508972E+00
          2   -1    0    0  502    0  0.00000000000E+00  0.00000000000E+00  0.54058071243E+03  0.54058071243E+03  0.00000000000E+00 0. -1.
          1   -1    0    0  501    0 -0.00000000000E+00 -0.00000000000E+00 -0.87176205158E+03  0.87176205158E+03  0.00000000000E+00 0. -1.
         25    2    1    2    0    0  0.32014783763E+02  0.98517219110E+01  0.99683641037E+02  0.16336240373E+03  0.12501377467E+03 0.  0.
          2    1    1    2  501    0 -0.15360039611E+02  0.32349102004E+02 -0.83828127404E+03  0.83904582094E+03  0.00000000000E+00 0. -1.
          1    1    1    2  502    0 -0.16654744152E+02 -0.42200823915E+02  0.40741629386E+03  0.40993453934E+03  0.00000000000E+00 0. -1.
         22    1    3    3    0    0 -0.21084213064E+02 -0.35993559387E+02  0.30200755612E+00  0.41715363674E+02  0.00000000000E+00 0. -1.
         22    1    3    3    0    0  0.53098996827E+02  0.45845281298E+02  0.99381633481E+02  0.12164704006E+03  0.00000000000E+00 0. -1.
</event>
<event>
 7    1  0.6443388E-006  0.9874522E+02  0.7818608E-02  0.1301721E+00
          2   -1    0    0  502    0  0.00000000000E+00  0.00000000000E+00  0.14968883048E+04  0.14968883048E+04  0.00000000000E+00 0. -1.
          1   -1    0    0  501    0 -0.00000000000E+00 -0.00000000000E+00 -0.22890287812E+03  0.22890287812E+03  0.00000000000E+00 0. -1.
         25    2    1    2    0    0 -0.16406578594E+02  0.95576698530E+02  0.66633887576E+03  0.68486577206E+03  0.12501818778E+03 0.  0.
          2    1    1    2  501    0  0.85748518832E+02 -0.50170462934E+02 -0.20617519054E+03  0.22886260732E+03  0.00000000000E+00 0. -1.
          1    1    1    2  502    0 -0.69341940237E+02 -0.45406235596E+02  0.80782174150E+03  0.81206280357E+03  0.00000000000E+00 0. -1.
         22    1    3    3    0    0 -0.39014297953E+02  0.76586689676E+02  0.20119047826E+03  0.21878127211E+03  0.00000000000E+00 0.  1.
         22    1    3    3    0    0  0.22607719359E+02  0.18990008854E+02  0.46514839749E+03  0.46608449996E+03  0.00000000000E+00 0.  1.
</event>
<event>
 7    1  0.6443388E-006  0.9864285E+02  0.7818608E-02  0.1422406E+00
          2   -1    0    0  502    0  0.00000000000E+00  0.00000000000E+00  0.39620457490E+03  0.39620457490E+03  0.00000000000E+00 0. -1.
          1   -1    0    0  501    0 -0.00000000000E+00 -0.00000000000E+00 -0.24692707045E+03  0.24692707045E+03  0.00000000000E+00 0. -1.
         25    2    1    2    0    0 -0.75598355938E+02  0.13464171384E+02 -0.11905901557E+02  0.14718642605E+03  0.12500279273E+03 0.  0.
          2    1    1    2  501    0  0.10399610130E+03 -0.34015121994E+01 -0.15041300393E+03  0.18289568371E+03  0.00000000000E+00 0. -1.
          1    1    1    2  502    0 -0.28397745358E+02 -0.10062659185E+02  0.31159640993E+03  0.31304953559E+03  0.00000000000E+00 0. -1.
         22    1    3    3    0    0 -0.10277740450E+03 -0.50929566400E+00 -0.35329782313E+02  0.10868140492E+03  0.00000000000E+00 0. -1.
         22    1    3    3    0    0  0.27179048563E+02  0.13973467048E+02  0.23423880756E+02  0.38505021125E+02  0.00000000000E+00 0. -1.
</event>
<event>
 7    1  0.6443388E-006  0.1781408E+03  0.7818608E-02  0.1189761E+00
          2   -1    0    0  502    0  0.00000000000E+00  0.00000000000E+00  0.10317231379E+04  0.10317231379E+04  0.00000000000E+00 0. -1.
          1   -1    0    0  501    0 -0.00000000000E+00 -0.00000000000E+00 -0.92241857973E+03  0.92241857973E+03  0.00000000000E+00 0. -1.
         25    2    1    2    0    0  0.23684131888E+03 -0.46949845005E-02 -0.33559441376E+03  0.42935089722E+03  0.12499908820E+03 0.  0.
          2    1    1    2  501    0 -0.13746423342E+03 -0.10146130360E+03 -0.52110673453E+03  0.54840043797E+03  0.00000000000E+00 0. -1.
          1    1    1    2  502    0 -0.99377085457E+02  0.10146599858E+03  0.96600570642E+03  0.97639038239E+03  0.00000000000E+00 0. -1.
         22    1    3    3    0    0  0.75165567925E+02 -0.34873745621E+02 -0.43264765976E+02  0.93476631894E+02  0.00000000000E+00 0.  1.
         22    1    3    3    0    0  0.16167575095E+03  0.34869050637E+02 -0.29232964778E+03  0.33587426533E+03  0.00000000000E+00 0.  1.
</event>
<event>
 7    1  0.6443388E-006  0.1136117E+03  0.7818608E-02  0.1375413E+00
          2   -1    0    0  502    0  0.00000000000E+00  0.00000000000E+00  0.25532543491E+04  0.25532543491E+04  0.00000000000E+00 0. -1.
          1   -1    0    0  501    0 -0.00000000000E+00 -0.00000000000E+00 -0.11196729069E+03  0.11196729069E+03  0.00000000000E+00 0. -1.
         25    2    1    2    0    0 -0.98242952705E+02  0.24644892225E+02  0.42377314035E+03  0.45328777114E+03  0.12500832176E+03 0.  0.
          2    1    1    2  501    0  0.12304891118E+01  0.37956247072E+02 -0.91861080612E+02  0.99401453342E+02  0.00000000000E+00 0. -1.
          1    1    1    2  502    0  0.97012463593E+02 -0.62601139297E+02  0.21093749987E+04  0.21125324153E+04  0.00000000000E+00 0. -1.
         22    1    3    3    0    0 -0.86039660838E+00 -0.37091533478E+02  0.17781383147E+03  0.18164327899E+03  0.00000000000E+00 0. -1.
         22    1    3    3    0    0 -0.97382556097E+02  0.61736425703E+02  0.24595930888E+03  0.27164449215E+03  0.00000000000E+00 0. -1.
</event>
<event>
 7    1  0.6443388E-006  0.1804750E+03  0.7818608E-02  0.1296983E+00
          2   -1    0    0  502    0  0.00000000000E+00  0.00000000000E+00  0.14630578269E+04  0.14630578269E+04  0.00000000000E+00 0. -1.
          1   -1    0    0  501    0 -0.00000000000E+00 -0.00000000000E+00 -0.24240948284E+03  0.24240948284E+03  0.00000000000E+00 0. -1.
         25    2    1    2    0    0 -0.54465648050E+02 -0.19981626171E+03  0.54094498597E+02  0.24787922819E+03  0.12499940692E+03 0.  0.
          2    1    1    2  501    0  0.16570735769E+02  0.17138140396E+03 -0.93983428566E+02  0.19616080075E+03  0.00000000000E+00 0. -1.
          1    1    1    2  502    0  0.37894912281E+02  0.28434857746E+02  0.12605372740E+04  0.12614272807E+04  0.00000000000E+00 0. -1.
         22    1    3    3    0    0 -0.59937935479E+02 -0.10336948814E+03  0.84791213036E+02  0.14651742899E+03  0.00000000000E+00 0. -1.
         22    1    3    3    0    0  0.54722874291E+01 -0.96446773564E+02 -0.30696714439E+02  0.10136179920E+03  0.00000000000E+00 0. -1.
</event>
<event>
 7    1  0.6443388E-006  0.2021466E+03  0.7818608E-02  0.1155314E+00
          2   -1    0    0  502    0  0.00000000000E+00  0.00000000000E+00  0.37744873848E+03  0.37744873848E+03  0.00000000000E+00 0. -1.
          1   -1    0    0  501    0 -0.00000000000E+00 -0.00000000000E+00 -0.30319302349E+04  0.30319302349E+04  0.00000000000E+00 0. -1.
         25    2    1    2    0    0 -0.16820064720E+03  0.30698912783E+03 -0.22811211162E+03  0.43611179568E+03  0.12499832213E+03 0.  0.
          2    1    1    2  501    0  0.15568059517E+03 -0.12212932209E+03 -0.26643367836E+04  0.26716741035E+04  0.00000000000E+00 0. -1.
          1    1    1    2  502    0  0.12520052034E+02 -0.18485980575E+03  0.23796739881E+03  0.30159307416E+03  0.00000000000E+00 0. -1.
         22    1    3    3    0    0 -0.14948873767E+03  0.16111195610E+03 -0.17048268612E+03  0.27815156184E+03  0.00000000000E+00 0. -1.
         22    1    3    3    0    0 -0.18711909534E+02  0.14587717173E+03 -0.57629425500E+02  0.15796023384E+03  0.00000000000E+00 0. -1.
</event>
<event>
 7    1  0.6443388E-006  0.6193415E+02  0.7818608E-02  0.1445387E+00
          2   -1    0    0  502    0  0.00000000000E+00  0.00000000000E+00  0.97608902643E+03  0.97608902643E+03  0.00000000000E+00 0. -1.
          1   -1    0    0  501    0 -0.00000000000E+00 -0.00000000000E+00 -0.30617782930E+02  0.30617782930E+02  0.00000000000E+00 0. -1.
         25    2    1    2    0    0  0.74517857724E+02 -0.64120587949E+02  0.52257910520E+03  0.54624033761E+03  0.12500089728E+03 0.  0.
          2    1    1    2  501    0 -0.48064996262E+02  0.33649190708E+02  0.30728991225E+02  0.66232792502E+02  0.00000000000E+00 0. -1.
          1    1    1    2  502    0 -0.26452861462E+02  0.30471397241E+02  0.39216314707E+03  0.39423367925E+03  0.00000000000E+00 0. -1.
         22    1    3    3    0    0  0.96007472082E+02 -0.90415945621E+01  0.26607748925E+03  0.28301310114E+03  0.00000000000E+00 0. -1.
         22    1    3    3    0    0 -0.21489614359E+02 -0.55078993387E+02  0.25650161594E+03  0.26322723647E+03  0.00000000000E+00 0. -1.
</event>
<event>
 7    1  0.6443388E-006  0.1421496E+03  0.7818608E-02  0.1307429E+00
          2   -1    0    0  502    0  0.00000000000E+00  0.00000000000E+00  0.18923258067E+03  0.18923258067E+03  0.00000000000E+00 0. -1.
          1   -1    0    0  501    0 -0.00000000000E+00 -0.00000000000E+00 -0.73277282999E+03  0.73277282999E+03  0.00000000000E+00 0. -1.
         25    2    1    2    0    0  0.13787949995E+03  0.33918245694E+02 -0.94214221683E+02  0.21133462576E+03  0.12499920231E+03 0.  0.
          2    1    1    2  501    0  0.50248916870E+01 -0.54415042248E+02 -0.53831436840E+03  0.54108096029E+03  0.00000000000E+00 0. -1.
          1    1    1    2  502    0 -0.14290439164E+03  0.20496796554E+02  0.88988340766E+02  0.16958982461E+03  0.00000000000E+00 0. -1.
         22    1    3    3    0    0 -0.72643952335E+00  0.45811673425E+02 -0.50440269321E+01  0.46094244153E+02  0.00000000000E+00 0.  1.
         22    1    3    3    0    0  0.13860593948E+03 -0.11893427731E+02 -0.89170194751E+02  0.16524038161E+03  0.00000000000E+00 0.  1.
</event>
<event>
 7    1  0.6443388E-006  0.8190683E+02  0.7818608E-02  0.1483951E+00
          2   -1    0    0  502    0  0.00000000000E+00  0.00000000000E+00  0.12296551523E+04  0.12296551523E+04  0.00000000000E+00 0. -1.
          1   -1    0    0  501    0 -0.00000000000E+00 -0.00000000000E+00 -0.27551873571E+02  0.27551873571E+02  0.00000000000E+00 0. -1.
         25    2    1    2    0    0  0.39637001192E+02  0.46387054738E+02  0.78806219945E+03  0.80024334385E+03  0.12499811387E+03 0.  0.
          2    1    1    2  501    0 -0.54623402484E+02 -0.63964432279E+02  0.62818909996E+02  0.10498276120E+03  0.00000000000E+00 0. -1.
          1    1    1    2  502    0  0.14986401293E+02  0.17577377541E+02  0.35122216926E+03  0.35198092079E+03  0.00000000000E+00 0. -1.
         22    1    3    3    0    0 -0.98907012732E+01  0.71620467116E+02  0.59379187254E+03  0.59817731918E+03  0.00000000000E+00 0. -1.
         22    1    3    3    0    0  0.49527702465E+02 -0.25233412378E+02  0.19427032691E+03  0.20206602468E+03  0.00000000000E+00 0. -1.
</event>
<event>
 7    1  0.6443388E-006  0.9653411E+02  0.7818608E-02  0.1380967E+00
          2   -1    0    0  502    0  0.00000000000E+00  0.00000000000E+00  0.14084058539E+04  0.14084058539E+04  0.00000000000E+00 0. -1.
          1   -1    0    0  501    0 -0.00000000000E+00 -0.00000000000E+00 -0.29973157654E+03  0.29973157654E+03  0.00000000000E+00 0. -1.
         25    2    1    2    0    0  0.39114038345E+02  0.99448072990E+02 -0.14364322382E+03  0.21834485558E+03  0.12498509108E+03 0.  0.
          2    1    1    2  501    0 -0.42605080377E+02 -0.29914402318E+01 -0.11313738439E+03  0.12093059718E+03  0.00000000000E+00 0. -1.
          1    1    1    2  502    0  0.34910420322E+01 -0.96456632758E+02  0.13654548856E+04  0.13688619777E+04  0.00000000000E+00 0. -1.
         22    1    3    3    0    0  0.45879639778E+02  0.33479270543E+02  0.35458136865E+01  0.56906728046E+02  0.00000000000E+00 0. -1.
         22    1    3    3    0    0 -0.67656014332E+01  0.65968802447E+02 -0.14718903751E+03  0.16143812753E+03  0.00000000000E+00 0. -1.
</event>
<event>
 7    1  0.6443388E-006  0.9348140E+02  0.7818608E-02  0.1363535E+00
          2   -1    0    0  502    0  0.00000000000E+00  0.00000000000E+00  0.13912487238E+04  0.13912487238E+04  0.00000000000E+00 0. -1.
          1   -1    0    0  501    0 -0.00000000000E+00 -0.00000000000E+00 -0.36432108323E+03  0.36432108323E+03  0.00000000000E+00 0. -1.
         25    2    1    2    0    0  0.74959143298E+02  0.11970368459E+03  0.62134334671E+02  0.19857895244E+03  0.12500031815E+03 0.  0.
          2    1    1    2  501    0 -0.53553855983E+02 -0.73494268653E+02 -0.28858749319E+03  0.30257588179E+03  0.00000000000E+00 0. -1.
          1    1    1    2  502    0 -0.21405287314E+02 -0.46209415938E+02  0.12533807991E+04  0.12544149728E+04  0.00000000000E+00 0. -1.
         22    1    3    3    0    0  0.48016846405E+02  0.21797256138E+02  0.79659380189E+02  0.95531956778E+02  0.00000000000E+00 0. -1.
         22    1    3    3    0    0  0.26942296893E+02  0.97906428454E+02 -0.17525045518E+02  0.10304699566E+03  0.00000000000E+00 0. -1.
</event>
<event>
 7    1  0.6443388E-006  0.8550530E+02  0.7818608E-02  0.1446256E+00
          2   -1    0    0  502    0  0.00000000000E+00  0.00000000000E+00  0.11715803699E+04  0.11715803699E+04  0.00000000000E+00 0. -1.
          1   -1    0    0  501    0 -0.00000000000E+00 -0.00000000000E+00 -0.97932204706E+03  0.97932204706E+03  0.00000000000E+00 0. -1.
         25    2    1    2    0    0  0.49785775509E+02 -0.54031932879E+02 -0.84022314441E+02  0.16757900943E+03  0.12499960745E+03 0.  0.
          2    1    1    2  501    0 -0.75850831744E+02  0.41227191783E+02 -0.85115090741E+03  0.85551791167E+03  0.00000000000E+00 0. -1.
          1    1    1    2  502    0  0.26065056235E+02  0.12804741096E+02  0.11274315447E+04  0.11278054959E+04  0.00000000000E+00 0. -1.
         22    1    3    3    0    0 -0.37135385547E+02 -0.28956305572E+02 -0.48110579117E+01  0.47335512782E+02  0.00000000000E+00 0.  1.
         22    1    3    3    0    0  0.86921161056E+02 -0.25075627307E+02 -0.79211256529E+02  0.12024349664E+03  0.00000000000E+00 0.  1.
</event>
<event>
 7    1  0.6443388E-006  0.1013728E+03  0.7818608E-02  0.1286926E+00
          2   -1    0    0  502    0  0.00000000000E+00  0.00000000000E+00  0.11121947191E+03  0.11121947191E+03  0.00000000000E+00 0. -1.
          1   -1    0    0  501    0 -0.00000000000E+00 -0.00000000000E+00 -0.16553395794E+04  0.16553395794E+04  0.00000000000E+00 0. -1.
         25    2    1    2    0    0 -0.35043559838E+02 -0.59069497601E+02 -0.15904364365E+03  0.21362879879E+03  0.12500050582E+03 0.  0.
          2    1    1    2  501    0 -0.78312026524E+02  0.49506644615E+02 -0.14282522844E+04  0.14312540897E+04  0.00000000000E+00 0. -1.
          1    1    1    2  502    0  0.11335558636E+03  0.95628529860E+01  0.43175820572E+02  0.12167616282E+03  0.00000000000E+00 0. -1.
         22    1    3    3    0    0 -0.77051581581E+01 -0.92418611527E+02 -0.13634936689E+03  0.16489911786E+03  0.00000000000E+00 0. -1.
         22    1    3    3    0    0 -0.27338401680E+02  0.33349113926E+02 -0.22694276757E+02  0.48729680931E+02  0.00000000000E+00 0. -1.
</event>
<event>
 7    1  0.6443388E-006  0.4496382E+02  0.7818608E-02  0.1504829E+00
          2   -1    0    0  502    0  0.00000000000E+00  0.00000000000E+00  0.57758073251E+03  0.57758073251E+03  0.00000000000E+00 0. -1.
          1   -1    0    0  501    0 -0.00000000000E+00 -0.00000000000E+00 -0.55644030057E+03  0.55644030057E+03  0.00000000000E+00 0. -1.
         25    2    1    2    0    0  0.23083689300E+02  0.10824373543E+02  0.37991096230E+03  0.40076400604E+03  0.12501770069E+03 0.  0.
          2    1    1    2  501    0  0.29687474976E+02 -0.21085400153E+02 -0.54153097163E+03  0.54275384246E+03  0.00000000000E+00 0. -1.
          1    1    1    2  502    0 -0.52771164276E+02  0.10261026610E+02  0.18276044126E+03  0.19050318459E+03  0.00000000000E+00 0. -1.
         22    1    3    3    0    0 -0.20126393899E+02  0.55316529559E+02  0.24958716998E+03  0.25643468095E+03  0.00000000000E+00 0.  1.
         22    1    3    3    0    0  0.43210083199E+02 -0.44492156016E+02  0.13032379232E+03  0.14432932510E+03  0.00000000000E+00 0.  1.
</event>
<event>
 7    1  0.6443388E-006  0.6660630E+02  0.7818608E-02  0.1456007E+00
          2   -1    0    0  502    0  0.00000000000E+00  0.00000000000E+00  0.16195398233E+04  0.16195398233E+04  0.00000000000E+00 0. -1.
          1   -1    0    0  501    0 -0.00000000000E+00 -0.00000000000E+00 -0.13656601014E+02  0.13656601014E+02  0.00000000000E+00 0. -1.
         25    2    1    2    0    0  0.20912767884E+02  0.33038618296E+02  0.69983897764E+03  0.71199025834E+03  0.12500655659E+03 0.  0.
          2    1    1    2  501    0  0.20894455765E+02  0.27704371455E+02  0.44108597167E+02  0.56121999461E+02  0.00000000000E+00 0. -1.
          1    1    1    2  502    0 -0.41807223649E+02 -0.60742989751E+02  0.86193564749E+03  0.86508416652E+03  0.00000000000E+00 0. -1.
         22    1    3    3    0    0 -0.11448137475E+02  0.50420915346E+02  0.63779526347E+03  0.63988758909E+03  0.00000000000E+00 0. -1.
         22    1    3    3    0    0  0.32360905359E+02 -0.17382297050E+02  0.62043714163E+02  0.72102669254E+02  0.00000000000E+00 0. -1.
</event>
<event>
 7    1  0.6443388E-006  0.1200395E+03  0.7818608E-02  0.1256950E+00
          2   -1    0    0  502    0  0.00000000000E+00  0.00000000000E+00  0.10176536421E+04  0.10176536421E+04  0.00000000000E+00 0. -1.
          1   -1    0    0  501    0 -0.00000000000E+00 -0.00000000000E+00 -0.56292205151E+03  0.56292205151E+03  0.00000000000E+00 0. -1.
         25    2    1    2    0    0  0.10317226091E+03  0.19302518087E+03  0.94046662338E+02  0.26902286151E+03  0.12500115779E+03 0.  0.
          2    1    1    2  501    0 -0.66746505739E+02 -0.95124299645E+02 -0.46499306341E+03  0.47929351908E+03  0.00000000000E+00 0. -1.
          1    1    1    2  502    0 -0.36425755170E+02 -0.97900881224E+02  0.82567799166E+03  0.83225931302E+03  0.00000000000E+00 0. -1.
         22    1    3    3    0    0  0.31069267459E+01  0.11202261233E+03  0.83686477497E+02  0.13986473889E+03  0.00000000000E+00 0.  1.
         22    1    3    3    0    0  0.10006533416E+03  0.81002568535E+02  0.10360184840E+02  0.12915812263E+03  0.00000000000E+00 0.  1.
</event>
<event>
 7    1  0.6443388E-006  0.7578990E+02  0.7818608E-02  0.1404301E+00
          2   -1    0    0  502    0  0.00000000000E+00  0.00000000000E+00  0.22092107006E+04  0.22092107006E+04  0.00000000000E+00 0. -1.
          1   -1    0    0  501    0 -0.00000000000E+00 -0.00000000000E+00 -0.54149959983E+02  0.54149959983E+02  0.00000000000E+00 0. -1.
         25    2    1    2    0    0 -0.15113360026E+02 -0.10311697249E+03  0.66011169971E+03  0.67987828202E+03  0.12500199439E+03 0.  0.
          2    1    1    2  501    0  0.32461559526E+02  0.31354471507E+02 -0.31634613878E+02  0.55114467479E+02  0.00000000000E+00 0. -1.
          1    1    1    2  502    0 -0.17348199500E+02  0.71762500981E+02  0.15265836548E+04  0.15283679111E+04  0.00000000000E+00 0. -1.
         22    1    3    3    0    0  0.51033497917E+02 -0.22237611075E+02  0.29033091688E+03  0.29561963831E+03  0.00000000000E+00 0.  1.
         22    1    3    3    0    0 -0.66146857943E+02 -0.80879361412E+02  0.36978078283E+03  0.38425864372E+03  0.00000000000E+00 0.  1.
</event>
<event>
 7    1  0.6443388E-006  0.1276713E+03  0.7818608E-02  0.1382895E+00
          2   -1    0    0  502    0  0.00000000000E+00  0.00000000000E+00  0.11843686016E+03  0.11843686016E+03  0.00000000000E+00 0. -1.
          1   -1    0    0  501    0 -0.00000000000E+00 -0.00000000000E+00 -0.72174207423E+03  0.72174207423E+03  0.00000000000E+00 0. -1.
         25    2    1    2    0    0 -0.57469671938E+02  0.11351216546E+03 -0.76325948723E+02  0.19400751056E+03  0.12500195520E+03 0.  0.
          2    1    1    2  501    0  0.27858503561E+02 -0.12508218836E+03 -0.57470933911E+03  0.58882295686E+03  0.00000000000E+00 0. -1.
          1    1    1    2  502    0  0.29611168377E+02  0.11570022904E+02  0.47730073764E+02  0.57348466973E+02  0.00000000000E+00 0. -1.
         22    1    3    3    0    0 -0.34967262621E+02 -0.16158744392E+02 -0.44014773697E+02  0.58490296453E+02  0.00000000000E+00 0. -1.
         22    1    3    3    0    0 -0.22502409317E+02  0.12967090985E+03 -0.32311175026E+02  0.13551721410E+03  0.00000000000E+00 0. -1.
</event>
<event>
 7    1  0.6443388E-006  0.1676748E+03  0.7818608E-02  0.1299978E+00
          2   -1    0    0  502    0  0.00000000000E+00  0.00000000000E+00  0.42768219004E+03  0.42768219004E+03  0.00000000000E+00 0. -1.
          1   -1    0    0  501    0 -0.00000000000E+00 -0.00000000000E+00 -0.14611278354E+04  0.14611278354E+04  0.00000000000E+00 0. -1.
         25    2    1    2    0    0 -0.23641492958E+02  0.20670895566E+03 -0.16275350059E+03  0.29223055048E+03  0.12498992015E+03 0.  0.
          2    1    1    2  501    0  0.39252328546E+02 -0.15962774872E+03 -0.12264314107E+04  0.12373987912E+04  0.00000000000E+00 0. -1.
          1    1    1    2  502    0 -0.15610835588E+02 -0.47081206938E+02  0.35573926593E+03  0.35918068372E+03  0.00000000000E+00 0. -1.
         22    1    3    3    0    0  0.18862853021E+02 -0.10022987994E+02 -0.19925451275E+02  0.29211147204E+02  0.00000000000E+00 0.  1.
         22    1    3    3    0    0 -0.42504345979E+02  0.21673194365E+03 -0.14282804932E+03  0.26301940327E+03  0.00000000000E+00 0.  1.
</event>
<event>
 7    1  0.6443388E-006  0.9482878E+02  0.7818608E-02  0.1391224E+00
          2   -1    0    0  502    0  0.00000000000E+00  0.00000000000E+00  0.87330294650E+01  0.87330294650E+01  0.00000000000E+00 0. -1.
          1   -1    0    0  501    0 -0.00000000000E+00 -0.00000000000E+00 -0.32256628747E+04  0.32256628747E+04  0.00000000000E+00 0. -1.
         25    2    1    2    0    0  0.74149633652E+02  0.92125109162E+01 -0.11016997206E+04  0.11112831583E+04  0.12499977987E+03 0.  0.
          2    1    1    2  501    0  0.36526953214E+02 -0.16349997739E+02 -0.12708773445E+04  0.12715072810E+04  0.00000000000E+00 0. -1.
          1    1    1    2  502    0 -0.11067658687E+03  0.71374868230E+01 -0.84435278008E+03  0.85160546489E+03  0.00000000000E+00 0. -1.
         22    1    3    3    0    0 -0.22015752827E+02  0.32298751832E+02 -0.49846594250E+03  0.49999619856E+03  0.00000000000E+00 0. -1.
         22    1    3    3    0    0  0.96165386479E+02 -0.23086240916E+02 -0.60323377808E+03  0.61128695969E+03  0.00000000000E+00 0. -1.
</event>
<event>
 7    1  0.6443388E-006  0.1896078E+03  0.7818608E-02  0.1300975E+00
          2   -1    0    0  502    0  0.00000000000E+00  0.00000000000E+00  0.36550479564E+04  0.36550479564E+04  0.00000000000E+00 0. -1.
          1   -1    0    0  501    0 -0.00000000000E+00 -0.00000000000E+00 -0.24511753699E+03  0.24511753699E+03  0.00000000000E+00 0. -1.
         25    2    1    2    0    0  0.14972107198E+03  0.11730444448E+02 -0.16440515122E+03  0.25535821581E+03  0.12499904763E+03 0.  0.
          2    1    1    2  501    0  0.37293182751E+02  0.22321368275E+02 -0.18291302372E+02  0.47155028405E+02  0.00000000000E+00 0. -1.
          1    1    1    2  502    0 -0.18701425473E+03 -0.34051812723E+02  0.35926268730E+04  0.35976522492E+04  0.00000000000E+00 0. -1.
         22    1    3    3    0    0  0.38789291493E+01 -0.33316575406E+02 -0.65171631980E+02  0.73296534045E+02  0.00000000000E+00 0.  1.
         22    1    3    3    0    0  0.14584214283E+03  0.45047019853E+02 -0.99233519242E+02  0.18206168176E+03  0.00000000000E+00 0.  1.
</event>
<event>
 7    1  0.6443388E-006  0.4402449E+02  0.7818608E-02  0.1533207E+00
          2   -1    0    0  502    0  0.00000000000E+00  0.00000000000E+00  0.39138977250E+03  0.39138977250E+03  0.00000000000E+00 0. -1.
          1   -1    0    0  501    0 -0.00000000000E+00 -0.00000000000E+00 -0.42866315225E+03  0.42866315225E+03  0.00000000000E+00 0. -1.
         25    2    1    2    0    0 -0.43767559924E+02  0.53469741949E+02 -0.10763925104E+03  0.17885197328E+03  0.12500882919E+03 0.  0.
          2    1    1    2  501    0  0.35860915802E+02 -0.23749174628E+02 -0.28312562570E+03  0.28637414078E+03  0.00000000000E+00 0. -1.
          1    1    1    2  502    0  0.79066441215E+01 -0.29720567321E+02  0.35349149699E+03  0.35482681069E+03  0.00000000000E+00 0. -1.
         22    1    3    3    0    0  0.40324202374E+02  0.40645864522E+02 -0.50828598917E+02  0.76561570436E+02  0.00000000000E+00 0.  1.
         22    1    3    3    0    0 -0.84091762298E+02  0.12823877427E+02 -0.56810652121E+02  0.10229040284E+03  0.00000000000E+00 0.  1.
</event>
<event>
 7    1  0.6443388E-006  0.6045673E+02  0.7818608E-02  0.1422649E+00
          2   -1    0    0  502    0  0.00000000000E+00  0.00000000000E+00  0.26407297714E+03  0.26407297714E+03  0.00000000000E+00 0. -1.
          1   -1    0    0  501    0 -0.00000000000E+00 -0.00000000000E+00 -0.89589607410E+03  0.89589607410E+03  0.00000000000E+00 0. -1.
         25    2    1    2    0    0  0.32683621218E+02  0.10271308482E+03 -0.55688790058E+02  0.17418879230E+03  0.12498918807E+03 0.  0.
          2    1    1    2  501    0 -0.11561921037E+02 -0.58425875515E+02 -0.77686248396E+03  0.77914220778E+03  0.00000000000E+00 0. -1.
          1    1    1    2  502    0 -0.21121700181E+02 -0.44287209305E+02  0.20072817706E+03  0.20663805117E+03  0.00000000000E+00 0. -1.
         22    1    3    3    0    0  0.12667305842E+02  0.12176773145E+03 -0.72069744023E+02  0.14206297570E+03  0.00000000000E+00 0. -1.
         22    1    3    3    0    0  0.20016315376E+02 -0.19054646632E+02  0.16380953966E+02  0.32125816602E+02  0.00000000000E+00 0. -1.
</event>
<event>
 7    1  0.6443388E-006  0.8853385E+02  0.7818608E-02  0.1420458E+00
          2   -1    0    0  502    0  0.00000000000E+00  0.00000000000E+00  0.26179927419E+02  0.26179927419E+02  0.00000000000E+00 0. -1.
          1   -1    0    0  501    0 -0.00000000000E+00 -0.00000000000E+00 -0.79399424303E+03  0.79399424303E+03  0.00000000000E+00 0. -1.
         25    2    1    2    0    0 -0.69509347571E+02 -0.57125230092E+02 -0.47724527045E+03  0.50148058987E+03  0.12499957016E+03 0.  0.
          2    1    1    2  501    0  0.26398132714E+02 -0.21543811978E+02 -0.13382195895E+03  0.13809168672E+03  0.00000000000E+00 0. -1.
          1    1    1    2  502    0  0.43111214857E+02  0.78669042070E+02 -0.15674708621E+03  0.18060189385E+03  0.00000000000E+00 0. -1.
         22    1    3    3    0    0  0.37179207860E+01 -0.64803148377E+02 -0.33583382961E+03  0.34204916618E+03  0.00000000000E+00 0. -1.
         22    1    3    3    0    0 -0.73227268357E+02  0.76779182850E+01 -0.14141144084E+03  0.15943142370E+03  0.00000000000E+00 0. -1.
</event>
<event>
 7    1  0.6443388E-006  0.9780932E+02  0.7818608E-02  0.1378099E+00
          2   -1    0    0  502    0  0.00000000000E+00  0.00000000000E+00  0.16185869449E+04  0.16185869449E+04  0.00000000000E+00 0. -1.
          1   -1    0    0  501    0 -0.00000000000E+00 -0.00000000000E+00 -0.54046177048E+02  0.54046177048E+02  0.00000000000E+00 0. -1.
         25    2    1    2    0    0  0.81056861308E+02 -0.46019697571E+02  0.46740244240E+03  0.49272465658E+03  0.12499806683E+03 0.  0.
          2    1    1    2  501    0 -0.99186405053E+02  0.68617196898E+01  0.19389938781E+02  0.10129657383E+03  0.00000000000E+00 0. -1.
          1    1    1    2  502    0  0.18129543745E+02  0.39157977882E+02  0.10777483867E+04  0.10786118915E+04  0.00000000000E+00 0. -1.
         22    1    3    3    0    0  0.45682614931E+02 -0.16374663535E+02  0.40144308879E+02  0.62980921303E+02  0.00000000000E+00 0. -1.
         22    1    3    3    0    0  0.35374246377E+02 -0.29645034037E+02  0.42725813352E+03  0.42974373528E+03  0.00000000000E+00 0. -1.
</event>
<event>
 7    1  0.6443388E-006  0.3523967E+02  0.7818608E-02  0.1614083E+00
          2   -1    0    0  502    0  0.00000000000E+00  0.00000000000E+00  0.14603734375E+03  0.14603734375E+03  0.00000000000E+00 0. -1.
          1   -1    0    0  501    0 -0.00000000000E+00 -0.00000000000E+00 -0.15822413483E+03  0.15822413483E+03  0.00000000000E+00 0. -1.
         25    2    1    2    0    0 -0.14460186775E+02 -0.20492957098E+02  0.65793182176E+02  0.14347246797E+03  0.12500619166E+03 0.  0.
          2    1    1    2  501    0  0.34544227780E+02  0.88521943701E+01 -0.11315688929E+03  0.11864293747E+03  0.00000000000E+00 0. -1.
          1    1    1    2  502    0 -0.20084041005E+02  0.11640762728E+02  0.35176916031E+02  0.42146073144E+02  0.00000000000E+00 0. -1.
         22    1    3    3    0    0 -0.23345880089E+02 -0.68417766853E+02  0.16500021605E+02  0.74150331431E+02  0.00000000000E+00 0. -1.
         22    1    3    3    0    0  0.88856933142E+01  0.47924809755E+02  0.49293160571E+02  0.69322136542E+02  0.00000000000E+00 0. -1.
</event>
<event>
 7    1  0.6443388E-006  0.7964841E+02  0.7818608E-02  0.1478286E+00
          2   -1    0    0  502    0  0.00000000000E+00  0.00000000000E+00  0.15806095918E+04  0.15806095918E+04  0.00000000000E+00 0. -1.
          1   -1    0    0  501    0 -0.00000000000E+00 -0.00000000000E+00 -0.23740238700E+03  0.23740238700E+03  0.00000000000E+00 0. -1.
         25    2    1    2    0    0  0.74753964901E+01  0.10217980012E+03  0.11653144751E+03  0.19924878450E+03  0.12499562698E+03 0.  0.
          2    1    1    2  501    0 -0.11135099866E+02 -0.77730085039E+02 -0.18806840404E+03  0.20380304504E+03  0.00000000000E+00 0. -1.
          1    1    1    2  502    0  0.36597033763E+01 -0.24449715077E+02  0.14147441614E+04  0.14149601493E+04  0.00000000000E+00 0. -1.
         22    1    3    3    0    0 -0.19753863722E+02 -0.14664102166E+02 -0.84403309820E+01  0.26009425433E+02  0.00000000000E+00 0. -1.
         22    1    3    3    0    0  0.27229260212E+02  0.11684390228E+03  0.12497177849E+03  0.17323935907E+03  0.00000000000E+00 0. -1.
</event>
<event>
 7    1  0.6443388E-006  0.8139080E+02  0.7818608E-02  0.1329513E+00
          2   -1    0    0  502    0  0.00000000000E+00  0.00000000000E+00  0.34428092641E+04  0.34428092641E+04  0.00000000000E+00 0. -1.
          1   -1    0    0  501    0 -0.00000000000E+00 -0.00000000000E+00 -0.41804258629E+03  0.41804258629E+03  0.00000000000E+00 0. -1.
         25    2    1    2    0    0 -0.85124230313E+02  0.13024761442E+03  0.50418733588E+03  0.54225345274E+03  0.12499344661E+03 0.  0.
          2    1    1    2  501    0  0.31654510461E+02 -0.71631290896E+02 -0.39462191879E+03  0.40231767132E+03  0.00000000000E+00 0. -1.
          1    1    1    2  502    0  0.53469719852E+02 -0.58616323524E+02  0.29152012607E+04  0.29162807263E+04  0.00000000000E+00 0. -1.
         22    1    3    3    0    0 -0.10411233055E+03  0.14259164374E+03  0.45678752805E+03  0.48972094097E+03  0.00000000000E+00 0. -1.
         22    1    3    3    0    0  0.18988100240E+02 -0.12344029323E+02  0.47399807832E+02  0.52532511773E+02  0.00000000000E+00 0. -1.
</event>
<event>
 7    1  0.6443388E-006  0.4467202E+02  0.7818608E-02  0.1515184E+00
          2   -1    0    0  502    0  0.00000000000E+00  0.00000000000E+00  0.21193621117E+02  0.21193621117E+02  0.00000000000E+00 0. -1.
          1   -1    0    0  501    0 -0.00000000000E+00 -0.00000000000E+00 -0.23932147732E+04  0.23932147732E+04  0.00000000000E+00 0. -1.
         25    2    1    2    0    0 -0.24582969548E+02  0.68802408725E+02 -0.33612648623E+03  0.36598483461E+03  0.12500316228E+03 0.  0.
          2    1    1    2  501    0  0.16063476126E+02 -0.30155504579E+02 -0.19780019455E+04  0.19782970167E+04  0.00000000000E+00 0. -1.
          1    1    1    2  502    0  0.85194934221E+01 -0.38646904145E+02 -0.57892720280E+02  0.70126542974E+02  0.00000000000E+00 0. -1.
         22    1    3    3    0    0  0.11728620208E+02  0.47382477898E+02 -0.31512826661E+03  0.31888631855E+03  0.00000000000E+00 0.  1.
         22    1    3    3    0    0 -0.36311589756E+02  0.21419930827E+02 -0.20998219614E+02  0.47098516051E+02  0.00000000000E+00 0.  1.
</event>
<event>
 7    1  0.6443388E-006  0.1401673E+03  0.7818608E-02  0.1228774E+00
          2   -1    0    0  502    0  0.00000000000E+00  0.00000000000E+00  0.76378313905E+02  0.76378313905E+02  0.00000000000E+00 0. -1.
          1   -1    0    0  501    0 -0.00000000000E+00 -0.00000000000E+00 -0.24134258678E+04  0.24134258678E+04  0.00000000000E+00 0. -1.
         25    2    1    2    0    0 -0.18347101966E+02 -0.90663602221E+02 -0.12896496274E+04  0.12989919161E+04  0.12500932634E+03 0.  0.
          2    1    1    2  501    0  0.15592845926E+03  0.11746381000E+03 -0.10314252238E+04  0.10497377879E+04  0.00000000000E+00 0. -1.
          1    1    1    2  502    0 -0.13758135729E+03 -0.26800207780E+02 -0.15972702613E+02  0.14107447764E+03  0.00000000000E+00 0. -1.
         22    1    3    3    0    0 -0.55004767358E+02 -0.69594091070E+01 -0.71241147929E+03  0.71456565382E+03  0.00000000000E+00 0.  1.
         22    1    3    3    0    0  0.36657665392E+02 -0.83704193114E+02 -0.57723814811E+03  0.58442626225E+03  0.00000000000E+00 0.  1.
</event>
<event>
 7    1  0.6443388E-006  0.9567364E+02  0.7818608E-02  0.1443556E+00
          2   -1    0    0  502    0  0.00000000000E+00  0.00000000000E+00  0.19516124785E+03  0.19516124785E+03  0.00000000000E+00 0. -1.
          1   -1    0    0  501    0 -0.00000000000E+00 -0.00000000000E+00 -0.47452607514E+03  0.47452607514E+03  0.00000000000E+00 0. -1.
         25    2    1    2    0    0  0.71597139447E+02 -0.69354504148E+02 -0.24392235620E+03  0.29164923401E+03  0.12499984890E+03 0.  0.
          2    1    1    2  501    0 -0.48219366439E+02  0.81789547927E+02 -0.19468817765E+03  0.21660591858E+03  0.00000000000E+00 0. -1.
          1    1    1    2  502    0 -0.23377773008E+02 -0.12435043780E+02  0.15924570655E+03  0.16143217040E+03  0.00000000000E+00 0. -1.
         22    1    3    3    0    0 -0.10621674304E+02 -0.64341260890E+02 -0.16563304088E+03  0.17800820781E+03  0.00000000000E+00 0. -1.
         22    1    3    3    0    0  0.82218813751E+02 -0.50132432581E+01 -0.78289315321E+02  0.11364102620E+03  0.00000000000E+00 0. -1.
</event>
<event>
 7    1  0.6443388E-006  0.1364258E+03  0.7818608E-02  0.1354443E+00
          2   -1    0    0  502    0  0.00000000000E+00  0.00000000000E+00  0.14897968919E+04  0.14897968919E+04  0.00000000000E+00 0. -1.
          1   -1    0    0  501    0 -0.00000000000E+00 -0.00000000000E+00 -0.24202701082E+03  0.24202701082E+03  0.00000000000E+00 0. -1.
         25    2    1    2    0    0 -0.11371696189E+03 -0.12425101411E+03  0.70970037985E+02  0.22143038184E+03  0.12499922313E+03 0.  0.
          2    1    1    2  501    0  0.89453460979E+02  0.95434717952E+02 -0.14084165843E+03  0.19221363068E+03  0.00000000000E+00 0. -1.
          1    1    1    2  502    0  0.24263500910E+02  0.28816296159E+02  0.13176415015E+04  0.13181798902E+04  0.00000000000E+00 0. -1.
         22    1    3    3    0    0 -0.45290639144E+02 -0.85691620357E+02  0.98511695414E+02  0.13819858873E+03  0.00000000000E+00 0.  1.
         22    1    3    3    0    0 -0.68426322745E+02 -0.38559393754E+02 -0.27541657429E+02  0.83231793114E+02  0.00000000000E+00 0.  1.
</event>
<event>
 7    1  0.6443388E-006  0.7927672E+02  0.7818608E-02  0.1494246E+00
          2   -1    0    0  502    0  0.00000000000E+00  0.00000000000E+00  0.20046653834E+03  0.20046653834E+03  0.00000000000E+00 0. -1.
          1   -1    0    0  501    0 -0.00000000000E+00 -0.00000000000E+00 -0.87346697467E+03  0.87346697467E+03  0.00000000000E+00 0. -1.
         25    2    1    2    0    0 -0.86778019606E+02  0.47096644151E+02 -0.15050364338E+03  0.21914745844E+03  0.12500297315E+03 0.  0.
          2    1    1    2  501    0  0.64879275697E+02 -0.43381576321E+02 -0.68567527968E+03  0.69010279723E+03  0.00000000000E+00 0. -1.
          1    1    1    2  502    0  0.21898743909E+02 -0.37150678303E+01  0.16317848673E+03  0.16468325733E+03  0.00000000000E+00 0. -1.
         22    1    3    3    0    0 -0.74810820878E+02  0.82650443548E+02 -0.14226367982E+03  0.18073934086E+03  0.00000000000E+00 0.  1.
         22    1    3    3    0    0 -0.11967198728E+02 -0.35553799397E+02 -0.82399635614E+01  0.38408117586E+02  0.00000000000E+00 0.  1.
</event>
<event>
 7    1  0.6443388E-006  0.1057590E+03  0.7818608E-02  0.1302866E+00
          2   -1    0    0  502    0  0.00000000000E+00  0.00000000000E+00  0.32852416198E+04  0.32852416198E+04  0.00000000000E+00 0. -1.
          1   -1    0    0  501    0 -0.00000000000E+00 -0.00000000000E+00 -0.37631008592E+02  0.37631008592E+02  0.00000000000E+00 0. -1.
         25    2    1    2    0    0  0.14782537451E+01  0.36742863536E+02  0.34994561919E+03  0.37341672823E+03  0.12500357306E+03 0.  0.
          2    1    1    2  501    0  0.24987526379E+02  0.72387475188E+02  0.34333424611E+02  0.83923221365E+02  0.00000000000E+00 0. -1.
          1    1    1    2  502    0 -0.26465780124E+02 -0.10913033872E+03  0.28633315674E+04  0.28655326788E+04  0.00000000000E+00 0. -1.
         22    1    3    3    0    0  0.59244253885E+02  0.32371878799E+02  0.23772496488E+03  0.24712543188E+03  0.00000000000E+00 0.  1.
         22    1    3    3    0    0 -0.57766000140E+02  0.43709847367E+01  0.11222065431E+03  0.12629129635E+03  0.00000000000E+00 0.  1.
</event>
<event>
 7    1  0.6443388E-006  0.7197615E+02  0.7818608E-02  0.1461886E+00
          2   -1    0    0  502    0  0.00000000000E+00  0.00000000000E+00  0.96389430156E+03  0.96389430156E+03  0.00000000000E+00 0. -1.
          1   -1    0    0  501    0 -0.00000000000E+00 -0.00000000000E+00 -0.25957094193E+03  0.25957094193E+03  0.00000000000E+00 0. -1.
         25    2    1    2    0    0  0.88228226887E+02 -0.40145162101E+02 -0.19005364705E+02  0.15936307996E+03  0.12505811972E+03 0.  0.
          2    1    1    2  501    0 -0.18298488535E+02  0.24734026337E+02 -0.16754937942E+03  0.17035081827E+03  0.00000000000E+00 0. -1.
          1    1    1    2  502    0 -0.69929738353E+02  0.15411135763E+02  0.89087810375E+03  0.89375134526E+03  0.00000000000E+00 0. -1.
         22    1    3    3    0    0  0.10569584320E+02  0.42752253231E+02  0.86291847571E+00  0.44047881871E+02  0.00000000000E+00 0.  1.
         22    1    3    3    0    0  0.77658642567E+02 -0.82897415332E+02 -0.19868283181E+02  0.11531519809E+03  0.00000000000E+00 0.  1.
</event>
<event>
 7    1  0.6443388E-006  0.5786948E+02  0.7818608E-02  0.1427054E+00
          2   -1    0    0  502    0  0.00000000000E+00  0.00000000000E+00  0.47622914277E+03  0.47622914277E+03  0.00000000000E+00 0. -1.
          1   -1    0    0  501    0 -0.00000000000E+00 -0.00000000000E+00 -0.52383180369E+03  0.52383180369E+03  0.00000000000E+00 0. -1.
         25    2    1    2    0    0  0.79286031766E+02  0.99977704015E+01  0.10327735299E+03  0.18077383758E+03  0.12500695367E+03 0.  0.
          2    1    1    2  501    0 -0.38825311161E+02  0.30808913957E+02 -0.48133130404E+03  0.48387644933E+03  0.00000000000E+00 0. -1.
          1    1    1    2  502    0 -0.40460720605E+02 -0.40806684358E+02  0.33045129012E+03  0.33541065955E+03  0.00000000000E+00 0. -1.
         22    1    3    3    0    0  0.11325286400E+03  0.85385633332E+01  0.71298489548E+02  0.13409919045E+03  0.00000000000E+00 0. -1.
         22    1    3    3    0    0 -0.33966832235E+02  0.14592070684E+01  0.31978863443E+02  0.46674647127E+02  0.00000000000E+00 0. -1.
</event>
<event>
 7    1  0.6443388E-006  0.3498096E+02  0.7818608E-02  0.1583076E+00
          2   -1    0    0  502    0  0.00000000000E+00  0.00000000000E+00  0.48077464111E+03  0.48077464111E+03  0.00000000000E+00 0. -1.
          1   -1    0    0  501    0 -0.00000000000E+00 -0.00000000000E+00 -0.36828302544E+03  0.36828302544E+03  0.00000000000E+00 0. -1.
         25    2    1    2    0    0 -0.10546836097E+02  0.28349607309E+02 -0.97523229701E+02  0.16142202161E+03  0.12502540839E+03 0.  0.
          2    1    1    2  501    0  0.33524606490E+02 -0.12016171406E+02 -0.23703620830E+03  0.23969658250E+03  0.00000000000E+00 0. -1.
          1    1    1    2  502    0 -0.22977770393E+02 -0.16333435904E+02  0.44705105368E+03  0.44793906244E+03  0.00000000000E+00 0. -1.
         22    1    3    3    0    0 -0.10564095389E+02 -0.43161217512E+02 -0.73678073622E+02  0.86040393660E+02  0.00000000000E+00 0. -1.
         22    1    3    3    0    0  0.17259292060E-01  0.71510824821E+02 -0.23845156079E+02  0.75381627953E+02  0.00000000000E+00 0. -1.
</event>
<event>
 7    1  0.6443388E-006  0.2229872E+03  0.7818608E-02  0.1220222E+00
          2   -1    0    0  502    0  0.00000000000E+00  0.00000000000E+00  0.33598374922E+04  0.33598374922E+04  0.00000000000E+00 0. -1.
          1   -1    0    0  501    0 -0.00000000000E+00 -0.00000000000E+00 -0.15037111530E+03  0.15037111530E+03  0.00000000000E+00 0. -1.
         25    2    1    2    0    0  0.28620517039E+03 -0.68360403408E+02  0.12890323703E+04  0.13280871304E+04  0.12499771960E+03 0.  0.
          2    1    1    2  501    0 -0.20476245797E+03  0.75195043223E+02 -0.38481990334E+02  0.22150129187E+03  0.00000000000E+00 0. -1.
          1    1    1    2  502    0 -0.81442712419E+02 -0.68346398157E+01  0.19589159969E+04  0.19606201853E+04  0.00000000000E+00 0. -1.
         22    1    3    3    0    0  0.40055330487E+02  0.24638678837E+00  0.55976971646E+02  0.68832489142E+02  0.00000000000E+00 0.  1.
         22    1    3    3    0    0  0.24614983991E+03 -0.68606790196E+02  0.12330553987E+04  0.12592546413E+04  0.00000000000E+00 0.  1.
</event>
<event>
 7    1  0.6443388E-006  0.2069836E+03  0.7818608E-02  0.1158975E+00
          2   -1    0    0  502    0  0.00000000000E+00  0.00000000000E+00  0.26753924500E+04  0.26753924500E+04  0.00000000000E+00 0. -1.
          1   -1    0    0  501    0 -0.00000000000E+00 -0.00000000000E+00 -0.12730129605E+03  0.12730129605E+03  0.00000000000E+00 0. -1.
         25    2    1    2    0    0  0.45997316819E+02 -0.30823148462E+03  0.75648044243E+03  0.82765260171E+03  0.12499507222E+03 0.  0.
          2    1    1    2  501    0  0.73835645739E+02  0.18294508384E+03  0.23758641754E+02  0.19870852860E+03  0.00000000000E+00 0. -1.
          1    1    1    2  502    0 -0.11983296256E+03  0.12528640078E+03  0.17678520698E+04  0.17763326158E+04  0.00000000000E+00 0. -1.
         22    1    3    3    0    0  0.41996325186E+02 -0.32938181077E+02  0.70054069014E+02  0.88069220997E+02  0.00000000000E+00 0. -1.
         22    1    3    3    0    0  0.40009916335E+01 -0.27529330354E+03  0.68642637341E+03  0.73958338072E+03  0.00000000000E+00 0. -1.
</event>
<event>
 7    1  0.6443388E-006  0.2215908E+03  0.7818608E-02  0.1262619E+00
          2   -1    0    0  502    0  0.00000000000E+00  0.00000000000E+00  0.26005437042E+04  0.26005437042E+04  0.00000000000E+00 0. -1.
          1   -1    0    0  501    0 -0.00000000000E+00 -0.00000000000E+00 -0.22125048311E+03  0.22125048311E+03  0.00000000000E+00 0. -1.
         25    2    1    2    0    0 -0.19425159391E+03 -0.52408102928E+02  0.20683216027E+03  0.31445044465E+03  0.12497699238E+03 0.  0.
          2    1    1    2  501    0 -0.29716654992E+02  0.44511182848E+02 -0.15764666046E+03  0.16648361643E+03  0.00000000000E+00 0. -1.
          1    1    1    2  502    0  0.22396824890E+03  0.78969200793E+01  0.23301077213E+04  0.23408601263E+04  0.00000000000E+00 0. -1.
         22    1    3    3    0    0 -0.11094170407E+03 -0.88893216551E+02  0.98243469967E+02  0.17280580153E+03  0.00000000000E+00 0.  1.
         22    1    3    3    0    0 -0.83309889841E+02  0.36485113623E+02  0.10858869031E+03  0.14164464312E+03  0.00000000000E+00 0.  1.
</event>
<event>
 7    1  0.6443388E-006  0.7788500E+02  0.7818608E-02  0.1337677E+00
          2   -1    0    0  502    0  0.00000000000E+00  0.00000000000E+00  0.36497446287E+03  0.36497446287E+03  0.00000000000E+00 0. -1.
          1   -1    0    0  501    0 -0.00000000000E+00 -0.00000000000E+00 -0.16982618811E+04  0.16982618811E+04  0.00000000000E+00 0. -1.
         25    2    1    2    0    0  0.87186106064E+01 -0.13579306102E+02 -0.12777940863E+03  0.17947948349E+03  0.12499958399E+03 0.  0.
          2    1    1    2  501    0 -0.68416350726E+02 -0.37219305351E+02 -0.15391050035E+04  0.15410743932E+04  0.00000000000E+00 0. -1.
          1    1    1    2  502    0  0.59697740120E+02  0.50798611453E+02  0.33359699383E+03  0.34268246730E+03  0.00000000000E+00 0. -1.
         22    1    3    3    0    0  0.17049870431E+02 -0.51488185238E+02 -0.95887370140E+01  0.55078808796E+02  0.00000000000E+00 0.  1.
         22    1    3    3    0    0 -0.83312598248E+01  0.37908879136E+02 -0.11819067161E+03  0.12440067469E+03  0.00000000000E+00 0.  1.
</event>
<event>
 7    1  0.6443388E-006  0.2019564E+03  0.7818608E-02  0.1290078E+00
          2   -1    0    0  502    0  0.00000000000E+00  0.00000000000E+00  0.38604178369E+03  0.38604178369E+03  0.00000000000E+00 0. -1.
          1   -1    0    0  501    0 -0.00000000000E+00 -0.00000000000E+00 -0.33917771115E+03  0.33917771115E+03  0.00000000000E+00 0. -1.
         25    2    1    2    0    0 -0.20359935865E+03 -0.80108122133E+00  0.11700791914E+03  0.26602475850E+03  0.12499991368E+03 0.  0.
          2    1    1    2  501    0  0.19764695155E+03 -0.43954098509E+02 -0.22217797291E+03  0.30059828988E+03  0.00000000000E+00 0. -1.
          1    1    1    2  502    0  0.59524071027E+01  0.44755179731E+02  0.15203412631E+03  0.15859644645E+03  0.00000000000E+00 0. -1.
         22    1    3    3    0    0 -0.16281901309E+03  0.15283635618E+02  0.26782550097E+02  0.16571338368E+03  0.00000000000E+00 0. -1.
         22    1    3    3    0    0 -0.40780345562E+02 -0.16084716839E+02  0.90225369041E+02  0.10031137482E+03  0.00000000000E+00 0. -1.
</event>
<event>
 7    1  0.6443388E-006  0.1146998E+03  0.7818608E-02  0.1252268E+00
          2   -1    0    0  502    0  0.00000000000E+00  0.00000000000E+00  0.10952012935E+04  0.10952012935E+04  0.00000000000E+00 0. -1.
          1   -1    0    0  501    0 -0.00000000000E+00 -0.00000000000E+00 -0.51023209585E+03  0.51023209585E+03  0.00000000000E+00 0. -1.
         25    2    1    2    0    0 -0.29766625430E+02  0.37497192404E+02 -0.62469387075E+02  0.14772095090E+03  0.12500785409E+03 0.  0.
          2    1    1    2  501    0  0.99214481720E+02  0.57554622127E+02 -0.39363442287E+03  0.41000500824E+03  0.00000000000E+00 0. -1.
          1    1    1    2  502    0 -0.69447856291E+02 -0.95051814531E+02  0.10410730076E+04  0.10477074302E+04  0.00000000000E+00 0. -1.
         22    1    3    3    0    0 -0.64831557843E+02 -0.16134791910E+02 -0.16375140449E+02  0.68786682047E+02  0.00000000000E+00 0. -1.
         22    1    3    3    0    0  0.35064932413E+02  0.53631984314E+02 -0.46094246626E+02  0.78934268848E+02  0.00000000000E+00 0. -1.
</event>
<event>
 7    1  0.6443388E-006  0.8484565E+02  0.7818608E-02  0.1432020E+00
          2   -1    0    0  502    0  0.00000000000E+00  0.00000000000E+00  0.64080880464E+03  0.64080880464E+03  0.00000000000E+00 0. -1.
          1   -1    0    0  501    0 -0.00000000000E+00 -0.00000000000E+00 -0.52708372520E+03  0.52708372520E+03  0.00000000000E+00 0. -1.
         25    2    1    2    0    0  0.10436741054E+03 -0.50808958374E+02  0.35859809715E+03  0.39710461429E+03  0.12500149108E+03 0.  0.
          2    1    1    2  501    0 -0.72729874748E+02  0.43132067580E+02 -0.50328215149E+03  0.51033609900E+03  0.00000000000E+00 0. -1.
          1    1    1    2  502    0 -0.31637535791E+02  0.76768907949E+01  0.25840913378E+03  0.26045181655E+03  0.00000000000E+00 0. -1.
         22    1    3    3    0    0  0.48009949506E+02 -0.20751621942E+02  0.25962156642E+02  0.58391939874E+02  0.00000000000E+00 0. -1.
         22    1    3    3    0    0  0.56357461033E+02 -0.30057336433E+02  0.33263594051E+03  0.33871267441E+03  0.00000000000E+00 0. -1.
</event>
<event>
 7    1  0.6443388E-006  0.5324481E+02  0.7818608E-02  0.1449657E+00
          2   -1    0    0  502    0  0.00000000000E+00  0.00000000000E+00  0.65972686504E+03  0.65972686504E+03  0.00000000000E+00 0. -1.
          1   -1    0    0  501    0 -0.00000000000E+00 -0.00000000000E+00 -0.55923491450E+03  0.55923491450E+03  0.00000000000E+00 0. -1.
         25    2    1    2    0    0  0.13900281051E+02  0.15660577872E+02  0.87534808535E+02  0.15401446465E+03  0.12497856257E+03 0.  0.
          2    1    1    2  501    0  0.13429739297E+02 -0.52011355459E+02 -0.52365924303E+03  0.52640720151E+03  0.00000000000E+00 0. -1.
          1    1    1    2  502    0 -0.27330020348E+02  0.36350777587E+02  0.53661638503E+03  0.53854011338E+03  0.00000000000E+00 0. -1.
         22    1    3    3    0    0  0.11143078674E+02 -0.11620661713E+02  0.11445887798E+03  0.11558565106E+03  0.00000000000E+00 0.  1.
         22    1    3    3    0    0  0.27572023765E+01  0.27281239586E+02 -0.26924069449E+02  0.38428813590E+02  0.00000000000E+00 0.  1.
</event>
<event>
 7    1  0.6443388E-006  0.3108026E+02  0.7818608E-02  0.1597128E+00
          2   -1    0    0  502    0  0.00000000000E+00  0.00000000000E+00  0.52048349463E+03  0.52048349463E+03  0.00000000000E+00 0. -1.
          1   -1    0    0  501    0 -0.00000000000E+00 -0.00000000000E+00 -0.84186861285E+03  0.84186861285E+03  0.00000000000E+00 0. -1.
         25    2    1    2    0    0 -0.65194105825E+01  0.20404429009E+02 -0.16905645313E+03  0.21133759528E+03  0.12499860557E+03 0.  0.
          2    1    1    2  501    0  0.31100229474E+02 -0.47809936077E+01 -0.65086648086E+03  0.65162662475E+03  0.00000000000E+00 0. -1.
          1    1    1    2  502    0 -0.24580818891E+02 -0.15623435401E+02  0.49853781577E+03  0.49938788746E+03  0.00000000000E+00 0. -1.
         22    1    3    3    0    0  0.30367369180E+02 -0.41221970552E+02 -0.45868080284E+02  0.68740881257E+02  0.00000000000E+00 0. -1.
         22    1    3    3    0    0 -0.36886779763E+02  0.61626399561E+02 -0.12318837285E+03  0.14259671402E+03  0.00000000000E+00 0. -1.
</event>
<event>
 7    1  0.6443388E-006  0.2873032E+03  0.7818608E-02  0.1217357E+00
          2   -1    0    0  502    0  0.00000000000E+00  0.00000000000E+00  0.51871054030E+03  0.51871054030E+03  0.00000000000E+00 0. -1.
          1   -1    0    0  501    0 -0.00000000000E+00 -0.00000000000E+00 -0.68094560977E+03  0.68094560977E+03  0.00000000000E+00 0. -1.
         25    2    1    2    0    0  0.54127970547E+02  0.31509044047E+03 -0.26361969496E+03  0.43281967239E+03  0.12500280942E+03 0.  0.
          2    1    1    2  501    0 -0.57261830031E+02 -0.31540684243E+02 -0.28228092956E+03  0.28975205803E+03  0.00000000000E+00 0. -1.
          1    1    1    2  502    0  0.31338594833E+01 -0.28354975623E+03  0.38366555505E+03  0.47708441965E+03  0.00000000000E+00 0. -1.
         22    1    3    3    0    0  0.57608464773E+01  0.38970920446E+01  0.12290984849E+02  0.14122428513E+02  0.00000000000E+00 0. -1.
         22    1    3    3    0    0  0.48367124070E+02  0.31119334843E+03 -0.27591067981E+03  0.41869724388E+03  0.00000000000E+00 0. -1.
</event>
<event>
 7    1  0.6443388E-006  0.2329809E+03  0.7818608E-02  0.1210415E+00
          2   -1    0    0  502    0  0.00000000000E+00  0.00000000000E+00  0.14501408679E+04  0.14501408679E+04  0.00000000000E+00 0. -1.
          1   -1    0    0  501    0 -0.00000000000E+00 -0.00000000000E+00 -0.11123952954E+04  0.11123952954E+04  0.00000000000E+00 0. -1.
         25    2    1    2    0    0  0.10415863498E+03 -0.13771477397E+03 -0.17860514988E+03  0.27810081478E+03  0.12500353359E+03 0.  0.
          2    1    1    2  501    0 -0.17731751185E+03  0.18438442753E+03 -0.86414575350E+03  0.90121418122E+03  0.00000000000E+00 0. -1.
          1    1    1    2  502    0  0.73158876873E+02 -0.46669653559E+02  0.13804964758E+04  0.13832211673E+04  0.00000000000E+00 0. -1.
         22    1    3    3    0    0 -0.10486450479E+02 -0.72914521153E+02 -0.10177274179E+03  0.12563512252E+03  0.00000000000E+00 0.  1.
         22    1    3    3    0    0  0.11464508546E+03 -0.64800252818E+02 -0.76832408088E+02  0.15246569227E+03  0.00000000000E+00 0.  1.
</event>
<event>
 7    1  0.6443388E-006  0.2318176E+03  0.7818608E-02  0.1267647E+00
          2   -1    0    0  502    0  0.00000000000E+00  0.00000000000E+00  0.14299320040E+04  0.14299320040E+04  0.00000000000E+00 0. -1.
          1   -1    0    0  501    0 -0.00000000000E+00 -0.00000000000E+00 -0.16047252424E+04  0.16047252424E+04  0.00000000000E+00 0. -1.
         25    2    1    2    0    0  0.17131285827E+03  0.16699981112E+03  0.10352476994E+03  0.28910176297E+03  0.12500167615E+03 0.  0.
          2    1    1    2  501    0 -0.41870561347E+02  0.24894164820E+02 -0.15006800568E+04  0.15014704446E+04  0.00000000000E+00 0. -1.
          1    1    1    2  502    0 -0.12944229692E+03 -0.19189397594E+03  0.12223620484E+04  0.12440850388E+04  0.00000000000E+00 0. -1.
         22    1    3    3    0    0  0.11002725439E+03  0.22937103306E+02  0.31176628239E+02  0.11663657045E+03  0.00000000000E+00 0.  1.
         22    1    3    3    0    0  0.61285603875E+02  0.14406270781E+03  0.72348141704E+02  0.17246519253E+03  0.00000000000E+00 0.  1.
</event>
<event>
 7    1  0.6443388E-006  0.1689707E+03  0.7818608E-02  0.1385351E+00
          2   -1    0    0  502    0  0.00000000000E+00  0.00000000000E+00  0.58451548973E+03  0.58451548973E+03  0.00000000000E+00 0. -1.
          1   -1    0    0  501    0 -0.00000000000E+00 -0.00000000000E+00 -0.21193505297E+04  0.21193505297E+04  0.00000000000E+00 0. -1.
         25    2    1    2    0    0  0.14876795932E+03 -0.27994811374E+01 -0.86080426569E+03  0.88246724018E+03  0.12499881337E+03 0.  0.
          2    1    1    2  501    0  0.20245902727E+02  0.12024420163E+02 -0.12351146726E+04  0.12353391185E+04  0.00000000000E+00 0. -1.
          1    1    1    2  502    0 -0.16901386205E+03 -0.92249390255E+01  0.56108389829E+03  0.58605966077E+03  0.00000000000E+00 0. -1.
         22    1    3    3    0    0  0.44580275985E+02  0.25981972318E+02 -0.87004663589E+02  0.10115471012E+03  0.00000000000E+00 0.  1.
         22    1    3    3    0    0  0.10418768334E+03 -0.28781453455E+02 -0.77379960210E+03  0.78131253006E+03  0.00000000000E+00 0.  1.
</event>
<event>
 7    1  0.6443388E-006  0.8172125E+02  0.7818608E-02  0.1340468E+00
          2   -1    0    0  502    0  0.00000000000E+00  0.00000000000E+00  0.56979031411E+03  0.56979031411E+03  0.00000000000E+00 0. -1.
          1   -1    0    0  501    0 -0.00000000000E+00 -0.00000000000E+00 -0.27259372341E+03  0.27259372341E+03  0.00000000000E+00 0. -1.
         25    2    1    2    0    0 -0.33981654814E+02 -0.10507245074E+02  0.23157792355E+03  0.26555272139E+03  0.12499903239E+03 0.  0.
          2    1    1    2  501    0 -0.70506162776E+02 -0.73061145566E+01 -0.24163035671E+03  0.25181288209E+03  0.00000000000E+00 0. -1.
          1    1    1    2  502    0  0.10448781759E+03  0.17813359630E+02  0.30724902387E+03  0.32501843405E+03  0.00000000000E+00 0. -1.
         22    1    3    3    0    0  0.17122857486E+02  0.19057902393E+02  0.19374292666E+03  0.19542957177E+03  0.00000000000E+00 0.  1.
         22    1    3    3    0    0 -0.51104512300E+02 -0.29565147467E+02  0.37834996885E+02  0.70123149612E+02  0.00000000000E+00 0.  1.
</event>
<event>
 7    1  0.6443388E-006  0.5644313E+02  0.7818608E-02  0.1485488E+00
          2   -1    0    0  502    0  0.00000000000E+00  0.00000000000E+00  0.21574877402E+04  0.21574877402E+04  0.00000000000E+00 0. -1.
          1   -1    0    0  501    0 -0.00000000000E+00 -0.00000000000E+00 -0.17849740876E+03  0.17849740876E+03  0.00000000000E+00 0. -1.
         25    2    1    2    0    0 -0.49863736984E+01  0.54966246554E+02  0.70250335131E+02  0.15364380625E+03  0.12500062971E+03 0.  0.
          2    1    1    2  501    0 -0.27765329889E+02 -0.49777086785E+02 -0.13072316533E+03  0.14260861779E+03  0.00000000000E+00 0. -1.
          1    1    1    2  502    0  0.32751703587E+02 -0.51891597696E+01  0.20394631616E+04  0.20397327249E+04  0.00000000000E+00 0. -1.
         22    1    3    3    0    0  0.37160297953E+02  0.59844722845E+02 -0.13048765917E+01  0.70455527103E+02  0.00000000000E+00 0.  1.
         22    1    3    3    0    0 -0.42146671652E+02 -0.48784762905E+01  0.71555211722E+02  0.83188279144E+02  0.00000000000E+00 0.  1.
</event>
<event>
 7    1  0.6443388E-006  0.4353795E+03  0.7818608E-02  0.1211367E+00
          2   -1    0    0  502    0  0.00000000000E+00  0.00000000000E+00  0.93523949100E+03  0.93523949100E+03  0.00000000000E+00 0. -1.
          1   -1    0    0  501    0 -0.00000000000E+00 -0.00000000000E+00 -0.11507494771E+04  0.11507494771E+04  0.00000000000E+00 0. -1.
         25    2    1    2    0    0 -0.38357651284E+03  0.97568897774E+02 -0.25399081275E+03  0.48660702794E+03  0.12499774265E+03 0.  0.
          2    1    1    2  501    0 -0.44709169600E+02  0.10681697713E+02 -0.72009073586E+03  0.72155642633E+03  0.00000000000E+00 0. -1.
          1    1    1    2  502    0  0.42828568244E+03 -0.10825059549E+03  0.75857156253E+03  0.87782551380E+03  0.00000000000E+00 0. -1.
         22    1    3    3    0    0 -0.26649902932E+03  0.20275073046E+02 -0.20898198245E+03  0.33927316459E+03  0.00000000000E+00 0.  1.
         22    1    3    3    0    0 -0.11707748352E+03  0.77293824729E+02 -0.45008830294E+02  0.14733386336E+03  0.00000000000E+00 0.  1.
</event>
<event>
 7    1  0.6443388E-006  0.1488711E+03  0.7818608E-02  0.1349038E+00
          2   -1    0    0  502    0  0.00000000000E+00  0.00000000000E+00  0.73059563299E+03  0.73059563299E+03  0.00000000000E+00 0. -1.
          1   -1    0    0  501    0 -0.00000000000E+00 -0.00000000000E+00 -0.84625804629E+03  0.84625804629E+03  0.00000000000E+00 0. -1.
         25    2    1    2    0    0  0.80247601663E+02 -0.14621412149E+03  0.42172458797E+03  0.47041977316E+03  0.12499955194E+03 0.  0.
          2    1    1    2  501    0 -0.44362544211E+02  0.14187544781E+03 -0.81400384932E+03  0.82746537373E+03  0.00000000000E+00 0. -1.
          1    1    1    2  502    0 -0.35885057451E+02  0.43386736816E+01  0.27661684805E+03  0.27896853238E+03  0.00000000000E+00 0. -1.
         22    1    3    3    0    0  0.74751557401E+02 -0.19304243338E+02  0.11586686488E+03  0.13923210665E+03  0.00000000000E+00 0.  1.
         22    1    3    3    0    0  0.54960442618E+01 -0.12690987816E+03  0.30585772309E+03  0.33118766651E+03  0.00000000000E+00 0.  1.
</event>
<event>
 7    1  0.6443388E-006  0.4622521E+02  0.7818608E-02  0.1511774E+00
          2   -1    0    0  502    0  0.00000000000E+00  0.00000000000E+00  0.96688544095E+02  0.96688544095E+02  0.00000000000E+00 0. -1.
          1   -1    0    0  501    0 -0.00000000000E+00 -0.00000000000E+00 -0.93234060946E+03  0.93234060946E+03  0.00000000000E+00 0. -1.
         25    2    1    2    0    0  0.22637935404E+02 -0.54880898354E+02  0.19051677170E+02  0.13968677261E+03  0.12500015567E+03 0.  0.
          2    1    1    2  501    0  0.13340216890E+02  0.31042377983E+02 -0.84426248310E+03  0.84493830011E+03  0.00000000000E+00 0. -1.
          1    1    1    2  502    0 -0.35978152294E+02  0.23838520371E+02 -0.10441259434E+02  0.44404080832E+02  0.00000000000E+00 0. -1.
         22    1    3    3    0    0  0.63017317954E+02 -0.52657622575E+02 -0.18854245643E+02  0.84258472310E+02  0.00000000000E+00 0. -1.
         22    1    3    3    0    0 -0.40379382550E+02 -0.22232757790E+01  0.37905922813E+02  0.55428300304E+02  0.00000000000E+00 0. -1.
</event>
<event>
 7    1  0.6443388E-006  0.1753518E+03  0.7818608E-02  0.1174614E+00
          2   -1    0    0  502    0  0.00000000000E+00  0.00000000000E+00  0.17577089293E+04  0.17577089293E+04  0.00000000000E+00 0. -1.
          1   -1    0    0  501    0 -0.00000000000E+00 -0.00000000000E+00 -0.83377743836E+03  0.83377743836E+03  0.00000000000E+00 0. -1.
         25    2    1    2    0    0  0.87854731068E+02 -0.67295498185E+02  0.31157125763E+02  0.16983417229E+03  0.12500296694E+03 0.  0.
          2    1    1    2  501    0  0.64891855253E+02  0.16290272655E+03 -0.74938911031E+03  0.76963126876E+03  0.00000000000E+00 0. -1.
          1    1    1    2  502    0 -0.15274658632E+03 -0.95607228364E+02  0.16421634755E+04  0.16520209266E+04  0.00000000000E+00 0. -1.
         22    1    3    3    0    0  0.22823747555E+02 -0.57336802510E+02 -0.39515301579E+02  0.73279543076E+02  0.00000000000E+00 0. -1.
         22    1    3    3    0    0  0.65030983514E+02 -0.99586956749E+01  0.70672427341E+02  0.96554629214E+02  0.00000000000E+00 0. -1.
</event>
<event>
 7    1  0.6443388E-006  0.1686594E+03  0.7818608E-02  0.1232752E+00
          2   -1    0    0  502    0  0.00000000000E+00  0.00000000000E+00  0.13683729558E+03  0.13683729558E+03  0.00000000000E+00 0. -1.
          1   -1    0    0  501    0 -0.00000000000E+00 -0.00000000000E+00 -0.93753353218E+03  0.93753353218E+03  0.00000000000E+00 0. -1.
         25    2    1    2    0    0  0.76420774666E+02 -0.23443491571E+03 -0.11387751958E+03  0.29898788990E+03  0.12500321732E+03 0.  0.
          2    1    1    2  501    0 -0.17632019237E+02  0.15997450476E+03 -0.65626748356E+03  0.67571424452E+03  0.00000000000E+00 0. -1.
          1    1    1    2  502    0 -0.58788755429E+02  0.74460410950E+02 -0.30551233467E+02  0.99668693330E+02  0.00000000000E+00 0. -1.
         22    1    3    3    0    0  0.19355092164E+02 -0.61869821467E+02 -0.96704191265E+02  0.11642248498E+03  0.00000000000E+00 0.  1.
         22    1    3    3    0    0  0.57065682502E+02 -0.17256509424E+03 -0.17173328314E+02  0.18256540492E+03  0.00000000000E+00 0.  1.
</event>
<event>
 7    1  0.6443388E-006  0.1038602E+03  0.7818608E-02  0.1285919E+00
          2   -1    0    0  502    0  0.00000000000E+00  0.00000000000E+00  0.11132037221E+04  0.11132037221E+04  0.00000000000E+00 0. -1.
          1   -1    0    0  501    0 -0.00000000000E+00 -0.00000000000E+00 -0.15203084667E+03  0.15203084667E+03  0.00000000000E+00 0. -1.
         25    2    1    2    0    0  0.18694440834E+03 -0.10232535664E+01 -0.17407531953E+01  0.22489510608E+03  0.12500207861E+03 0.  0.
          2    1    1    2  501    0 -0.87819889533E+02  0.24934019866E+02  0.21983694388E+02  0.93900591922E+02  0.00000000000E+00 0. -1.
          1    1    1    2  502    0 -0.99124518809E+02 -0.23910766300E+02  0.94092993419E+03  0.94643887073E+03  0.00000000000E+00 0. -1.
         22    1    3    3    0    0  0.57671351690E+02  0.46696584518E+02  0.35342950504E+02  0.82192943503E+02  0.00000000000E+00 0.  1.
         22    1    3    3    0    0  0.12927305665E+03 -0.47719838084E+02 -0.37083703699E+02  0.14270216257E+03  0.00000000000E+00 0.  1.
</event>
<event>
 7    1  0.6443388E-006  0.4445397E+02  0.7818608E-02  0.1480142E+00
          2   -1    0    0  502    0  0.00000000000E+00  0.00000000000E+00  0.65317865603E+03  0.65317865603E+03  0.00000000000E+00 0. -1.
          1   -1    0    0  501    0 -0.00000000000E+00 -0.00000000000E+00 -0.38586660947E+03  0.38586660947E+03  0.00000000000E+00 0. -1.
         25    2    1    2    0    0  0.30099367339E+02 -0.33901196328E+02 -0.10113230693E+03  0.16705813043E+03  0.12500164964E+03 0.  0.
          2    1    1    2  501    0 -0.44128539937E+02 -0.82810058941E+01 -0.24896414983E+03  0.25298033718E+03  0.00000000000E+00 0. -1.
          1    1    1    2  502    0  0.14029172598E+02  0.42182202222E+02  0.61740850332E+03  0.61900679790E+03  0.00000000000E+00 0. -1.
         22    1    3    3    0    0  0.46987954305E+02 -0.59389818490E+02 -0.11148794578E+03  0.13477603810E+03  0.00000000000E+00 0.  1.
         22    1    3    3    0    0 -0.16888586966E+02  0.25488622162E+02  0.10355638854E+02  0.32282092335E+02  0.00000000000E+00 0.  1.
</event>
<event>
 7    1  0.6443388E-006  0.5452879E+02  0.7818608E-02  0.1550018E+00
          2   -1    0    0  502    0  0.00000000000E+00  0.00000000000E+00  0.27462965341E+03  0.27462965341E+03  0.00000000000E+00 0. -1.
          1   -1    0    0  501    0 -0.00000000000E+00 -0.00000000000E+00 -0.55757884470E+03  0.55757884470E+03  0.00000000000E+00 0. -1.
         25    2    1    2    0    0 -0.29100161786E+02 -0.24080130348E+02  0.18847433533E+03  0.22929081896E+03  0.12500012996E+03 0.  0.
          2    1    1    2  501    0  0.50944409760E+02  0.19790771698E+02 -0.53385021176E+03  0.53664052784E+03  0.00000000000E+00 0. -1.
          1    1    1    2  502    0 -0.21844247974E+02  0.42893586507E+01  0.62426685140E+02  0.66277151302E+02  0.00000000000E+00 0. -1.
         22    1    3    3    0    0 -0.32401469896E+02  0.14130535149E+02 -0.16008048701E+01  0.35384881677E+02  0.00000000000E+00 0. -1.
         22    1    3    3    0    0  0.33013081107E+01 -0.38210665497E+02  0.19007514020E+03  0.19390593728E+03  0.00000000000E+00 0. -1.
</event>
<event>
 7    1  0.6443388E-006  0.1482725E+03  0.7818608E-02  0.1368880E+00
          2   -1    0    0  502    0  0.00000000000E+00  0.00000000000E+00  0.29333400224E+04  0.29333400224E+04  0.00000000000E+00 0. -1.
          1   -1    0    0  501    0 -0.00000000000E+00 -0.00000000000E+00 -0.22154713198E+02  0.22154713198E+02  0.00000000000E+00 0. -1.
         25    2    1    2    0    0 -0.67034676311E+01 -0.13079289347E+03  0.19459761212E+04  0.19543796435E+04  0.12500003762E+03 0.  0.
          2    1    1    2  501    0 -0.16871461895E+02  0.15047401130E+03  0.30818009752E+03  0.34336867477E+03  0.00000000000E+00 0. -1.
          1    1    1    2  502    0  0.23574929526E+02 -0.19681117824E+02  0.65702909047E+03  0.65774641726E+03  0.00000000000E+00 0. -1.
         22    1    3    3    0    0  0.35552216502E+02 -0.13222276476E+03  0.13578168243E+04  0.13647026592E+04  0.00000000000E+00 0.  1.
         22    1    3    3    0    0 -0.42255684133E+02  0.14298712909E+01  0.58815929683E+03  0.58967698431E+03  0.00000000000E+00 0.  1.
</event>
<event>
 7    1  0.6443388E-006  0.4541995E+02  0.7818608E-02  0.1544586E+00
          2   -1    0    0  502    0  0.00000000000E+00  0.00000000000E+00  0.78789164128E+03  0.78789164128E+03  0.00000000000E+00 0. -1.
          1   -1    0    0  501    0 -0.00000000000E+00 -0.00000000000E+00 -0.26033255434E+03  0.26033255434E+03  0.00000000000E+00 0. -1.
         25    2    1    2    0    0  0.22454285311E+02  0.56887941216E+02 -0.27949342398E+02  0.14193631764E+03  0.12499727893E+03 0.  0.
          2    1    1    2  501    0 -0.32408326735E+02 -0.31061462458E+02 -0.17224999924E+03  0.17800330426E+03  0.00000000000E+00 0. -1.
          1    1    1    2  502    0  0.99540414238E+01 -0.25826478758E+02  0.72775842858E+03  0.72828457372E+03  0.00000000000E+00 0. -1.
         22    1    3    3    0    0 -0.52064699655E+02  0.21249610527E+02 -0.16060631149E+02  0.58482670687E+02  0.00000000000E+00 0.  1.
         22    1    3    3    0    0  0.74518984966E+02  0.35638330689E+02 -0.11888711249E+02  0.83453646954E+02  0.00000000000E+00 0.  1.
</event>
<event>
 7    1  0.6443388E-006  0.8411916E+02  0.7818608E-02  0.1324880E+00
          2   -1    0    0  502    0  0.00000000000E+00  0.00000000000E+00  0.28659864323E+03  0.28659864323E+03  0.00000000000E+00 0. -1.
          1   -1    0    0  501    0 -0.00000000000E+00 -0.00000000000E+00 -0.13063492554E+04  0.13063492554E+04  0.00000000000E+00 0. -1.
         25    2    1    2    0    0 -0.13553983058E+03  0.30625682609E+01 -0.23115304987E+03  0.29569912067E+03  0.12500324997E+03 0.  0.
          2    1    1    2  501    0  0.64152294667E+02 -0.45999503282E+02 -0.10345572251E+04  0.10375645152E+04  0.00000000000E+00 0. -1.
          1    1    1    2  502    0  0.71387535910E+02  0.42936935021E+02  0.24595966273E+03  0.25968426283E+03  0.00000000000E+00 0. -1.
         22    1    3    3    0    0 -0.12907339974E+03 -0.40585639710E+02 -0.14151733385E+03  0.19579145143E+03  0.00000000000E+00 0. -1.
         22    1    3    3    0    0 -0.64664308337E+01  0.43648207971E+02 -0.89635716017E+02  0.99907669239E+02  0.00000000000E+00 0. -1.
</event>
<event>
 7    1  0.6443388E-006  0.7783441E+02  0.7818608E-02  0.1396105E+00
          2   -1    0    0  502    0  0.00000000000E+00  0.00000000000E+00  0.38135525559E+03  0.38135525559E+03  0.00000000000E+00 0. -1.
          1   -1    0    0  501    0 -0.00000000000E+00 -0.00000000000E+00 -0.52145486215E+03  0.52145486215E+03  0.00000000000E+00 0. -1.
         25    2    1    2    0    0 -0.76624630188E+02  0.54217581123E+02  0.69006208518E+02  0.17086640586E+03  0.12499036676E+03 0.  0.
          2    1    1    2  501    0  0.77382131318E+02 -0.73321788268E+01 -0.46517102539E+03  0.47162043845E+03  0.00000000000E+00 0. -1.
          1    1    1    2  502    0 -0.75750112940E+00 -0.46885402296E+02  0.25606521032E+03  0.26032327343E+03  0.00000000000E+00 0. -1.
         22    1    3    3    0    0  0.63504949335E+01 -0.28251773739E+02  0.41643569338E+02  0.50721576992E+02  0.00000000000E+00 0.  1.
         22    1    3    3    0    0 -0.82975125122E+02  0.82469354862E+02  0.27362639179E+02  0.12014482887E+03  0.00000000000E+00 0.  1.
</event>
<event>
 7    1  0.6443388E-006  0.2747784E+03  0.7818608E-02  0.1299046E+00
          2   -1    0    0  502    0  0.00000000000E+00  0.00000000000E+00  0.23148737461E+04  0.23148737461E+04  0.00000000000E+00 0. -1.
          1   -1    0    0  501    0 -0.00000000000E+00 -0.00000000000E+00 -0.33344388807E+03  0.33344388807E+03  0.00000000000E+00 0. -1.
         25    2    1    2    0    0  0.24350093215E+03 -0.15564075463E+03 -0.19639830124E+02  0.31548115273E+03  0.12500354533E+03 0.  0.
          2    1    1    2  501    0 -0.21302367514E+03  0.15741844927E+03 -0.59961840615E+02  0.27157885903E+03  0.00000000000E+00 0. -1.
          1    1    1    2  502    0 -0.30477257002E+02 -0.17776946396E+01  0.20610315288E+04  0.20612576224E+04  0.00000000000E+00 0. -1.
         22    1    3    3    0    0  0.23792757285E+03 -0.12981444842E+03  0.15542520928E+02  0.27148276354E+03  0.00000000000E+00 0.  1.
         22    1    3    3    0    0  0.55733592942E+01 -0.25826306206E+02 -0.35182351052E+02  0.43998389193E+02  0.00000000000E+00 0.  1.
</event>
<event>
 7    1  0.6443388E-006  0.6037248E+02  0.7818608E-02  0.1443478E+00
          2   -1    0    0  502    0  0.00000000000E+00  0.00000000000E+00  0.11275030112E+03  0.11275030112E+03  0.00000000000E+00 0. -1.
          1   -1    0    0  501    0 -0.00000000000E+00 -0.00000000000E+00 -0.29530234920E+03  0.29530234920E+03  0.00000000000E+00 0. -1.
         25    2    1    2    0    0 -0.45247443898E+02 -0.36067619714E+02 -0.10932305365E+03  0.17585546741E+03  0.12500164394E+03 0.  0.
          2    1    1    2  501    0  0.33992449866E+02 -0.24645433233E+02 -0.13708429526E+03  0.14337010858E+03  0.00000000000E+00 0. -1.
          1    1    1    2  502    0  0.11254994031E+02  0.60713052947E+02  0.63855300834E+02  0.88827074326E+02  0.00000000000E+00 0. -1.
         22    1    3    3    0    0 -0.17317050057E+02  0.36146787686E+02 -0.86177795422E+02  0.95042532092E+02  0.00000000000E+00 0.  1.
         22    1    3    3    0    0 -0.27930393841E+02 -0.72214407399E+02 -0.23145258232E+02  0.80812935318E+02  0.00000000000E+00 0.  1.
</event>
<event>
 7    1  0.6443388E-006  0.6711535E+02  0.7818608E-02  0.1378972E+00
          2   -1    0    0  502    0  0.00000000000E+00  0.00000000000E+00  0.64751904228E+03  0.64751904228E+03  0.00000000000E+00 0. -1.
          1   -1    0    0  501    0 -0.00000000000E+00 -0.00000000000E+00 -0.37924475701E+03  0.37924475701E+03  0.00000000000E+00 0. -1.
         25    2    1    2    0    0 -0.14618402303E+01 -0.78267924991E+01  0.20712522678E+03  0.24205935965E+03  0.12501391269E+03 0.  0.
          2    1    1    2  501    0  0.54928869137E+02  0.40073625343E+02 -0.35624017821E+03  0.36267084344E+03  0.00000000000E+00 0. -1.
          1    1    1    2  502    0 -0.53467028907E+02 -0.32246832844E+02  0.41738923669E+03  0.42203359619E+03  0.00000000000E+00 0. -1.
         22    1    3    3    0    0  0.33901306337E+01  0.26506788190E+02  0.20562294212E+03  0.20735210906E+03  0.00000000000E+00 0. -1.
         22    1    3    3    0    0 -0.48519708639E+01 -0.34333580689E+02  0.15022846616E+01  0.34707250588E+02  0.00000000000E+00 0. -1.
</event>
<event>
 7    1  0.7412338E-006  0.4665919E+02  0.7818608E-02  0.1502110E+00
          2   -1    0    0  502    0  0.00000000000E+00  0.00000000000E+00  0.11828272295E+04  0.11828272295E+04  0.00000000000E+00 0. -1.
          1   -1    0    0  501    0 -0.00000000000E+00 -0.00000000000E+00 -0.83234750045E+03  0.83234750045E+03  0.00000000000E+00 0. -1.
         25    2    1    2    0    0 -0.33075482219E+02 -0.18062299214E+02 -0.39203968415E+03  0.41320796246E+03  0.12500188844E+03 0.  0.
          2    1    1    2  501    0  0.12890152387E+02  0.47567102561E+02 -0.42803690738E+03  0.43086468798E+03  0.00000000000E+00 0. -1.
          1    1    1    2  502    0  0.20185329831E+02 -0.29504803347E+02  0.11705563206E+04  0.11711020795E+04  0.00000000000E+00 0. -1.
         22    1    3    3    0    0 -0.61063116811E+02  0.23348860003E+02 -0.12035773178E+03  0.13696662768E+03  0.00000000000E+00 0.  1.
         22    1    3    3    0    0  0.27987634592E+02 -0.41411159217E+02 -0.27168195237E+03  0.27624133478E+03  0.00000000000E+00 0.  1.
</event>
<event>
 7    1  0.6443388E-006  0.1312144E+03  0.7818608E-02  0.1384769E+00
          2   -1    0    0  502    0  0.00000000000E+00  0.00000000000E+00  0.42074005616E+03  0.42074005616E+03  0.00000000000E+00 0. -1.
          1   -1    0    0  501    0 -0.00000000000E+00 -0.00000000000E+00 -0.12170426064E+03  0.12170426064E+03  0.00000000000E+00 0. -1.
         25    2    1    2    0    0  0.10689114600E+03  0.15507014155E+02  0.65062089669E+02  0.17755100652E+03  0.12500039929E+03 0.  0.
          2    1    1    2  501    0  0.30376797513E+02 -0.23336994525E+01 -0.44625696090E+02  0.54033773992E+02  0.00000000000E+00 0. -1.
          1    1    1    2  502    0 -0.13726794351E+03 -0.13173314702E+02  0.27859940195E+03  0.31085953629E+03  0.00000000000E+00 0. -1.
         22    1    3    3    0    0  0.22370692236E+02 -0.29014061463E+02 -0.26508944092E+02  0.45221540781E+02  0.00000000000E+00 0. -1.
         22    1    3    3    0    0  0.84520453763E+02  0.44521075618E+02  0.91571033761E+02  0.13232946574E+03  0.00000000000E+00 0. -1.
</event>
<event>
 7    1  0.6443388E-006  0.3297148E+03  0.7818608E-02  0.1263279E+00
          2   -1    0    0  502    0  0.00000000000E+00  0.00000000000E+00  0.47489617958E+03  0.47489617958E+03  0.00000000000E+00 0. -1.
          1   -1    0    0  501    0 -0.00000000000E+00 -0.00000000000E+00 -0.22256474436E+04  0.22256474436E+04  0.00000000000E+00 0. -1.
         25    2    1    2    0    0  0.32596665946E+03  0.12193320883E+02 -0.40940795953E+03  0.53818674490E+03  0.12500861934E+03 0.  0.
          2    1    1    2  501    0  0.36509496407E+01 -0.35550322031E+02 -0.16851308403E+04  0.16855097460E+04  0.00000000000E+00 0. -1.
          1    1    1    2  502    0 -0.32961760910E+03  0.23357001148E+02  0.34378753586E+03  0.47684713226E+03  0.00000000000E+00 0. -1.
         22    1    3    3    0    0  0.25703385068E+03  0.54690953160E+02 -0.26871393539E+03  0.37585193870E+03  0.00000000000E+00 0. -1.
         22    1    3    3    0    0  0.68932808776E+02 -0.42497632277E+02 -0.14069402414E+03  0.16233480620E+03  0.00000000000E+00 0. -1.
</event>
<event>
 7    1  0.6443388E-006  0.4753250E+02  0.7818608E-02  0.1478667E+00
          2   -1    0    0  502    0  0.00000000000E+00  0.00000000000E+00  0.19907079543E+03  0.19907079543E+03  0.00000000000E+00 0. -1.
          1   -1    0    0  501    0 -0.00000000000E+00 -0.00000000000E+00 -0.20916590072E+04  0.20916590072E+04  0.00000000000E+00 0. -1.
         25    2    1    2    0    0 -0.28855368520E+02  0.40507909224E+02  0.27355346454E+02  0.13727910770E+03  0.12499486161E+03 0.  0.
          2    1    1    2  501    0 -0.12089192950E+02 -0.46024126206E+02 -0.20327550522E+04  0.20333119463E+04  0.00000000000E+00 0. -1.
          1    1    1    2  502    0  0.40944561471E+02  0.55162169827E+01  0.11281149394E+03  0.12013874866E+03  0.00000000000E+00 0. -1.
         22    1    3    3    0    0  0.14059841020E+02  0.39841585519E+01 -0.43994940281E+02  0.46358466532E+02  0.00000000000E+00 0.  1.
         22    1    3    3    0    0 -0.42915209540E+02  0.36523750672E+02  0.71350286735E+02  0.90920641167E+02  0.00000000000E+00 0.  1.
</event>
<event>
 7    1  0.6443388E-006  0.6480391E+02  0.7818608E-02  0.1487637E+00
          2   -1    0    0  502    0  0.00000000000E+00  0.00000000000E+00  0.24009915168E+04  0.24009915168E+04  0.00000000000E+00 0. -1.
          1   -1    0    0  501    0 -0.00000000000E+00 -0.00000000000E+00 -0.75924225259E+03  0.75924225259E+03  0.00000000000E+00 0. -1.
         25    2    1    2    0    0 -0.33897660665E+02 -0.67242228397E+02  0.60649704415E+03  0.62380483031E+03  0.12499293211E+03 0.  0.
          2    1    1    2  501    0 -0.14368023794E+02  0.24556055759E+02 -0.74973726603E+03  0.75027688759E+03  0.00000000000E+00 0. -1.
          1    1    1    2  502    0  0.48265684458E+02  0.42686172638E+02  0.17849894860E+04  0.17861520514E+04  0.00000000000E+00 0. -1.
         22    1    3    3    0    0  0.38868999309E+00 -0.92274335835E+02  0.51146143362E+03  0.51971867603E+03  0.00000000000E+00 0.  1.
         22    1    3    3    0    0 -0.34286350658E+02  0.25032107438E+02  0.95035610539E+02  0.10408615429E+03  0.00000000000E+00 0.  1.
</event>
<event>
 7    1  0.6443388E-006  0.1311475E+03  0.7818608E-02  0.1313584E+00
          2   -1    0    0  502    0  0.00000000000E+00  0.00000000000E+00  0.54035366118E+03  0.54035366118E+03  0.00000000000E+00 0. -1.
          1   -1    0    0  501    0 -0.00000000000E+00 -0.00000000000E+00 -0.44177439588E+03  0.44177439588E+03  0.00000000000E+00 0. -1.
         25    2    1    2    0    0 -0.69899356167E+02 -0.71819127777E+02 -0.16990654685E+03  0.23353131577E+03  0.12499893469E+03 0.  0.
          2    1    1    2  501    0  0.10412459821E+03  0.11616345777E+03 -0.21291478933E+03  0.26394807896E+03  0.00000000000E+00 0. -1.
          1    1    1    2  502    0 -0.34225242047E+02 -0.44344329991E+02  0.48140060148E+03  0.48464866233E+03  0.00000000000E+00 0. -1.
         22    1    3    3    0    0 -0.56861356345E+02 -0.23748859749E+02 -0.56392587473E+01  0.61879103291E+02  0.00000000000E+00 0. -1.
         22    1    3    3    0    0 -0.13037999821E+02 -0.48070268028E+02 -0.16426728810E+03  0.17165221248E+03  0.00000000000E+00 0. -1.
</event>
<event>
 7    1  0.6443388E-006  0.7402309E+02  0.7818608E-02  0.1381781E+00
          2   -1    0    0  502    0  0.00000000000E+00  0.00000000000E+00  0.28611076817E+04  0.28611076817E+04  0.00000000000E+00 0. -1.
          1   -1    0    0  501    0 -0.00000000000E+00 -0.00000000000E+00 -0.29216410396E+02  0.29216410396E+02  0.00000000000E+00 0. -1.
         25    2    1    2    0    0 -0.84918759634E+02  0.22719551858E+02  0.71923281655E+03  0.73528766353E+03  0.12499891988E+03 0.  0.
          2    1    1    2  501    0  0.43994097705E+02 -0.59956901388E+02  0.45591303789E+02  0.87228880757E+02  0.00000000000E+00 0. -1.
          1    1    1    2  502    0  0.40924661929E+02  0.37237349530E+02  0.20670671510E+04  0.20678075478E+04  0.00000000000E+00 0. -1.
         22    1    3    3    0    0 -0.11008133222E+03 -0.10988270412E+02  0.50773308899E+03  0.51964558253E+03  0.00000000000E+00 0. -1.
         22    1    3    3    0    0  0.25162572590E+02  0.33707822270E+02  0.21149972756E+03  0.21564208100E+03  0.00000000000E+00 0. -1.
</event>
<event>
 7    1  0.6443388E-006  0.3998445E+02  0.7818608E-02  0.1550996E+00
          2   -1    0    0  502    0  0.00000000000E+00  0.00000000000E+00  0.23610365437E+03  0.23610365437E+03  0.00000000000E+00 0. -1.
          1   -1    0    0  501    0 -0.00000000000E+00 -0.00000000000E+00 -0.50634131522E+03  0.50634131522E+03  0.00000000000E+00 0. -1.
         25    2    1    2    0    0  0.30065009045E+02  0.61377029638E+02 -0.62178934479E+02  0.15544202391E+03  0.12499983347E+03 0.  0.
          2    1    1    2  501    0 -0.70172009669E+01 -0.29341491210E+02 -0.39489418552E+03  0.39604492419E+03  0.00000000000E+00 0. -1.
          1    1    1    2  502    0 -0.23047808078E+02 -0.32035538428E+02  0.18683545915E+03  0.19095802150E+03  0.00000000000E+00 0. -1.
         22    1    3    3    0    0  0.49447330188E+02 -0.15231916332E+02 -0.55900320976E+02  0.76170175417E+02  0.00000000000E+00 0. -1.
         22    1    3    3    0    0 -0.19382321143E+02  0.76608945970E+02 -0.62786135029E+01  0.79271848491E+02  0.00000000000E+00 0. -1.
</event>
<event>
 7    1  0.6443388E-006  0.3425868E+02  0.7818608E-02  0.1558721E+00
          2   -1    0    0  502    0  0.00000000000E+00  0.00000000000E+00  0.63156628837E+02  0.63156628837E+02  0.00000000000E+00 0. -1.
          1   -1    0    0  501    0 -0.00000000000E+00 -0.00000000000E+00 -0.11233166189E+04  0.11233166189E+04  0.00000000000E+00 0. -1.
         25    2    1    2    0    0 -0.50330865547E+02  0.21681998626E+02 -0.20392674592E+03  0.24538620497E+03  0.12499986719E+03 0.  0.
          2    1    1    2  501    0  0.17658795671E+02 -0.29162530087E+02 -0.89166341265E+03  0.89231492629E+03  0.00000000000E+00 0. -1.
          1    1    1    2  502    0  0.32672069875E+02  0.74805314606E+01  0.35430168531E+02  0.48772116450E+02  0.00000000000E+00 0. -1.
         22    1    3    3    0    0 -0.24457282184E+02 -0.47165667734E+02 -0.42650892473E+02  0.68131178570E+02  0.00000000000E+00 0. -1.
         22    1    3    3    0    0 -0.25873583363E+02  0.68847666361E+02 -0.16127585345E+03  0.17725502640E+03  0.00000000000E+00 0. -1.
</event>
<event>
 7    1  0.6443388E-006  0.3805693E+02  0.7818608E-02  0.1575205E+00
          2   -1    0    0  502    0  0.00000000000E+00  0.00000000000E+00  0.15356307693E+03  0.15356307693E+03  0.00000000000E+00 0. -1.
          1   -1    0    0  501    0 -0.00000000000E+00 -0.00000000000E+00 -0.53241073239E+03  0.53241073239E+03  0.00000000000E+00 0. -1.
         25    2    1    2    0    0  0.37834312946E+02 -0.20258012465E+02 -0.45582525366E+03  0.47459820565E+03  0.12499989052E+03 0.  0.
          2    1    1    2  501    0 -0.22856156117E+02 -0.14754467924E+02 -0.61770727769E+02  0.67496081407E+02  0.00000000000E+00 0. -1.
          1    1    1    2  502    0 -0.14978156828E+02  0.35012480389E+02  0.13874832597E+03  0.14387952225E+03  0.00000000000E+00 0. -1.
         22    1    3    3    0    0  0.10860718834E+02  0.99168056211E+00 -0.43350713848E+03  0.43364429866E+03  0.00000000000E+00 0. -1.
         22    1    3    3    0    0  0.26973594111E+02 -0.21249693027E+02 -0.22318115178E+02  0.40953906995E+02  0.00000000000E+00 0. -1.
</event>
<event>
 7    1  0.6443388E-006  0.5402989E+02  0.7818608E-02  0.1518393E+00
          2   -1    0    0  502    0  0.00000000000E+00  0.00000000000E+00  0.66919024946E+03  0.66919024946E+03  0.00000000000E+00 0. -1.
          1   -1    0    0  501    0 -0.00000000000E+00 -0.00000000000E+00 -0.10297759959E+04  0.10297759959E+04  0.00000000000E+00 0. -1.
         25    2    1    2    0    0  0.54797848839E+02 -0.54981119057E+02  0.20033408892E+03  0.24856581429E+03  0.12500195663E+03 0.  0.
          2    1    1    2  501    0 -0.25104160356E+02  0.11581815819E+02 -0.10039147611E+04  0.10042953773E+04  0.00000000000E+00 0. -1.
          1    1    1    2  502    0 -0.29693688483E+02  0.43399303238E+02  0.44299492580E+03  0.44610505371E+03  0.00000000000E+00 0. -1.
         22    1    3    3    0    0  0.56091374240E+02 -0.91667620180E+02  0.12559106174E+03  0.16529461468E+03  0.00000000000E+00 0.  1.
         22    1    3    3    0    0 -0.12935254012E+01  0.36686501123E+02  0.74743027175E+02  0.83271199607E+02  0.00000000000E+00 0.  1.
</event>
<event>
 7    1  0.6443388E-006  0.8190946E+02  0.7818608E-02  0.1411520E+00
          2   -1    0    0  502    0  0.00000000000E+00  0.00000000000E+00  0.77489575403E+03  0.77489575403E+03  0.00000000000E+00 0. -1.
          1   -1    0    0  501    0 -0.00000000000E+00 -0.00000000000E+00 -0.59780462742E+03  0.59780462742E+03  0.00000000000E+00 0. -1.
         25    2    1    2    0    0 -0.63824002465E+02 -0.50857557040E+02 -0.56851599431E+02  0.15974352133E+03  0.12500357534E+03 0.  0.
          2    1    1    2  501    0 -0.16876431375E+02  0.35675296271E+02 -0.48637504111E+03  0.48797358670E+03  0.00000000000E+00 0. -1.
          1    1    1    2  502    0  0.80700433840E+02  0.15182260769E+02  0.72031776716E+03  0.72498327343E+03  0.00000000000E+00 0. -1.
         22    1    3    3    0    0 -0.67967449676E+02 -0.86603006829E+02 -0.56535152009E+02  0.12375733683E+03  0.00000000000E+00 0. -1.
         22    1    3    3    0    0  0.41434472111E+01  0.35745449789E+02 -0.31644742175E+00  0.35986184493E+02  0.00000000000E+00 0. -1.
</event>
<event>
 7    1  0.6443388E-006  0.4577394E+02  0.7818608E-02  0.1568095E+00
          2   -1    0    0  502    0  0.00000000000E+00  0.00000000000E+00  0.33308509507E+02  0.33308509507E+02  0.00000000000E+00 0. -1.
          1   -1    0    0  501    0 -0.00000000000E+00 -0.00000000000E+00 -0.10569574600E+04  0.10569574600E+04  0.00000000000E+00 0. -1.
         25    2    1    2    0    0 -0.21821168253E+02  0.10308318131E+02 -0.37402279934E+03  0.39509369119E+03  0.12499418220E+03 0.  0.
          2    1    1    2  501    0 -0.23461279834E+02  0.29396984027E+01 -0.64751279486E+03  0.64794435948E+03  0.00000000000E+00 0. -1.
          1    1    1    2  502    0  0.45282448087E+02 -0.13248016533E+02 -0.21133563379E+01  0.47227918881E+02  0.00000000000E+00 0. -1.
         22    1    3    3    0    0 -0.22939013570E+02  0.11317971091E+02 -0.49943918861E+01  0.26062209490E+02  0.00000000000E+00 0.  1.
         22    1    3    3    0    0  0.11178453172E+01 -0.10096529603E+01 -0.36902840745E+03  0.36903148170E+03  0.00000000000E+00 0.  1.
</event>
<event>
 7    1  0.6443388E-006  0.9025417E+02  0.7818608E-02  0.1395728E+00
          2   -1    0    0  502    0  0.00000000000E+00  0.00000000000E+00  0.11620569326E+04  0.11620569326E+04  0.00000000000E+00 0. -1.
          1   -1    0    0  501    0 -0.00000000000E+00 -0.00000000000E+00 -0.31610369192E+02  0.31610369192E+02  0.00000000000E+00 0. -1.
         25    2    1    2    0    0 -0.55932469719E+02  0.47469616084E+02  0.62674209521E+03  0.64328251396E+03  0.12499973296E+03 0.  0.
          2    1    1    2  501    0  0.90175781622E+02 -0.25731146558E+02  0.75846844004E+02  0.12060890199E+03  0.00000000000E+00 0. -1.
          1    1    1    2  502    0 -0.34243311903E+02 -0.21738469526E+02  0.42785762421E+03  0.42977588586E+03  0.00000000000E+00 0. -1.
         22    1    3    3    0    0 -0.25845363699E+02  0.82249485939E+02  0.26604767531E+03  0.27966824328E+03  0.00000000000E+00 0.  1.
         22    1    3    3    0    0 -0.30087106020E+02 -0.34779869854E+02  0.36069441990E+03  0.36361427068E+03  0.00000000000E+00 0.  1.
</event>
<event>
 7    1  0.6443388E-006  0.1135764E+03  0.7818608E-02  0.1349241E+00
          2   -1    0    0  502    0  0.00000000000E+00  0.00000000000E+00  0.52446869846E+03  0.52446869846E+03  0.00000000000E+00 0. -1.
          1   -1    0    0  501    0 -0.00000000000E+00 -0.00000000000E+00 -0.99816229600E+03  0.99816229600E+03  0.00000000000E+00 0. -1.
         25    2    1    2    0    0  0.12403034979E+03 -0.12868407474E+02 -0.71162612307E+02  0.19036812692E+03  0.12500713091E+03 0.  0.
          2    1    1    2  501    0 -0.10884219632E+03 -0.31923404316E+02 -0.86247087689E+03  0.86989754623E+03  0.00000000000E+00 0. -1.
          1    1    1    2  502    0 -0.15188153471E+02  0.44791811790E+02  0.45993989166E+03  0.46236532131E+03  0.00000000000E+00 0. -1.
         22    1    3    3    0    0  0.85618984720E+02 -0.55391635976E+02 -0.39602900986E+01  0.10205159371E+03  0.00000000000E+00 0.  1.
         22    1    3    3    0    0  0.38411365071E+02  0.42523228501E+02 -0.67202322209E+02  0.88316533215E+02  0.00000000000E+00 0.  1.
</event>
<event>
 7    1  0.6443388E-006  0.1844863E+03  0.7818608E-02  0.1173213E+00
          2   -1    0    0  502    0  0.00000000000E+00  0.00000000000E+00  0.99591741633E+03  0.99591741633E+03  0.00000000000E+00 0. -1.
          1   -1    0    0  501    0 -0.00000000000E+00 -0.00000000000E+00 -0.69578947055E+03  0.69578947055E+03  0.00000000000E+00 0. -1.
         25    2    1    2    0    0  0.20376650992E+03  0.23439627277E+03  0.33262742148E+03  0.47194159480E+03  0.12500185648E+03 0.  0.
          2    1    1    2  501    0 -0.16550513972E+03 -0.73796621446E+02 -0.60102751440E+03  0.62775151587E+03  0.00000000000E+00 0. -1.
          1    1    1    2  502    0 -0.38261370194E+02 -0.16059965133E+03  0.56852803870E+03  0.59201377623E+03  0.00000000000E+00 0. -1.
         22    1    3    3    0    0  0.63807943610E+02  0.47512769728E+02  0.20505741695E+02  0.82154746652E+02  0.00000000000E+00 0. -1.
         22    1    3    3    0    0  0.13995856631E+03  0.18688350305E+03  0.31212167979E+03  0.38978684814E+03  0.00000000000E+00 0. -1.
</event>
<event>
 7    1  0.6443388E-006  0.8570200E+02  0.7818608E-02  0.1366846E+00
          2   -1    0    0  502    0  0.00000000000E+00  0.00000000000E+00  0.67929512920E+03  0.67929512920E+03  0.00000000000E+00 0. -1.
          1   -1    0    0  501    0 -0.00000000000E+00 -0.00000000000E+00 -0.20403413631E+03  0.20403413631E+03  0.00000000000E+00 0. -1.
         25    2    1    2    0    0 -0.11085559111E+02  0.41063756697E+02  0.32530893743E+03  0.35108562941E+03  0.12500437060E+03 0.  0.
          2    1    1    2  501    0 -0.20940590271E+02 -0.84587426286E+02 -0.17889318066E+03  0.19898821848E+03  0.00000000000E+00 0. -1.
          1    1    1    2  502    0  0.32026149382E+02  0.43523669589E+02  0.32884523612E+03  0.33325541763E+03  0.00000000000E+00 0. -1.
         22    1    3    3    0    0 -0.26715249617E+02 -0.19141416361E+01  0.29501940792E+03  0.29623271181E+03  0.00000000000E+00 0. -1.
         22    1    3    3    0    0  0.15629690505E+02  0.42977898333E+02  0.30289529518E+02  0.54852917597E+02  0.00000000000E+00 0. -1.
</event>
<event>
 7    1  0.6443388E-006  0.4720105E+02  0.7818608E-02  0.1549481E+00
          2   -1    0    0  502    0  0.00000000000E+00  0.00000000000E+00  0.10514599949E+04  0.10514599949E+04  0.00000000000E+00 0. -1.
          1   -1    0    0  501    0 -0.00000000000E+00 -0.00000000000E+00 -0.44010006351E+02  0.44010006351E+02  0.00000000000E+00 0. -1.
         25    2    1    2    0    0 -0.15353067561E+02  0.26390891421E+02  0.62272172543E+03  0.63587948532E+03  0.12501270614E+03 0.  0.
          2    1    1    2  501    0  0.74483391808E+01  0.24708016333E+02 -0.31183565198E+02  0.40476889284E+02  0.00000000000E+00 0. -1.
          1    1    1    2  502    0  0.79047283798E+01 -0.51098907753E+02  0.41591182829E+03  0.41911362662E+03  0.00000000000E+00 0. -1.
         22    1    3    3    0    0 -0.61620458075E+02  0.23809742361E+02  0.50602655800E+03  0.51032035242E+03  0.00000000000E+00 0. -1.
         22    1    3    3    0    0  0.46267390515E+02  0.25811490595E+01  0.11669516742E+03  0.12555913290E+03  0.00000000000E+00 0. -1.
</event>
<event>
 7    1  0.6443388E-006  0.5535251E+02  0.7818608E-02  0.1425251E+00
          2   -1    0    0  502    0  0.00000000000E+00  0.00000000000E+00  0.14534279128E+04  0.14534279128E+04  0.00000000000E+00 0. -1.
          1   -1    0    0  501    0 -0.00000000000E+00 -0.00000000000E+00 -0.15239151543E+03  0.15239151543E+03  0.00000000000E+00 0. -1.
         25    2    1    2    0    0  0.20979585717E+02  0.99565274824E+02  0.40491118717E+03  0.43581115090E+03  0.12499961112E+03 0.  0.
          2    1    1    2  501    0  0.40833731811E+01 -0.52375681423E+02 -0.13118310957E+03  0.14131133775E+03  0.00000000000E+00 0. -1.
          1    1    1    2  502    0 -0.25062958898E+02 -0.47189593400E+02  0.10273083198E+04  0.10286969396E+04  0.00000000000E+00 0. -1.
         22    1    3    3    0    0  0.61035281980E+02  0.10347387066E+03  0.32111549551E+03  0.34285173036E+03  0.00000000000E+00 0.  1.
         22    1    3    3    0    0 -0.40055696263E+02 -0.39085958395E+01  0.83795691663E+02  0.92959420533E+02  0.00000000000E+00 0.  1.
</event>
<event>
 7    1  0.6443388E-006  0.5900120E+02  0.7818608E-02  0.1462939E+00
          2   -1    0    0  502    0  0.00000000000E+00  0.00000000000E+00  0.33589599519E+03  0.33589599519E+03  0.00000000000E+00 0. -1.
          1   -1    0    0  501    0 -0.00000000000E+00 -0.00000000000E+00 -0.36856642714E+03  0.36856642714E+03  0.00000000000E+00 0. -1.
         25    2    1    2    0    0  0.55147879029E+02  0.33649959615E+02 -0.19082005647E+02  0.14199221203E+03  0.12499622792E+03 0.  0.
          2    1    1    2  501    0 -0.24057755855E+02 -0.54163772329E+02 -0.28368888833E+03  0.28981351799E+03  0.00000000000E+00 0. -1.
          1    1    1    2  502    0 -0.31090123174E+02  0.20513812714E+02  0.27010046203E+03  0.27265669231E+03  0.00000000000E+00 0. -1.
         22    1    3    3    0    0 -0.29018780328E+01 -0.41174629524E+02  0.10838251749E+02  0.42675973492E+02  0.00000000000E+00 0. -1.
         22    1    3    3    0    0  0.58049757062E+02  0.74824589139E+02 -0.29920257396E+02  0.99316238538E+02  0.00000000000E+00 0. -1.
</event>
<event>
 7    1  0.6443388E-006  0.1378464E+03  0.7818608E-02  0.1228981E+00
          2   -1    0    0  502    0  0.00000000000E+00  0.00000000000E+00  0.97634587851E+03  0.97634587851E+03  0.00000000000E+00 0. -1.
          1   -1    0    0  501    0 -0.00000000000E+00 -0.00000000000E+00 -0.22348344330E+04  0.22348344330E+04  0.00000000000E+00 0. -1.
         25    2    1    2    0    0  0.88484634415E+02  0.87290734256E+02  0.60195507586E+02  0.18627089787E+03  0.12499658173E+03 0.  0.
          2    1    1    2  501    0 -0.10738976949E+03  0.55052252330E+02 -0.21640614440E+04  0.21674236425E+04  0.00000000000E+00 0. -1.
          1    1    1    2  502    0  0.18905135078E+02 -0.14234298659E+03  0.84537738184E+03  0.85748577113E+03  0.00000000000E+00 0. -1.
         22    1    3    3    0    0  0.92911800360E+02  0.37610402671E+02  0.84209646093E+02  0.13091374844E+03  0.00000000000E+00 0.  1.
         22    1    3    3    0    0 -0.44271659454E+01  0.49680331585E+02 -0.24014138507E+02  0.55357149429E+02  0.00000000000E+00 0.  1.
</event>
<event>
 7    1  0.6443388E-006  0.9621017E+02  0.7818608E-02  0.1294422E+00
          2   -1    0    0  502    0  0.00000000000E+00  0.00000000000E+00  0.18504823634E+04  0.18504823634E+04  0.00000000000E+00 0. -1.
          1   -1    0    0  501    0 -0.00000000000E+00 -0.00000000000E+00 -0.26751693876E+03  0.26751693876E+03  0.00000000000E+00 0. -1.
         25    2    1    2    0    0 -0.11010133921E+03  0.14187223248E+02 -0.80052603120E+02  0.18535511760E+03  0.12499807260E+03 0.  0.
          2    1    1    2  501    0  0.74334261449E+02  0.69498395817E+02 -0.11427785175E+03  0.15301972698E+03  0.00000000000E+00 0. -1.
          1    1    1    2  502    0  0.35767077765E+02 -0.83685619066E+02  0.17772958795E+04  0.17796244576E+04  0.00000000000E+00 0. -1.
         22    1    3    3    0    0 -0.52623811279E+01  0.53004307174E+02 -0.12416675976E+02  0.54692989280E+02  0.00000000000E+00 0.  1.
         22    1    3    3    0    0 -0.10483895809E+03 -0.38817083925E+02 -0.67635927144E+02  0.13066212832E+03  0.00000000000E+00 0.  1.
</event>
<event>
 7    1  0.6443388E-006  0.1090010E+03  0.7818608E-02  0.1365886E+00
          2   -1    0    0  502    0  0.00000000000E+00  0.00000000000E+00  0.72167281828E+02  0.72167281828E+02  0.00000000000E+00 0. -1.
          1   -1    0    0  501    0 -0.00000000000E+00 -0.00000000000E+00 -0.10220195756E+04  0.10220195756E+04  0.00000000000E+00 0. -1.
         25    2    1    2    0    0  0.75430368792E+02  0.77197194770E+02 -0.48107680745E+03  0.50863450926E+03  0.12500008772E+03 0.  0.
          2    1    1    2  501    0  0.25741469387E+02 -0.34227761617E+02 -0.47359556934E+03  0.47552804987E+03  0.00000000000E+00 0. -1.
          1    1    1    2  502    0 -0.10117183818E+03 -0.42969433154E+02  0.48200829720E+01  0.11002429834E+03  0.00000000000E+00 0. -1.
         22    1    3    3    0    0  0.85374143944E+01  0.82971492607E+02 -0.15810736430E+03  0.17875987994E+03  0.00000000000E+00 0.  1.
         22    1    3    3    0    0  0.66892954397E+02 -0.57742978367E+01 -0.32296944315E+03  0.32987462932E+03  0.00000000000E+00 0.  1.
</event>
<event>
 7    1  0.6443388E-006  0.1605148E+03  0.7818608E-02  0.1341374E+00
          2   -1    0    0  502    0  0.00000000000E+00  0.00000000000E+00  0.32461279162E+04  0.32461279162E+04  0.00000000000E+00 0. -1.
          1   -1    0    0  501    0 -0.00000000000E+00 -0.00000000000E+00 -0.53228788211E+03  0.53228788211E+03  0.00000000000E+00 0. -1.
         25    2    1    2    0    0 -0.12174521733E+03  0.30991987087E+02  0.17333388299E+02  0.17806862940E+03  0.12500235686E+03 0.  0.
          2    1    1    2  501    0 -0.34327280905E+02  0.10185748110E+02 -0.44913844377E+03  0.45056348426E+03  0.00000000000E+00 0. -1.
          1    1    1    2  502    0  0.15607249824E+03 -0.41177735197E+02  0.31456450896E+04  0.31497836847E+04  0.00000000000E+00 0. -1.
         22    1    3    3    0    0 -0.12186634920E+03 -0.40247836173E+01  0.48467300128E+02  0.13121236654E+03  0.00000000000E+00 0.  1.
         22    1    3    3    0    0  0.12113187366E+00  0.35016770704E+02 -0.31133911829E+02  0.46856262860E+02  0.00000000000E+00 0.  1.
</event>
