<event>
 7    1  0.6557591E-006  0.5910816E+02  0.7818608E-02  0.1447148E+00
          2   -1    0    0  502    0  0.00000000000E+00  0.00000000000E+00  0.22455972914E+03  0.22455972914E+03  0.00000000000E+00 0. -1.
          1   -1    0    0  501    0 -0.00000000000E+00 -0.00000000000E+00 -0.14840953322E+04  0.14840953322E+04  0.00000000000E+00 0. -1.
         25    2    1    2    0    0 -0.87815565800E+02  0.44003063882E+02 -0.31257270550E+03  0.35068667195E+03  0.12502640694E+03 0.  0.
          2    1    1    2  501    0  0.54462745485E+02 -0.18918402546E+02 -0.11496169841E+04  0.11510618171E+04  0.00000000000E+00 0. -1.
          1    1    1    2  502    0  0.33352820315E+02 -0.25084661336E+02  0.20265408656E+03  0.20690657229E+03  0.00000000000E+00 0. -1.
         22    1    3    3    0    0 -0.49981736171E+02  0.49430002595E+02 -0.52286590356E+02  0.87609283973E+02  0.00000000000E+00 0. -1.
         22    1    3    3    0    0 -0.37833829629E+02 -0.54269387133E+01 -0.26028611514E+03  0.26307738798E+03  0.00000000000E+00 0. -1.
</event>
<event>
 7    1  0.6557591E-006  0.1092920E+03  0.7818608E-02  0.1311753E+00
          2   -1    0    0  502    0  0.00000000000E+00  0.00000000000E+00  0.86341777878E+03  0.86341777878E+03  0.00000000000E+00 0. -1.
          1   -1    0    0  501    0 -0.00000000000E+00 -0.00000000000E+00 -0.75146354422E+02  0.75146354422E+02  0.00000000000E+00 0. -1.
         25    2    1    2    0    0 -0.29324108380E+01 -0.86850414607E+02  0.18837668124E+03  0.24220363525E+03  0.12500093335E+03 0.  0.
          2    1    1    2  501    0 -0.63154836397E+02  0.10424835693E+03  0.34256153884E+02  0.12660859908E+03  0.00000000000E+00 0. -1.
          1    1    1    2  502    0  0.66087247235E+02 -0.17397942323E+02  0.56563858923E+03  0.56975189887E+03  0.00000000000E+00 0. -1.
         22    1    3    3    0    0 -0.46707100191E+02 -0.96682598112E+02  0.13257029431E+03  0.17059883036E+03  0.00000000000E+00 0. -1.
         22    1    3    3    0    0  0.43774689353E+02  0.98321835050E+01  0.55806386935E+02  0.71604804889E+02  0.00000000000E+00 0. -1.
</event>
<event>
 7    1  0.6557591E-006  0.7231161E+02  0.7818608E-02  0.1469805E+00
          2   -1    0    0  502    0  0.00000000000E+00  0.00000000000E+00  0.14734618219E+03  0.14734618219E+03  0.00000000000E+00 0. -1.
          1   -1    0    0  501    0 -0.00000000000E+00 -0.00000000000E+00 -0.41791185739E+03  0.41791185739E+03  0.00000000000E+00 0. -1.
         25    2    1    2    0    0 -0.16039125501E+01 -0.50874170957E+02 -0.19579346187E+03  0.23780288555E+03  0.12499751541E+03 0.  0.
          2    1    1    2  501    0 -0.22078939355E+02 -0.18687930245E+02 -0.18923605720E+03  0.19143407128E+03  0.00000000000E+00 0. -1.
          1    1    1    2  502    0  0.23682851905E+02  0.69562101202E+02  0.11446384388E+03  0.13602108275E+03  0.00000000000E+00 0. -1.
         22    1    3    3    0    0 -0.35461538159E+02 -0.52964500453E+02 -0.33509410548E+02  0.72011385157E+02  0.00000000000E+00 0.  1.
         22    1    3    3    0    0  0.33857625609E+02  0.20903294965E+01 -0.16228405133E+03  0.16579150040E+03  0.00000000000E+00 0.  1.
</event>
<event>
 7    1  0.6557591E-006  0.1104155E+03  0.7818608E-02  0.1367046E+00
          2   -1    0    0  502    0  0.00000000000E+00  0.00000000000E+00  0.25707461111E+04  0.25707461111E+04  0.00000000000E+00 0. -1.
          1   -1    0    0  501    0 -0.00000000000E+00 -0.00000000000E+00 -0.14918810551E+04  0.14918810551E+04  0.00000000000E+00 0. -1.
         25    2    1    2    0    0 -0.12372523807E+00  0.11835547470E+03  0.13103790599E+03  0.21634150110E+03  0.12499871436E+03 0.  0.
          2    1    1    2  501    0  0.39072453853E+02 -0.15054031381E+02 -0.14476552186E+04  0.14482606507E+04  0.00000000000E+00 0. -1.
          1    1    1    2  502    0 -0.38948728615E+02 -0.10330144332E+03  0.23954823685E+04  0.23980250144E+04  0.00000000000E+00 0. -1.
         22    1    3    3    0    0 -0.39041509618E+02  0.12197506513E+03  0.76284566496E+02  0.14906874612E+03  0.00000000000E+00 0.  1.
         22    1    3    3    0    0  0.38917784380E+02 -0.36195904289E+01  0.54753339497E+02  0.67272754976E+02  0.00000000000E+00 0.  1.
</event>
<event>
 7    1  0.6557591E-006  0.4867291E+02  0.7818608E-02  0.1455954E+00
          2   -1    0    0  502    0  0.00000000000E+00  0.00000000000E+00  0.20811528040E+04  0.20811528040E+04  0.00000000000E+00 0. -1.
          1   -1    0    0  501    0 -0.00000000000E+00 -0.00000000000E+00 -0.50256521681E+03  0.50256521681E+03  0.00000000000E+00 0. -1.
         25    2    1    2    0    0 -0.46514452300E+02  0.73799042599E+02  0.86148516504E+02  0.17509274387E+03  0.12500403634E+03 0.  0.
          2    1    1    2  501    0  0.66884004620E+01 -0.47905257853E+02 -0.45652603615E+03  0.45908133279E+03  0.00000000000E+00 0. -1.
          1    1    1    2  502    0  0.39826051838E+02 -0.25893784746E+02  0.19489651068E+04  0.19495439441E+04  0.00000000000E+00 0. -1.
         22    1    3    3    0    0 -0.77249718350E+02  0.79487141293E+02  0.91063712330E+02  0.14345147026E+03  0.00000000000E+00 0.  1.
         22    1    3    3    0    0  0.30735266050E+02 -0.56880986944E+01 -0.49151958263E+01  0.31641273615E+02  0.00000000000E+00 0.  1.
</event>
<event>
 7    1  0.6557591E-006  0.1176010E+03  0.7818608E-02  0.1266671E+00
          2   -1    0    0  502    0  0.00000000000E+00  0.00000000000E+00  0.92632540955E+03  0.92632540955E+03  0.00000000000E+00 0. -1.
          1   -1    0    0  501    0 -0.00000000000E+00 -0.00000000000E+00 -0.12416958384E+03  0.12416958384E+03  0.00000000000E+00 0. -1.
         25    2    1    2    0    0  0.54784587451E+01  0.10319452853E+03  0.12617368124E+03  0.20548486029E+03  0.12500042297E+03 0.  0.
          2    1    1    2  501    0  0.91008517697E+02 -0.93868761461E+02 -0.28563286062E+02  0.13382733645E+03  0.00000000000E+00 0. -1.
          1    1    1    2  502    0 -0.96486976442E+02 -0.93257670723E+01  0.70454543054E+03  0.71118279665E+03  0.00000000000E+00 0. -1.
         22    1    3    3    0    0  0.30974736084E+02 -0.16719230153E+02  0.10006148920E+02  0.36593577969E+02  0.00000000000E+00 0.  1.
         22    1    3    3    0    0 -0.25496277339E+02  0.11991375869E+03  0.11616753232E+03  0.16889128233E+03  0.00000000000E+00 0.  1.
</event>
<event>
 7    1  0.6557591E-006  0.1149981E+03  0.7818608E-02  0.1268265E+00
          2   -1    0    0  502    0  0.00000000000E+00  0.00000000000E+00  0.13886899848E+04  0.13886899848E+04  0.00000000000E+00 0. -1.
          1   -1    0    0  501    0 -0.00000000000E+00 -0.00000000000E+00 -0.91156136720E+02  0.91156136720E+02  0.00000000000E+00 0. -1.
         25    2    1    2    0    0  0.49154280866E+02 -0.27868675392E+02  0.26992275540E+03  0.30278062325E+03  0.12500002214E+03 0.  0.
          2    1    1    2  501    0 -0.49959078695E+01 -0.97480717427E+02 -0.36855263344E+02  0.10433484462E+03  0.00000000000E+00 0. -1.
          1    1    1    2  502    0 -0.44158372996E+02  0.12534939282E+03  0.10644663561E+04  0.10727306537E+04  0.00000000000E+00 0. -1.
         22    1    3    3    0    0  0.49492145447E+02 -0.68752498580E+02  0.11675609729E+03  0.14425104775E+03  0.00000000000E+00 0. -1.
         22    1    3    3    0    0 -0.33786458109E+00  0.40883823187E+02  0.15316665811E+03  0.15852957550E+03  0.00000000000E+00 0. -1.
</event>
<event>
 7    1  0.6557591E-006  0.1809530E+03  0.7818608E-02  0.1237531E+00
          2   -1    0    0  502    0  0.00000000000E+00  0.00000000000E+00  0.43808569961E+03  0.43808569961E+03  0.00000000000E+00 0. -1.
          1   -1    0    0  501    0 -0.00000000000E+00 -0.00000000000E+00 -0.27840141616E+03  0.27840141616E+03  0.00000000000E+00 0. -1.
         25    2    1    2    0    0 -0.10835144421E+03  0.61703607780E+02 -0.21006827935E+02  0.17781396500E+03  0.12501659351E+03 0.  0.
          2    1    1    2  501    0 -0.83307360484E+02 -0.12252940756E+02 -0.13908869693E+03  0.16259125586E+03  0.00000000000E+00 0. -1.
          1    1    1    2  502    0  0.19165880470E+03 -0.49450667024E+02  0.31977980830E+03  0.37608189492E+03  0.00000000000E+00 0. -1.
         22    1    3    3    0    0 -0.73250022906E+02 -0.16835517594E+02 -0.46138916138E+02  0.88191836871E+02  0.00000000000E+00 0.  1.
         22    1    3    3    0    0 -0.35101421308E+02  0.78539125373E+02  0.25132088203E+02  0.89622128125E+02  0.00000000000E+00 0.  1.
</event>
<event>
 7    1  0.6557591E-006  0.1605582E+03  0.7818608E-02  0.1293253E+00
          2   -1    0    0  502    0  0.00000000000E+00  0.00000000000E+00  0.13541789379E+04  0.13541789379E+04  0.00000000000E+00 0. -1.
          1   -1    0    0  501    0 -0.00000000000E+00 -0.00000000000E+00 -0.63139368066E+02  0.63139368066E+02  0.00000000000E+00 0. -1.
         25    2    1    2    0    0 -0.12676638601E+03 -0.81301998829E+02  0.26920439737E+03  0.33283017384E+03  0.12500074165E+03 0.  0.
          2    1    1    2  501    0 -0.33100073241E+02  0.44088715149E+02  0.59763615143E+01  0.55454003905E+02  0.00000000000E+00 0. -1.
          1    1    1    2  502    0  0.15986645925E+03  0.37213283679E+02  0.10158588109E+04  0.10290341282E+04  0.00000000000E+00 0. -1.
         22    1    3    3    0    0 -0.13183368293E+03 -0.91814441537E+02  0.27598044718E+03  0.31933558971E+03  0.00000000000E+00 0. -1.
         22    1    3    3    0    0  0.50672969182E+01  0.10512442708E+02 -0.67760498063E+01  0.13494584126E+02  0.00000000000E+00 0. -1.
</event>
<event>
 7    1  0.6557591E-006  0.1441728E+03  0.7818608E-02  0.1277373E+00
          2   -1    0    0  502    0  0.00000000000E+00  0.00000000000E+00  0.49380085126E+03  0.49380085126E+03  0.00000000000E+00 0. -1.
          1   -1    0    0  501    0 -0.00000000000E+00 -0.00000000000E+00 -0.12038078039E+03  0.12038078039E+03  0.00000000000E+00 0. -1.
         25    2    1    2    0    0 -0.60177447375E+02  0.81553384133E+02  0.42187667036E+02  0.16636474149E+03  0.12500059330E+03 0.  0.
          2    1    1    2  501    0 -0.71102881759E+02  0.55791553934E+01 -0.99463981856E+01  0.72011649101E+02  0.00000000000E+00 0. -1.
          1    1    1    2  502    0  0.13128032913E+03 -0.87132539526E+02  0.34117880202E+03  0.37580524106E+03  0.00000000000E+00 0. -1.
         22    1    3    3    0    0  0.11688479745E+02  0.78750393307E+02 -0.59277411405E+01  0.79833471174E+02  0.00000000000E+00 0. -1.
         22    1    3    3    0    0 -0.71865927120E+02  0.28029908263E+01  0.48115408176E+02  0.86531270315E+02  0.00000000000E+00 0. -1.
</event>
<event>
 7    1  0.6557591E-006  0.6676416E+02  0.7818608E-02  0.1387091E+00
          2   -1    0    0  502    0  0.00000000000E+00  0.00000000000E+00  0.89267173965E+03  0.89267173965E+03  0.00000000000E+00 0. -1.
          1   -1    0    0  501    0 -0.00000000000E+00 -0.00000000000E+00 -0.22418727913E+03  0.22418727913E+03  0.00000000000E+00 0. -1.
         25    2    1    2    0    0 -0.64555963398E+02  0.30630007757E+02  0.48547600452E+03  0.50637656898E+03  0.12499843546E+03 0.  0.
          2    1    1    2  501    0 -0.87520500545E+00 -0.58756841244E+02 -0.20640642199E+03  0.21460834890E+03  0.00000000000E+00 0. -1.
          1    1    1    2  502    0  0.65431168404E+02  0.28126833487E+02  0.38941487799E+03  0.39587410090E+03  0.00000000000E+00 0. -1.
         22    1    3    3    0    0 -0.69333553174E+01 -0.27124616541E+02  0.32641211861E+03  0.32761057280E+03  0.00000000000E+00 0.  1.
         22    1    3    3    0    0 -0.57622608081E+02  0.57754624298E+02  0.15906388591E+03  0.17876599618E+03  0.00000000000E+00 0.  1.
</event>
<event>
 7    1  0.6557591E-006  0.1236093E+03  0.7818608E-02  0.1253861E+00
          2   -1    0    0  502    0  0.00000000000E+00  0.00000000000E+00  0.36032705054E+03  0.36032705054E+03  0.00000000000E+00 0. -1.
          1   -1    0    0  501    0 -0.00000000000E+00 -0.00000000000E+00 -0.15894456129E+04  0.15894456129E+04  0.00000000000E+00 0. -1.
         25    2    1    2    0    0 -0.19859297061E+03  0.27394979922E+02 -0.35941446198E+03  0.43010929024E+03  0.12500237268E+03 0.  0.
          2    1    1    2  501    0  0.96779736135E+02  0.39662769863E+02 -0.11808568123E+04  0.11854797610E+04  0.00000000000E+00 0. -1.
          1    1    1    2  502    0  0.10181323448E+03 -0.67057749785E+02  0.31115271191E+03  0.33418361218E+03  0.00000000000E+00 0. -1.
         22    1    3    3    0    0 -0.83666332208E+01  0.15859670963E+02 -0.13283327904E+03  0.13403809061E+03  0.00000000000E+00 0.  1.
         22    1    3    3    0    0 -0.19022633739E+03  0.11535308959E+02 -0.22658118294E+03  0.29607119963E+03  0.00000000000E+00 0.  1.
</event>
<event>
 7    1  0.6557591E-006  0.7914642E+02  0.7818608E-02  0.1431032E+00
          2   -1    0    0  502    0  0.00000000000E+00  0.00000000000E+00  0.26764725134E+03  0.26764725134E+03  0.00000000000E+00 0. -1.
          1   -1    0    0  501    0 -0.00000000000E+00 -0.00000000000E+00 -0.91747857189E+03  0.91747857189E+03  0.00000000000E+00 0. -1.
         25    2    1    2    0    0  0.98324022418E+02 -0.50043964653E+02  0.28342949380E+02  0.16911309396E+03  0.12499561587E+03 0.  0.
          2    1    1    2  501    0 -0.29593877885E+02  0.18987844309E+02 -0.83828785374E+03  0.83902494693E+03  0.00000000000E+00 0. -1.
          1    1    1    2  502    0 -0.68730144533E+02  0.31056120345E+02  0.16011358381E+03  0.17698778234E+03  0.00000000000E+00 0. -1.
         22    1    3    3    0    0  0.30925296627E+02 -0.10018895763E+02 -0.49123633137E+02  0.58905717688E+02  0.00000000000E+00 0. -1.
         22    1    3    3    0    0  0.67398725791E+02 -0.40025068890E+02  0.77466582517E+02  0.11020737627E+03  0.00000000000E+00 0. -1.
</event>
<event>
 7    1  0.6557591E-006  0.1174611E+03  0.7818608E-02  0.1396341E+00
          2   -1    0    0  502    0  0.00000000000E+00  0.00000000000E+00  0.10183539267E+04  0.10183539267E+04  0.00000000000E+00 0. -1.
          1   -1    0    0  501    0 -0.00000000000E+00 -0.00000000000E+00 -0.56431783619E+02  0.56431783619E+02  0.00000000000E+00 0. -1.
         25    2    1    2    0    0  0.30171212514E+01 -0.11964973248E+03  0.43033565659E+03  0.46383113243E+03  0.12500152230E+03 0.  0.
          2    1    1    2  501    0  0.27553032303E+02  0.11442162284E+03  0.49183796450E+02  0.12755596103E+03  0.00000000000E+00 0. -1.
          1    1    1    2  502    0 -0.30570153555E+02  0.52281096396E+01  0.48240269002E+03  0.48339861683E+03  0.00000000000E+00 0. -1.
         22    1    3    3    0    0 -0.13122463070E+02  0.14909893035E+02  0.16200698953E+03  0.16322000063E+03  0.00000000000E+00 0.  1.
         22    1    3    3    0    0  0.16139584321E+02 -0.13455962551E+03  0.26832866705E+03  0.30061113180E+03  0.00000000000E+00 0.  1.
</event>
<event>
 7    1  0.6557591E-006  0.6617291E+02  0.7818608E-02  0.1421021E+00
          2   -1    0    0  502    0  0.00000000000E+00  0.00000000000E+00  0.10722723513E+04  0.10722723513E+04  0.00000000000E+00 0. -1.
          1   -1    0    0  501    0 -0.00000000000E+00 -0.00000000000E+00 -0.80363978013E+03  0.80363978013E+03  0.00000000000E+00 0. -1.
         25    2    1    2    0    0 -0.20958592463E+01 -0.31945403170E+02  0.71242999076E+02  0.14739332770E+03  0.12499730687E+03 0.  0.
          2    1    1    2  501    0  0.37674865556E+02 -0.25316873365E+02 -0.76371001367E+03  0.76505772629E+03  0.00000000000E+00 0. -1.
          1    1    1    2  502    0 -0.35579006310E+02  0.57262276535E+02  0.96109958575E+03  0.96346107743E+03  0.00000000000E+00 0. -1.
         22    1    3    3    0    0  0.96140636505E+01 -0.58599934026E+02 -0.10782596470E+02  0.60354344287E+02  0.00000000000E+00 0. -1.
         22    1    3    3    0    0 -0.11709922897E+02  0.26654530856E+02  0.82025595546E+02  0.87038983416E+02  0.00000000000E+00 0. -1.
</event>
<event>
 7    1  0.6557591E-006  0.1037430E+03  0.7818608E-02  0.1405288E+00
          2   -1    0    0  502    0  0.00000000000E+00  0.00000000000E+00  0.20848364457E+04  0.20848364457E+04  0.00000000000E+00 0. -1.
          1   -1    0    0  501    0 -0.00000000000E+00 -0.00000000000E+00 -0.76756009365E+02  0.76756009365E+02  0.00000000000E+00 0. -1.
         25    2    1    2    0    0  0.47978295383E+02 -0.10420974207E+03  0.10431587765E+04  0.10568667843E+04  0.12500231877E+03 0.  0.
          2    1    1    2  501    0  0.17639183070E+02  0.27553586593E+02 -0.63464561261E+02  0.71400920510E+02  0.00000000000E+00 0. -1.
          1    1    1    2  502    0 -0.65617478453E+02  0.76656155479E+02  0.10283862211E+04  0.10333247502E+04  0.00000000000E+00 0. -1.
         22    1    3    3    0    0  0.55139554514E+01  0.17349647890E+02  0.26887624926E+02  0.32470884817E+02  0.00000000000E+00 0.  1.
         22    1    3    3    0    0  0.42464339932E+02 -0.12155938996E+03  0.10162711516E+04  0.10243958995E+04  0.00000000000E+00 0.  1.
</event>
<event>
 7    1  0.6557591E-006  0.5864210E+02  0.7818608E-02  0.1441560E+00
          2   -1    0    0  502    0  0.00000000000E+00  0.00000000000E+00  0.10351596043E+03  0.10351596043E+03  0.00000000000E+00 0. -1.
          1   -1    0    0  501    0 -0.00000000000E+00 -0.00000000000E+00 -0.41040132591E+03  0.41040132591E+03  0.00000000000E+00 0. -1.
         25    2    1    2    0    0  0.59363800391E+02 -0.50263847993E+02 -0.27699684654E+03  0.31369206921E+03  0.12499978431E+03 0.  0.
          2    1    1    2  501    0 -0.15567780383E+02  0.52381349638E+02 -0.10206544146E+03  0.11577355448E+03  0.00000000000E+00 0. -1.
          1    1    1    2  502    0 -0.43796020008E+02 -0.21175016448E+01  0.72176922514E+02  0.84451662655E+02  0.00000000000E+00 0. -1.
         22    1    3    3    0    0  0.17167144024E+02  0.37210432503E+02 -0.38703991708E+02  0.56367775326E+02  0.00000000000E+00 0.  1.
         22    1    3    3    0    0  0.42196656367E+02 -0.87474280496E+02 -0.23829285483E+03  0.25732429388E+03  0.00000000000E+00 0.  1.
</event>
<event>
 7    1  0.6557591E-006  0.9107169E+02  0.7818608E-02  0.1366353E+00
          2   -1    0    0  502    0  0.00000000000E+00  0.00000000000E+00  0.13794950450E+04  0.13794950450E+04  0.00000000000E+00 0. -1.
          1   -1    0    0  501    0 -0.00000000000E+00 -0.00000000000E+00 -0.19479755893E+04  0.19479755893E+04  0.00000000000E+00 0. -1.
         25    2    1    2    0    0 -0.37471627763E+02 -0.62487703421E+02  0.36025526002E+03  0.38822483856E+03  0.12500334770E+03 0.  0.
          2    1    1    2  501    0 -0.48654594517E+01  0.91029758022E+02 -0.19322671681E+04  0.19344163198E+04  0.00000000000E+00 0. -1.
          1    1    1    2  502    0  0.42337087215E+02 -0.28542054601E+02  0.10035313637E+04  0.10048294760E+04  0.00000000000E+00 0. -1.
         22    1    3    3    0    0  0.36822142563E+02  0.88701615254E+01  0.61700470681E+02  0.72398190797E+02  0.00000000000E+00 0.  1.
         22    1    3    3    0    0 -0.74293770326E+02 -0.71357864946E+02  0.29855478934E+03  0.31582664776E+03  0.00000000000E+00 0.  1.
</event>
<event>
 7    1  0.6557591E-006  0.6883755E+02  0.7818608E-02  0.1407613E+00
          2   -1    0    0  502    0  0.00000000000E+00  0.00000000000E+00  0.23162872843E+04  0.23162872843E+04  0.00000000000E+00 0. -1.
          1   -1    0    0  501    0 -0.00000000000E+00 -0.00000000000E+00 -0.10003207272E+04  0.10003207272E+04  0.00000000000E+00 0. -1.
         25    2    1    2    0    0 -0.67239445818E+02  0.95096301162E+02  0.15855720313E+03  0.23308746529E+03  0.12499972097E+03 0.  0.
          2    1    1    2  501    0  0.35149025096E+02 -0.58844566067E+02 -0.96155914298E+03  0.96399902612E+03  0.00000000000E+00 0. -1.
          1    1    1    2  502    0  0.32090420722E+02 -0.36251735095E+02  0.21189684969E+04  0.21195215201E+04  0.00000000000E+00 0. -1.
         22    1    3    3    0    0  0.26850461144E+02  0.67677393667E+02  0.69963215956E+02  0.10097538544E+03  0.00000000000E+00 0. -1.
         22    1    3    3    0    0 -0.94089906962E+02  0.27418907496E+02  0.88593987176E+02  0.13211207986E+03  0.00000000000E+00 0. -1.
</event>
<event>
 7    1  0.6557591E-006  0.3804556E+02  0.7818608E-02  0.1553351E+00
          2   -1    0    0  502    0  0.00000000000E+00  0.00000000000E+00  0.78154970245E+02  0.78154970245E+02  0.00000000000E+00 0. -1.
          1   -1    0    0  501    0 -0.00000000000E+00 -0.00000000000E+00 -0.61120506642E+03  0.61120506642E+03  0.00000000000E+00 0. -1.
         25    2    1    2    0    0  0.15761945452E+02  0.61723008375E+02 -0.67131837107E+02  0.15552689131E+03  0.12499504662E+03 0.  0.
          2    1    1    2  501    0 -0.21424226873E+02 -0.31008618698E+02 -0.49181758037E+03  0.49325963173E+03  0.00000000000E+00 0. -1.
          1    1    1    2  502    0  0.56622814214E+01 -0.30714389677E+02  0.25899321303E+02  0.40573513627E+02  0.00000000000E+00 0. -1.
         22    1    3    3    0    0 -0.42919754948E+02 -0.37593622928E+01  0.28065337364E+01  0.43175395786E+02  0.00000000000E+00 0. -1.
         22    1    3    3    0    0  0.58681700400E+02  0.65482370668E+02 -0.69938370844E+02  0.11235149552E+03  0.00000000000E+00 0. -1.
</event>
<event>
 7    1  0.6557591E-006  0.1264891E+03  0.7818608E-02  0.1435023E+00
          2   -1    0    0  502    0  0.00000000000E+00  0.00000000000E+00  0.11495720677E+04  0.11495720677E+04  0.00000000000E+00 0. -1.
          1   -1    0    0  501    0 -0.00000000000E+00 -0.00000000000E+00 -0.20478792206E+03  0.20478792206E+03  0.00000000000E+00 0. -1.
         25    2    1    2    0    0  0.10901061952E+03 -0.11650687283E+02  0.18857615992E+03  0.25141115312E+03  0.12501018416E+03 0.  0.
          2    1    1    2  501    0 -0.12596802802E+03  0.24619932106E+02 -0.14947177389E+03  0.19701750260E+03  0.00000000000E+00 0. -1.
          1    1    1    2  502    0  0.16957408501E+02 -0.12969244823E+02  0.90567975965E+03  0.90593133407E+03  0.00000000000E+00 0. -1.
         22    1    3    3    0    0  0.48915144732E+02 -0.67657188028E+02  0.84047196914E+02  0.11846568189E+03  0.00000000000E+00 0. -1.
         22    1    3    3    0    0  0.60095474788E+02  0.56006500745E+02  0.10452896300E+03  0.13294547124E+03  0.00000000000E+00 0. -1.
</event>
<event>
 7    1  0.6557591E-006  0.4250007E+02  0.7818608E-02  0.1518140E+00
          2   -1    0    0  502    0  0.00000000000E+00  0.00000000000E+00  0.12688931609E+04  0.12688931609E+04  0.00000000000E+00 0. -1.
          1   -1    0    0  501    0 -0.00000000000E+00 -0.00000000000E+00 -0.27301797938E+04  0.27301797938E+04  0.00000000000E+00 0. -1.
         25    2    1    2    0    0 -0.31995251849E+02  0.10422432307E+02 -0.19543625257E+04  0.19586488828E+04  0.12506094881E+03 0.  0.
          2    1    1    2  501    0 -0.26037325086E+01 -0.35110796106E+02 -0.77291670941E+03  0.77371815741E+03  0.00000000000E+00 0. -1.
          1    1    1    2  502    0  0.34598984358E+02  0.24688363799E+02  0.12659926022E+04  0.12667059145E+04  0.00000000000E+00 0. -1.
         22    1    3    3    0    0 -0.49169759187E+02 -0.38055932805E+02 -0.57975628038E+03  0.58308083821E+03  0.00000000000E+00 0.  1.
         22    1    3    3    0    0  0.17174507338E+02  0.48478365112E+02 -0.13746062453E+04  0.13755680446E+04  0.00000000000E+00 0.  1.
</event>
<event>
 7    1  0.6557591E-006  0.7670567E+02  0.7818608E-02  0.1474224E+00
          2   -1    0    0  502    0  0.00000000000E+00  0.00000000000E+00  0.14973686559E+04  0.14973686559E+04  0.00000000000E+00 0. -1.
          1   -1    0    0  501    0 -0.00000000000E+00 -0.00000000000E+00 -0.53841496612E+03  0.53841496612E+03  0.00000000000E+00 0. -1.
         25    2    1    2    0    0  0.47731158787E+02  0.77742963512E+02  0.36702804917E+03  0.39832132551E+03  0.12501222974E+03 0.  0.
          2    1    1    2  501    0  0.70656127592E+01 -0.25459414460E+02 -0.52114675870E+03  0.52181610628E+03  0.00000000000E+00 0. -1.
          1    1    1    2  502    0 -0.54796771546E+02 -0.52283549052E+02  0.11130723993E+04  0.11156461902E+04  0.00000000000E+00 0. -1.
         22    1    3    3    0    0  0.64160127994E+02 -0.39184158367E+01  0.22151994956E+03  0.23065767722E+03  0.00000000000E+00 0.  1.
         22    1    3    3    0    0 -0.16428969207E+02  0.81661379349E+02  0.14550809961E+03  0.16766364829E+03  0.00000000000E+00 0.  1.
</event>
<event>
 7    1  0.6557591E-006  0.1944410E+03  0.7818608E-02  0.1232956E+00
          2   -1    0    0  502    0  0.00000000000E+00  0.00000000000E+00  0.15342239727E+04  0.15342239727E+04  0.00000000000E+00 0. -1.
          1   -1    0    0  501    0 -0.00000000000E+00 -0.00000000000E+00 -0.89478722833E+03  0.89478722833E+03  0.00000000000E+00 0. -1.
         25    2    1    2    0    0  0.18725462427E+03 -0.12924893555E+03  0.75565994692E+02  0.27037753725E+03  0.12499684573E+03 0.  0.
          2    1    1    2  501    0 -0.18726577667E+03  0.47129634824E+02 -0.78442258689E+03  0.80784185854E+03  0.00000000000E+00 0. -1.
          1    1    1    2  502    0  0.11152395012E-01  0.82119300722E+02  0.13482933366E+04  0.13507918052E+04  0.00000000000E+00 0. -1.
         22    1    3    3    0    0  0.14142456703E+03 -0.90485563867E+02  0.11043583557E+03  0.20095924763E+03  0.00000000000E+00 0. -1.
         22    1    3    3    0    0  0.45830057241E+02 -0.38763371679E+02 -0.34869840882E+02  0.69418289620E+02  0.00000000000E+00 0. -1.
</event>
<event>
 7    1  0.6557591E-006  0.1308540E+03  0.7818608E-02  0.1285920E+00
          2   -1    0    0  502    0  0.00000000000E+00  0.00000000000E+00  0.85980508241E+03  0.85980508241E+03  0.00000000000E+00 0. -1.
          1   -1    0    0  501    0 -0.00000000000E+00 -0.00000000000E+00 -0.88035243859E+03  0.88035243859E+03  0.00000000000E+00 0. -1.
         25    2    1    2    0    0  0.90325899416E+02  0.34613053394E+02 -0.32017783451E+03  0.35706538780E+03  0.12500005553E+03 0.  0.
          2    1    1    2  501    0 -0.12342305323E+02  0.71398895917E+02 -0.53412324893E+03  0.53901556554E+03  0.00000000000E+00 0. -1.
          1    1    1    2  502    0 -0.77983594093E+02 -0.10601194931E+03  0.83375372726E+03  0.84407656766E+03  0.00000000000E+00 0. -1.
         22    1    3    3    0    0  0.56149234347E+02  0.51387415420E+02 -0.30774116744E+03  0.31701424119E+03  0.00000000000E+00 0. -1.
         22    1    3    3    0    0  0.34176665069E+02 -0.16774362026E+02 -0.12436667068E+02  0.40051146605E+02  0.00000000000E+00 0. -1.
</event>
<event>
 7    1  0.6557591E-006  0.7498563E+02  0.7818608E-02  0.1347080E+00
          2   -1    0    0  502    0  0.00000000000E+00  0.00000000000E+00  0.27720574399E+03  0.27720574399E+03  0.00000000000E+00 0. -1.
          1   -1    0    0  501    0 -0.00000000000E+00 -0.00000000000E+00 -0.72017872336E+03  0.72017872336E+03  0.00000000000E+00 0. -1.
         25    2    1    2    0    0  0.24870954396E+02 -0.13073303405E+03 -0.20778709185E+02  0.18375515918E+03  0.12499805281E+03 0.  0.
          2    1    1    2  501    0 -0.42827770854E+02  0.60002256464E+02 -0.60880786690E+03  0.61325484714E+03  0.00000000000E+00 0. -1.
          1    1    1    2  502    0  0.17956816458E+02  0.70730777585E+02  0.18661359671E+03  0.20037446103E+03  0.00000000000E+00 0. -1.
         22    1    3    3    0    0 -0.45453141511E+02 -0.34880401686E+02 -0.29705766976E+02  0.64537299964E+02  0.00000000000E+00 0.  1.
         22    1    3    3    0    0  0.70324095907E+02 -0.95852632363E+02  0.89270577913E+01  0.11921785922E+03  0.00000000000E+00 0.  1.
</event>
<event>
 7    1  0.6557591E-006  0.1142832E+03  0.7818608E-02  0.1386089E+00
          2   -1    0    0  502    0  0.00000000000E+00  0.00000000000E+00  0.90534686197E+03  0.90534686197E+03  0.00000000000E+00 0. -1.
          1   -1    0    0  501    0 -0.00000000000E+00 -0.00000000000E+00 -0.13357847950E+04  0.13357847950E+04  0.00000000000E+00 0. -1.
         25    2    1    2    0    0 -0.13438178827E+03  0.51038405810E+02 -0.22047819457E+03  0.29137567700E+03  0.12500306790E+03 0.  0.
          2    1    1    2  501    0  0.34428945532E+02  0.35192139628E+01 -0.10758517999E+04  0.10764083020E+04  0.00000000000E+00 0. -1.
          1    1    1    2  502    0  0.99952842735E+02 -0.54557619773E+02  0.86589206143E+03  0.87334767802E+03  0.00000000000E+00 0. -1.
         22    1    3    3    0    0 -0.55085962902E+02  0.28701037520E+01 -0.33577559776E+01  0.55262784309E+02  0.00000000000E+00 0. -1.
         22    1    3    3    0    0 -0.79295825364E+02  0.48168302058E+02 -0.21712043859E+03  0.23611289269E+03  0.00000000000E+00 0. -1.
</event>
<event>
 7    1  0.6557591E-006  0.1170959E+03  0.7818608E-02  0.1285115E+00
          2   -1    0    0  502    0  0.00000000000E+00  0.00000000000E+00  0.64994037648E+03  0.64994037648E+03  0.00000000000E+00 0. -1.
          1   -1    0    0  501    0 -0.00000000000E+00 -0.00000000000E+00 -0.55235613921E+03  0.55235613921E+03  0.00000000000E+00 0. -1.
         25    2    1    2    0    0 -0.43205072429E+01 -0.15297186291E+03  0.20965435998E+03  0.28809248930E+03  0.12499309624E+03 0.  0.
          2    1    1    2  501    0 -0.57453894107E+02  0.57929148885E+02 -0.50176633142E+03  0.50835635886E+03  0.00000000000E+00 0. -1.
          1    1    1    2  502    0  0.61774401349E+02  0.95042714027E+02  0.38969620872E+03  0.40584766753E+03  0.00000000000E+00 0. -1.
         22    1    3    3    0    0 -0.31087163261E+02 -0.10065335272E+03  0.47389040410E+02  0.11551290094E+03  0.00000000000E+00 0.  1.
         22    1    3    3    0    0  0.26766656018E+02 -0.52318510195E+02  0.16226531957E+03  0.17257958836E+03  0.00000000000E+00 0.  1.
</event>
<event>
 7    1  0.9489534E-006  0.9330881E+02  0.7818608E-02  0.1397523E+00
          2   -1    0    0  502    0  0.00000000000E+00  0.00000000000E+00  0.26745638462E+04  0.26745638462E+04  0.00000000000E+00 0. -1.
          1   -1    0    0  501    0 -0.00000000000E+00 -0.00000000000E+00 -0.22333349267E+04  0.22333349267E+04  0.00000000000E+00 0. -1.
         25    2    1    2    0    0  0.12380659381E+03 -0.30216190750E+02 -0.41197789480E+03  0.44898964871E+03  0.12499931195E+03 0.  0.
          2    1    1    2  501    0 -0.90655144673E+02  0.10295450148E+02 -0.18015558755E+04  0.18038647189E+04  0.00000000000E+00 0. -1.
          1    1    1    2  502    0 -0.33151449137E+02  0.19920740602E+02  0.26547626898E+04  0.26550444052E+04  0.00000000000E+00 0. -1.
         22    1    3    3    0    0  0.53632975391E+02 -0.36958392042E+02 -0.55393860621E+02  0.85503792817E+02  0.00000000000E+00 0.  1.
         22    1    3    3    0    0  0.70173618419E+02  0.67422012918E+01 -0.35658403418E+03  0.36348585589E+03  0.00000000000E+00 0.  1.
</event>
<event>
 7    1  0.6557591E-006  0.1139165E+03  0.7818608E-02  0.1382663E+00
          2   -1    0    0  502    0  0.00000000000E+00  0.00000000000E+00  0.11443872234E+04  0.11443872234E+04  0.00000000000E+00 0. -1.
          1   -1    0    0  501    0 -0.00000000000E+00 -0.00000000000E+00 -0.10696777587E+03  0.10696777587E+03  0.00000000000E+00 0. -1.
         25    2    1    2    0    0  0.10956659629E+03 -0.22111839082E+02  0.67201271095E+02  0.18065107310E+03  0.12500010770E+03 0.  0.
          2    1    1    2  501    0  0.39869931263E+01  0.35473764966E+02 -0.40243356594E+02  0.53794161997E+02  0.00000000000E+00 0. -1.
          1    1    1    2  502    0 -0.11355358941E+03 -0.13361925884E+02  0.10104615331E+04  0.10169097642E+04  0.00000000000E+00 0. -1.
         22    1    3    3    0    0  0.53532469858E+02 -0.61044998210E+02  0.76783592804E+02  0.11174943964E+03  0.00000000000E+00 0. -1.
         22    1    3    3    0    0  0.56034126428E+02  0.38933159128E+02 -0.95823217090E+01  0.68901633461E+02  0.00000000000E+00 0. -1.
</event>
<event>
 7    1  0.6557591E-006  0.1231448E+03  0.7818608E-02  0.1380443E+00
          2   -1    0    0  502    0  0.00000000000E+00  0.00000000000E+00  0.31014770552E+04  0.31014770552E+04  0.00000000000E+00 0. -1.
          1   -1    0    0  501    0 -0.00000000000E+00 -0.00000000000E+00 -0.53871079859E+03  0.53871079859E+03  0.00000000000E+00 0. -1.
         25    2    1    2    0    0 -0.14481488987E+03 -0.57624111420E+02  0.15171124361E+03  0.25086388638E+03  0.12499799002E+03 0.  0.
          2    1    1    2  501    0  0.31852831882E+02  0.10768079026E+02 -0.48726563940E+03  0.48842436238E+03  0.00000000000E+00 0. -1.
          1    1    1    2  502    0  0.11296205798E+03  0.46856032394E+02  0.28983206524E+04  0.29008996050E+04  0.00000000000E+00 0. -1.
         22    1    3    3    0    0 -0.16625214434E+03 -0.61276938443E+02  0.12731728822E+03  0.21818416662E+03  0.00000000000E+00 0. -1.
         22    1    3    3    0    0  0.21437254472E+02  0.36528270233E+01  0.24393955386E+02  0.32679719765E+02  0.00000000000E+00 0. -1.
</event>
<event>
 7    1  0.6557591E-006  0.9374136E+02  0.7818608E-02  0.1364391E+00
          2   -1    0    0  502    0  0.00000000000E+00  0.00000000000E+00  0.86189251458E+03  0.86189251458E+03  0.00000000000E+00 0. -1.
          1   -1    0    0  501    0 -0.00000000000E+00 -0.00000000000E+00 -0.24568338584E+04  0.24568338584E+04  0.00000000000E+00 0. -1.
         25    2    1    2    0    0 -0.44023647352E+02  0.23062589756E+01  0.25697873159E+02  0.13501182937E+03  0.12499765209E+03 0.  0.
          2    1    1    2  501    0  0.94302826512E+02  0.15040921489E+01 -0.24004365437E+04  0.24022886766E+04  0.00000000000E+00 0. -1.
          1    1    1    2  502    0 -0.50279179160E+02 -0.38103511245E+01  0.77979732680E+03  0.78142586694E+03  0.00000000000E+00 0. -1.
         22    1    3    3    0    0 -0.49843568957E+02 -0.27950666235E+02 -0.34949981942E+02  0.66985986199E+02  0.00000000000E+00 0.  1.
         22    1    3    3    0    0  0.58199216051E+01  0.30256925210E+02  0.60647855101E+02  0.68025843171E+02  0.00000000000E+00 0.  1.
</event>
<event>
 7    1  0.6557591E-006  0.1260594E+03  0.7818608E-02  0.1363704E+00
          2   -1    0    0  502    0  0.00000000000E+00  0.00000000000E+00  0.16134177143E+04  0.16134177143E+04  0.00000000000E+00 0. -1.
          1   -1    0    0  501    0 -0.00000000000E+00 -0.00000000000E+00 -0.76594886415E+03  0.76594886415E+03  0.00000000000E+00 0. -1.
         25    2    1    2    0    0 -0.44538116236E+02 -0.82743990698E+02 -0.89894045285E-01  0.15637176682E+03  0.12498763772E+03 0.  0.
          2    1    1    2  501    0  0.45022535558E+02  0.12045293234E+03 -0.68147234163E+03  0.69349873109E+03  0.00000000000E+00 0. -1.
          1    1    1    2  502    0 -0.48441932123E+00 -0.37708941644E+02  0.15290310858E+04  0.15294960805E+04  0.00000000000E+00 0. -1.
         22    1    3    3    0    0  0.18655436636E+02 -0.88432909065E+02  0.13781867297E+02  0.91423982565E+02  0.00000000000E+00 0.  1.
         22    1    3    3    0    0 -0.63193552872E+02  0.56889183671E+01 -0.13871761342E+02  0.64947784254E+02  0.00000000000E+00 0.  1.
</event>
<event>
 7    1  0.6557591E-006  0.3471666E+02  0.7818608E-02  0.1579277E+00
          2   -1    0    0  502    0  0.00000000000E+00  0.00000000000E+00  0.94985069120E+03  0.94985069120E+03  0.00000000000E+00 0. -1.
          1   -1    0    0  501    0 -0.00000000000E+00 -0.00000000000E+00 -0.24581092701E+03  0.24581092701E+03  0.00000000000E+00 0. -1.
         25    2    1    2    0    0  0.53552559841E+01  0.95282186389E+01  0.41745103781E+03  0.43590018938E+03  0.12499656159E+03 0.  0.
          2    1    1    2  501    0  0.12506495514E+02 -0.32475054441E+02 -0.23489938943E+03  0.23746318609E+03  0.00000000000E+00 0. -1.
          1    1    1    2  502    0 -0.17861751498E+02  0.22946835802E+02  0.52148811582E+03  0.52229824275E+03  0.00000000000E+00 0. -1.
         22    1    3    3    0    0 -0.50860944730E+02  0.22503677594E+02  0.11200916145E+03  0.12505720072E+03  0.00000000000E+00 0. -1.
         22    1    3    3    0    0  0.56216200714E+02 -0.12975458955E+02  0.30544187637E+03  0.31084298866E+03  0.00000000000E+00 0. -1.
</event>
<event>
 7    1  0.6557591E-006  0.3071453E+02  0.7818608E-02  0.1632874E+00
          2   -1    0    0  502    0  0.00000000000E+00  0.00000000000E+00  0.91621520481E+02  0.91621520481E+02  0.00000000000E+00 0. -1.
          1   -1    0    0  501    0 -0.00000000000E+00 -0.00000000000E+00 -0.58655390224E+03  0.58655390224E+03  0.00000000000E+00 0. -1.
         25    2    1    2    0    0 -0.17414426308E+02  0.51408257635E+02 -0.69597841925E+02  0.15301852360E+03  0.12499895107E+03 0.  0.
          2    1    1    2  501    0  0.10555760526E+02 -0.28548791676E+02 -0.47187403234E+03  0.47285469225E+03  0.00000000000E+00 0. -1.
          1    1    1    2  502    0  0.68586657813E+01 -0.22859465959E+02  0.46539492507E+02  0.52302206866E+02  0.00000000000E+00 0. -1.
         22    1    3    3    0    0 -0.29808599225E+02  0.52073051255E+02 -0.10198957635E+03  0.11833016919E+03  0.00000000000E+00 0.  1.
         22    1    3    3    0    0  0.12394172917E+02 -0.66479362067E+00  0.32391734429E+02  0.34688354417E+02  0.00000000000E+00 0.  1.
</event>
<event>
 7    1  0.6557591E-006  0.8982069E+02  0.7818608E-02  0.1404057E+00
          2   -1    0    0  502    0  0.00000000000E+00  0.00000000000E+00  0.15943929098E+04  0.15943929098E+04  0.00000000000E+00 0. -1.
          1   -1    0    0  501    0 -0.00000000000E+00 -0.00000000000E+00 -0.23460928958E+03  0.23460928958E+03  0.00000000000E+00 0. -1.
         25    2    1    2    0    0 -0.53999221178E+02 -0.88110462588E+01  0.10407300066E+03  0.17160766310E+03  0.12499780056E+03 0.  0.
          2    1    1    2  501    0  0.90092607393E+02  0.21182504808E+02 -0.18991502964E+03  0.21126546074E+03  0.00000000000E+00 0. -1.
          1    1    1    2  502    0 -0.36093386214E+02 -0.12371458549E+02  0.14456256492E+04  0.14461290756E+04  0.00000000000E+00 0. -1.
         22    1    3    3    0    0 -0.32993147458E+02  0.52062064086E+02  0.83938438083E+02  0.10413773420E+03  0.00000000000E+00 0. -1.
         22    1    3    3    0    0 -0.21006073720E+02 -0.60873110345E+02  0.20134562572E+02  0.67469928903E+02  0.00000000000E+00 0. -1.
</event>
<event>
 7    1  0.6557591E-006  0.8515301E+02  0.7818608E-02  0.1407687E+00
          2   -1    0    0  502    0  0.00000000000E+00  0.00000000000E+00  0.45602784684E+03  0.45602784684E+03  0.00000000000E+00 0. -1.
          1   -1    0    0  501    0 -0.00000000000E+00 -0.00000000000E+00 -0.16175906081E+03  0.16175906081E+03  0.00000000000E+00 0. -1.
         25    2    1    2    0    0  0.56416418354E+02 -0.45885479499E+02  0.21310823916E+03  0.25754245951E+03  0.12499882944E+03 0.  0.
          2    1    1    2  501    0  0.32916333931E+02  0.21131544889E+02 -0.12672658812E+03  0.13262599808E+03  0.00000000000E+00 0. -1.
          1    1    1    2  502    0 -0.89332752284E+02  0.24753934610E+02  0.20788713500E+03  0.22761845006E+03  0.00000000000E+00 0. -1.
         22    1    3    3    0    0 -0.43531444677E+01 -0.30284541246E+01 -0.15901387369E+02  0.16762324463E+02  0.00000000000E+00 0.  1.
         22    1    3    3    0    0  0.60769562821E+02 -0.42857025374E+02  0.22900962653E+03  0.24078013504E+03  0.00000000000E+00 0.  1.
</event>
<event>
 7    1  0.6557591E-006  0.7228871E+02  0.7818608E-02  0.1466786E+00
          2   -1    0    0  502    0  0.00000000000E+00  0.00000000000E+00  0.16056774287E+04  0.16056774287E+04  0.00000000000E+00 0. -1.
          1   -1    0    0  501    0 -0.00000000000E+00 -0.00000000000E+00 -0.64168956094E+03  0.64168956094E+03  0.00000000000E+00 0. -1.
         25    2    1    2    0    0 -0.37379289837E+02  0.25162888213E+02  0.87464324282E+03  0.88467861879E+03  0.12500029630E+03 0.  0.
          2    1    1    2  501    0  0.50823351185E+02 -0.51499067383E+02 -0.63431329187E+03  0.63842659658E+03  0.00000000000E+00 0. -1.
          1    1    1    2  502    0 -0.13444061349E+02  0.26336179170E+02  0.72365791677E+03  0.72426177424E+03  0.00000000000E+00 0. -1.
         22    1    3    3    0    0  0.34525347797E+02  0.44275812153E+02  0.45992188991E+03  0.46333626234E+03  0.00000000000E+00 0.  1.
         22    1    3    3    0    0 -0.71904637633E+02 -0.19112923940E+02  0.41472135291E+03  0.42134235644E+03  0.00000000000E+00 0.  1.
</event>
<event>
 7    1  0.6557591E-006  0.6448786E+02  0.7818608E-02  0.1537250E+00
          2   -1    0    0  502    0  0.00000000000E+00  0.00000000000E+00  0.27014033370E+03  0.27014033370E+03  0.00000000000E+00 0. -1.
          1   -1    0    0  501    0 -0.00000000000E+00 -0.00000000000E+00 -0.28728562246E+03  0.28728562246E+03  0.00000000000E+00 0. -1.
         25    2    1    2    0    0  0.40379007414E+02  0.25116908481E+02  0.66218657516E+02  0.14923612851E+03  0.12500075247E+03 0.  0.
          2    1    1    2  501    0  0.19757791152E+02  0.52619276024E+01 -0.23833299076E+03  0.23920842936E+03  0.00000000000E+00 0. -1.
          1    1    1    2  502    0 -0.60136798566E+02 -0.30378836083E+02  0.15496904448E+03  0.16898139830E+03  0.00000000000E+00 0. -1.
         22    1    3    3    0    0 -0.46831612520E+01  0.53962547992E+02  0.77503402468E+02  0.94555094940E+02  0.00000000000E+00 0. -1.
         22    1    3    3    0    0  0.45062168666E+02 -0.28845639511E+02 -0.11284744952E+02  0.54681033570E+02  0.00000000000E+00 0. -1.
</event>
<event>
 7    1  0.6557591E-006  0.4657593E+02  0.7818608E-02  0.1579353E+00
          2   -1    0    0  502    0  0.00000000000E+00  0.00000000000E+00  0.76842070061E+02  0.76842070061E+02  0.00000000000E+00 0. -1.
          1   -1    0    0  501    0 -0.00000000000E+00 -0.00000000000E+00 -0.10080855843E+04  0.10080855843E+04  0.00000000000E+00 0. -1.
         25    2    1    2    0    0 -0.40849546686E+02 -0.52126144302E+02 -0.97024887985E+02  0.17153535983E+03  0.12499892159E+03 0.  0.
          2    1    1    2  501    0  0.15029188734E+02  0.15604176717E+02 -0.86099165316E+03  0.86126418343E+03  0.00000000000E+00 0. -1.
          1    1    1    2  502    0  0.25820357952E+02  0.36521967585E+02  0.26773026882E+02  0.52128111125E+02  0.00000000000E+00 0. -1.
         22    1    3    3    0    0 -0.70999925267E+02 -0.52260281564E+02 -0.10803201991E+03  0.13943831519E+03  0.00000000000E+00 0.  1.
         22    1    3    3    0    0  0.30150378581E+02  0.13413726173E+00  0.11007131928E+02  0.32097044640E+02  0.00000000000E+00 0.  1.
</event>
<event>
 7    1  0.6557591E-006  0.2949434E+02  0.7818608E-02  0.1662582E+00
          2   -1    0    0  502    0  0.00000000000E+00  0.00000000000E+00  0.30380467276E+03  0.30380467276E+03  0.00000000000E+00 0. -1.
          1   -1    0    0  501    0 -0.00000000000E+00 -0.00000000000E+00 -0.26743652996E+03  0.26743652996E+03  0.00000000000E+00 0. -1.
         25    2    1    2    0    0  0.19663282646E+02 -0.37333482928E+00 -0.19121583477E+03  0.22929228923E+03  0.12499869748E+03 0.  0.
          2    1    1    2  501    0 -0.26409962283E+02 -0.19518694429E+02 -0.52040832460E+02  0.61536280218E+02  0.00000000000E+00 0. -1.
          1    1    1    2  502    0  0.67466796368E+01  0.19892029258E+02  0.27962481003E+03  0.28041263327E+03  0.00000000000E+00 0. -1.
         22    1    3    3    0    0  0.52774521900E+02  0.12712747513E+02 -0.18544178067E+03  0.19322375147E+03  0.00000000000E+00 0.  1.
         22    1    3    3    0    0 -0.33111239255E+02 -0.13086082342E+02 -0.57740540945E+01  0.36068537768E+02  0.00000000000E+00 0.  1.
</event>
<event>
 7    1  0.6557591E-006  0.9712680E+02  0.7818608E-02  0.1393171E+00
          2   -1    0    0  502    0  0.00000000000E+00  0.00000000000E+00  0.37112230325E+03  0.37112230325E+03  0.00000000000E+00 0. -1.
          1   -1    0    0  501    0 -0.00000000000E+00 -0.00000000000E+00 -0.46513760768E+03  0.46513760768E+03  0.00000000000E+00 0. -1.
         25    2    1    2    0    0  0.40298992593E+02 -0.52186411260E+02  0.64431025851E+02  0.15532898657E+03  0.12501322591E+03 0.  0.
          2    1    1    2  501    0 -0.77704646792E+02  0.61163030306E+02 -0.41239485144E+03  0.42408541817E+03  0.00000000000E+00 0. -1.
          1    1    1    2  502    0  0.37405654198E+02 -0.89766190453E+01  0.25394852116E+03  0.25684550620E+03  0.00000000000E+00 0. -1.
         22    1    3    3    0    0  0.30972460085E+02 -0.88058337080E+02  0.16588703153E+02  0.94809013734E+02  0.00000000000E+00 0. -1.
         22    1    3    3    0    0  0.93265325084E+01  0.35871925819E+02  0.47842322698E+02  0.60519972834E+02  0.00000000000E+00 0. -1.
</event>
<event>
 7    1  0.6557591E-006  0.9769047E+02  0.7818608E-02  0.1373044E+00
          2   -1    0    0  502    0  0.00000000000E+00  0.00000000000E+00  0.65054478972E+03  0.65054478972E+03  0.00000000000E+00 0. -1.
          1   -1    0    0  501    0 -0.00000000000E+00 -0.00000000000E+00 -0.83982895941E+03  0.83982895941E+03  0.00000000000E+00 0. -1.
         25    2    1    2    0    0  0.78544766601E+02 -0.11955303063E+01 -0.37771855578E+03  0.40554940073E+03  0.12501319688E+03 0.  0.
          2    1    1    2  501    0  0.82159324279E+01 -0.44278387205E+02 -0.44327935392E+03  0.44556106510E+03  0.00000000000E+00 0. -1.
          1    1    1    2  502    0 -0.86760699029E+02  0.45473917511E+02  0.63171374001E+03  0.63926328331E+03  0.00000000000E+00 0. -1.
         22    1    3    3    0    0 -0.30479221463E+02  0.19728333292E+02 -0.81922258794E+02  0.89607179184E+02  0.00000000000E+00 0.  1.
         22    1    3    3    0    0  0.10902398806E+03 -0.20923863598E+02 -0.29579629699E+03  0.31594222154E+03  0.00000000000E+00 0.  1.
</event>
<event>
 7    1  0.6557591E-006  0.1091022E+03  0.7818608E-02  0.1308394E+00
          2   -1    0    0  502    0  0.00000000000E+00  0.00000000000E+00  0.35540980773E+03  0.35540980773E+03  0.00000000000E+00 0. -1.
          1   -1    0    0  501    0 -0.00000000000E+00 -0.00000000000E+00 -0.16447888096E+03  0.16447888096E+03  0.00000000000E+00 0. -1.
         25    2    1    2    0    0  0.40270115425E+02  0.47237851654E+02  0.30904537952E+02  0.14294298656E+03  0.12499804045E+03 0.  0.
          2    1    1    2  501    0 -0.94648102004E+02 -0.92227313544E+02 -0.60542937188E+02  0.14536020026E+03  0.00000000000E+00 0. -1.
          1    1    1    2  502    0  0.54377986579E+02  0.44989461890E+02  0.22056932600E+03  0.23158550187E+03  0.00000000000E+00 0. -1.
         22    1    3    3    0    0  0.38927313548E+02  0.74672675160E+02  0.59640608023E+02  0.10319082460E+03  0.00000000000E+00 0. -1.
         22    1    3    3    0    0  0.13428018766E+01 -0.27434823506E+02 -0.28736070070E+02  0.39752161963E+02  0.00000000000E+00 0. -1.
</event>
<event>
 7    1  0.6557591E-006  0.1270937E+03  0.7818608E-02  0.1270235E+00
          2   -1    0    0  502    0  0.00000000000E+00  0.00000000000E+00  0.93961853027E+03  0.93961853027E+03  0.00000000000E+00 0. -1.
          1   -1    0    0  501    0 -0.00000000000E+00 -0.00000000000E+00 -0.13330595380E+03  0.13330595380E+03  0.00000000000E+00 0. -1.
         25    2    1    2    0    0  0.45326282876E+02 -0.37634266788E+02  0.31306400370E+02  0.14168285951E+03  0.12499252785E+03 0.  0.
          2    1    1    2  501    0  0.66557871110E+01 -0.86394278204E+02 -0.46816270428E+02  0.98488750552E+02  0.00000000000E+00 0. -1.
          1    1    1    2  502    0 -0.51982069987E+02  0.12402854499E+03  0.82182244653E+03  0.83275287402E+03  0.00000000000E+00 0. -1.
         22    1    3    3    0    0 -0.28586405807E+02 -0.54779852453E+02  0.20145039033E+02  0.64991056533E+02  0.00000000000E+00 0. -1.
         22    1    3    3    0    0  0.73912688683E+02  0.17145585664E+02  0.11161361336E+02  0.76691802972E+02  0.00000000000E+00 0. -1.
</event>
<event>
 7    1  0.6557591E-006  0.5947332E+02  0.7818608E-02  0.1405105E+00
          2   -1    0    0  502    0  0.00000000000E+00  0.00000000000E+00  0.58168802757E+03  0.58168802757E+03  0.00000000000E+00 0. -1.
          1   -1    0    0  501    0 -0.00000000000E+00 -0.00000000000E+00 -0.25623780214E+03  0.25623780214E+03  0.00000000000E+00 0. -1.
         25    2    1    2    0    0  0.30705130442E+02 -0.91795467075E+02  0.10668963514E+02  0.15845653342E+03  0.12500173355E+03 0.  0.
          2    1    1    2  501    0  0.15375049327E+02  0.55044205007E+02 -0.17605904212E+03  0.18510279025E+03  0.00000000000E+00 0. -1.
          1    1    1    2  502    0 -0.46080179769E+02  0.36751262067E+02  0.49084030403E+03  0.49436650604E+03  0.00000000000E+00 0. -1.
         22    1    3    3    0    0  0.23780306606E+01  0.25428978405E+02 -0.21783477146E+02  0.33567958667E+02  0.00000000000E+00 0.  1.
         22    1    3    3    0    0  0.28327099782E+02 -0.11722444548E+03  0.32452440661E+02  0.12488857476E+03  0.00000000000E+00 0.  1.
</event>
<event>
 7    1  0.6557591E-006  0.1200521E+03  0.7818608E-02  0.1437358E+00
          2   -1    0    0  502    0  0.00000000000E+00  0.00000000000E+00  0.29725784665E+03  0.29725784665E+03  0.00000000000E+00 0. -1.
          1   -1    0    0  501    0 -0.00000000000E+00 -0.00000000000E+00 -0.22425952509E+03  0.22425952509E+03  0.00000000000E+00 0. -1.
         25    2    1    2    0    0 -0.65245158391E+02  0.95240276994E+02  0.13672388485E+03  0.21828187979E+03  0.12500366915E+03 0.  0.
          2    1    1    2  501    0  0.85151220971E+02 -0.85635919265E+02 -0.16225109311E+03  0.20226136140E+03  0.00000000000E+00 0. -1.
          1    1    1    2  502    0 -0.19906062580E+02 -0.96043577288E+01  0.98525529815E+02  0.10097413055E+03  0.00000000000E+00 0. -1.
         22    1    3    3    0    0  0.29508329550E+02 -0.17467643374E+01  0.64615071090E+01  0.30257953873E+02  0.00000000000E+00 0. -1.
         22    1    3    3    0    0 -0.94753487941E+02  0.96987041331E+02  0.13026237774E+03  0.18802392592E+03  0.00000000000E+00 0. -1.
</event>
<event>
 7    1  0.6557591E-006  0.1119122E+03  0.7818608E-02  0.1300144E+00
          2   -1    0    0  502    0  0.00000000000E+00  0.00000000000E+00  0.17659010424E+03  0.17659010424E+03  0.00000000000E+00 0. -1.
          1   -1    0    0  501    0 -0.00000000000E+00 -0.00000000000E+00 -0.95792146880E+03  0.95792146880E+03  0.00000000000E+00 0. -1.
         25    2    1    2    0    0  0.75221410868E+02  0.11155025663E+03 -0.22495278188E+03  0.29039673083E+03  0.12499914717E+03 0.  0.
          2    1    1    2  501    0 -0.10294629453E+03 -0.42721246300E+02 -0.68587121112E+03  0.69486859382E+03  0.00000000000E+00 0. -1.
          1    1    1    2  502    0  0.27724883662E+02 -0.68829010328E+02  0.12949262844E+03  0.14924624839E+03  0.00000000000E+00 0. -1.
         22    1    3    3    0    0  0.73373270956E+02  0.24541443348E+01 -0.75028775733E+02  0.10497131467E+03  0.00000000000E+00 0.  1.
         22    1    3    3    0    0  0.18481399124E+01  0.10909611229E+03 -0.14992400615E+03  0.18542541616E+03  0.00000000000E+00 0.  1.
</event>
<event>
 7    1  0.6557591E-006  0.6525904E+02  0.7818608E-02  0.1435866E+00
          2   -1    0    0  502    0  0.00000000000E+00  0.00000000000E+00  0.32242543702E+03  0.32242543702E+03  0.00000000000E+00 0. -1.
          1   -1    0    0  501    0 -0.00000000000E+00 -0.00000000000E+00 -0.18549475915E+04  0.18549475915E+04  0.00000000000E+00 0. -1.
         25    2    1    2    0    0  0.70783195257E+02 -0.71056682779E+02 -0.18693320826E+03  0.24622829002E+03  0.12500013424E+03 0.  0.
          2    1    1    2  501    0 -0.14947739312E+02  0.38304113309E+02 -0.16345270601E+04  0.16350441431E+04  0.00000000000E+00 0. -1.
          1    1    1    2  502    0 -0.55835455946E+02  0.32752569470E+02  0.28893811382E+03  0.29610059535E+03  0.00000000000E+00 0. -1.
         22    1    3    3    0    0 -0.18746293490E+02 -0.64683442755E+02 -0.56557697761E+02  0.87943984799E+02  0.00000000000E+00 0. -1.
         22    1    3    3    0    0  0.89529488747E+02 -0.63732400245E+01 -0.13037551049E+03  0.15828430522E+03  0.00000000000E+00 0. -1.
</event>
<event>
 7    1  0.6557591E-006  0.3775309E+02  0.7818608E-02  0.1607737E+00
          2   -1    0    0  502    0  0.00000000000E+00  0.00000000000E+00  0.91879867113E+03  0.91879867113E+03  0.00000000000E+00 0. -1.
          1   -1    0    0  501    0 -0.00000000000E+00 -0.00000000000E+00 -0.53524236025E+02  0.53524236025E+02  0.00000000000E+00 0. -1.
         25    2    1    2    0    0 -0.49680352980E+02  0.29303603234E+02  0.48226923612E+03  0.50153388956E+03  0.12500315051E+03 0.  0.
          2    1    1    2  501    0  0.35539058308E+02 -0.11803553425E+02 -0.35546880357E+02  0.51632637372E+02  0.00000000000E+00 0. -1.
          1    1    1    2  502    0  0.14141294672E+02 -0.17500049808E+02  0.41855207934E+03  0.41915638022E+03  0.00000000000E+00 0. -1.
         22    1    3    3    0    0 -0.80571934398E+02  0.10462614954E+02  0.43212982657E+03  0.43970159191E+03  0.00000000000E+00 0. -1.
         22    1    3    3    0    0  0.30891581418E+02  0.18840988280E+02  0.50139409555E+02  0.61832297648E+02  0.00000000000E+00 0. -1.
</event>
<event>
 7    1  0.6557591E-006  0.1129119E+03  0.7818608E-02  0.1445747E+00
          2   -1    0    0  502    0  0.00000000000E+00  0.00000000000E+00  0.98241322744E+03  0.98241322744E+03  0.00000000000E+00 0. -1.
          1   -1    0    0  501    0 -0.00000000000E+00 -0.00000000000E+00 -0.31196967577E+03  0.31196967577E+03  0.00000000000E+00 0. -1.
         25    2    1    2    0    0 -0.42280389302E+02  0.10603796070E+03  0.18633709271E+03  0.25175365258E+03  0.12500683597E+03 0.  0.
          2    1    1    2  501    0  0.20776759292E+02 -0.11102630551E+03 -0.26767109544E+03  0.29052767437E+03  0.00000000000E+00 0. -1.
          1    1    1    2  502    0  0.21503630010E+02  0.49883448086E+01  0.75177755440E+03  0.75210157625E+03  0.00000000000E+00 0. -1.
         22    1    3    3    0    0 -0.81209839245E+02  0.80084305082E+02  0.92313657748E+02  0.14673222317E+03  0.00000000000E+00 0.  1.
         22    1    3    3    0    0  0.38929449942E+02  0.25953655615E+02  0.94023434963E+02  0.10502142941E+03  0.00000000000E+00 0.  1.
</event>
<event>
 7    1  0.6557591E-006  0.2130415E+03  0.7818608E-02  0.1268466E+00
          2   -1    0    0  502    0  0.00000000000E+00  0.00000000000E+00  0.81421476303E+03  0.81421476303E+03  0.00000000000E+00 0. -1.
          1   -1    0    0  501    0 -0.00000000000E+00 -0.00000000000E+00 -0.95656312139E+03  0.95656312139E+03  0.00000000000E+00 0. -1.
         25    2    1    2    0    0  0.95883897510E+02  0.13424144015E+03  0.40348872906E+03  0.45347833803E+03  0.12499985009E+03 0.  0.
          2    1    1    2  501    0 -0.10759101987E+03 -0.18550712928E+03 -0.91735043245E+03  0.94208308470E+03  0.00000000000E+00 0. -1.
          1    1    1    2  502    0  0.11707122364E+02  0.51265689130E+02  0.37151334503E+03  0.37521646170E+03  0.00000000000E+00 0. -1.
         22    1    3    3    0    0  0.87986471081E+02  0.18684040835E+02  0.20087154905E+03  0.22009109862E+03  0.00000000000E+00 0.  1.
         22    1    3    3    0    0  0.78974264285E+01  0.11555739931E+03  0.20261718002E+03  0.23338723941E+03  0.00000000000E+00 0.  1.
</event>
<event>
 7    1  0.6557591E-006  0.4162222E+02  0.7818608E-02  0.1582914E+00
          2   -1    0    0  502    0  0.00000000000E+00  0.00000000000E+00  0.77943805755E+03  0.77943805755E+03  0.00000000000E+00 0. -1.
          1   -1    0    0  501    0 -0.00000000000E+00 -0.00000000000E+00 -0.28151807136E+04  0.28151807136E+04  0.00000000000E+00 0. -1.
         25    2    1    2    0    0 -0.36843473957E+02 -0.50889334532E+02 -0.57348002450E+03  0.59029774169E+03  0.12499967760E+03 0.  0.
          2    1    1    2  501    0  0.30015336603E+02  0.28176695753E+02 -0.22329196630E+04  0.22332991443E+04  0.00000000000E+00 0. -1.
          1    1    1    2  502    0  0.68281373540E+01  0.22712638779E+02  0.77065703139E+03  0.77102188520E+03  0.00000000000E+00 0. -1.
         22    1    3    3    0    0  0.76128759437E+01 -0.63799461073E+02 -0.49522178770E+03  0.49937255243E+03  0.00000000000E+00 0. -1.
         22    1    3    3    0    0 -0.44456349900E+02  0.12910126541E+02 -0.78258236802E+02  0.90925189256E+02  0.00000000000E+00 0. -1.
</event>
<event>
 7    1  0.6557591E-006  0.8954673E+02  0.7818608E-02  0.1458778E+00
          2   -1    0    0  502    0  0.00000000000E+00  0.00000000000E+00  0.61931343291E+02  0.61931343291E+02  0.00000000000E+00 0. -1.
          1   -1    0    0  501    0 -0.00000000000E+00 -0.00000000000E+00 -0.54628498196E+03  0.54628498196E+03  0.00000000000E+00 0. -1.
         25    2    1    2    0    0  0.26181401441E+02 -0.73785758976E+02 -0.79996990875E+02  0.16779400123E+03  0.12500201715E+03 0.  0.
          2    1    1    2  501    0  0.63029233404E+01 -0.24496530837E+02 -0.26818147418E+03  0.26937169480E+03  0.00000000000E+00 0. -1.
          1    1    1    2  502    0 -0.32484324781E+02  0.98282289813E+02 -0.13617517361E+03  0.17105062922E+03  0.00000000000E+00 0. -1.
         22    1    3    3    0    0  0.56511628305E+02 -0.59377027607E+01 -0.73907330082E+02  0.93226143798E+02  0.00000000000E+00 0.  1.
         22    1    3    3    0    0 -0.30330226864E+02 -0.67848056215E+02 -0.60896607935E+01  0.74567857435E+02  0.00000000000E+00 0.  1.
</event>
<event>
 7    1  0.6557591E-006  0.7059494E+02  0.7818608E-02  0.1431225E+00
          2   -1    0    0  502    0  0.00000000000E+00  0.00000000000E+00  0.24521014842E+04  0.24521014842E+04  0.00000000000E+00 0. -1.
          1   -1    0    0  501    0 -0.00000000000E+00 -0.00000000000E+00 -0.22598644998E+03  0.22598644998E+03  0.00000000000E+00 0. -1.
         25    2    1    2    0    0  0.19971391842E+01  0.76318696310E+02  0.35003491769E+03  0.37944748504E+03  0.12500967295E+03 0.  0.
          2    1    1    2  501    0 -0.36572805392E+02 -0.14557383805E+02 -0.20884092710E+03  0.21251828239E+03  0.00000000000E+00 0. -1.
          1    1    1    2  502    0  0.34575666208E+02 -0.61761312505E+02  0.20849210437E+04  0.20861221668E+04  0.00000000000E+00 0. -1.
         22    1    3    3    0    0 -0.46781318492E+02 -0.85247057287E+01  0.93929800166E+02  0.10528043373E+03  0.00000000000E+00 0.  1.
         22    1    3    3    0    0  0.48778457676E+02  0.84843402039E+02  0.25610511752E+03  0.27416705131E+03  0.00000000000E+00 0.  1.
</event>
<event>
 7    1  0.6557591E-006  0.7628600E+02  0.7818608E-02  0.1402293E+00
          2   -1    0    0  502    0  0.00000000000E+00  0.00000000000E+00  0.13238418852E+04  0.13238418852E+04  0.00000000000E+00 0. -1.
          1   -1    0    0  501    0 -0.00000000000E+00 -0.00000000000E+00 -0.12716173015E+03  0.12716173015E+03  0.00000000000E+00 0. -1.
         25    2    1    2    0    0 -0.70357534053E+02  0.91245272294E+02  0.35386279404E+03  0.39258042308E+03  0.12499851707E+03 0.  0.
          2    1    1    2  501    0  0.37940516630E+02 -0.25211101970E+02 -0.10149553425E+03  0.11124938623E+03  0.00000000000E+00 0. -1.
          1    1    1    2  502    0  0.32417017423E+02 -0.66034170325E+02  0.94431289524E+03  0.94717380601E+03  0.00000000000E+00 0. -1.
         22    1    3    3    0    0 -0.10374068470E+03  0.45754465233E+02  0.22732415904E+03  0.25403124617E+03  0.00000000000E+00 0. -1.
         22    1    3    3    0    0  0.33383150646E+02  0.45490807061E+02  0.12653863500E+03  0.13854917691E+03  0.00000000000E+00 0. -1.
</event>
<event>
 7    1  0.6557591E-006  0.6066315E+02  0.7818608E-02  0.1447805E+00
          2   -1    0    0  502    0  0.00000000000E+00  0.00000000000E+00  0.14166313475E+03  0.14166313475E+03  0.00000000000E+00 0. -1.
          1   -1    0    0  501    0 -0.00000000000E+00 -0.00000000000E+00 -0.25022793777E+03  0.25022793777E+03  0.00000000000E+00 0. -1.
         25    2    1    2    0    0  0.20479609592E+02 -0.19940667329E+02  0.29380301344E+02  0.13154997186E+03  0.12500059346E+03 0.  0.
          2    1    1    2  501    0 -0.60786742271E+02  0.16354611427E+02 -0.18667328835E+03  0.19700106075E+03  0.00000000000E+00 0. -1.
          1    1    1    2  502    0  0.40307132679E+02  0.35860559020E+01  0.48728183991E+02  0.63340039918E+02  0.00000000000E+00 0. -1.
         22    1    3    3    0    0 -0.22676498430E+02 -0.59678319562E+02 -0.41553993977E+01  0.63976501553E+02  0.00000000000E+00 0.  1.
         22    1    3    3    0    0  0.43156108022E+02  0.39737652233E+02  0.33535700742E+02  0.67573470303E+02  0.00000000000E+00 0.  1.
</event>
<event>
 7    1  0.6557591E-006  0.1194453E+03  0.7818608E-02  0.1324523E+00
          2   -1    0    0  502    0  0.00000000000E+00  0.00000000000E+00  0.56787858497E+03  0.56787858497E+03  0.00000000000E+00 0. -1.
          1   -1    0    0  501    0 -0.00000000000E+00 -0.00000000000E+00 -0.64307656956E+03  0.64307656956E+03  0.00000000000E+00 0. -1.
         25    2    1    2    0    0 -0.64891628160E+02  0.39961052229E+02 -0.13054326845E+03  0.19614421433E+03  0.12499279490E+03 0.  0.
          2    1    1    2  501    0  0.10601694211E+03 -0.77630332387E+02 -0.46922915557E+03  0.48728026941E+03  0.00000000000E+00 0. -1.
          1    1    1    2  502    0 -0.41125313951E+02  0.37669280158E+02  0.52457443943E+03  0.52753067079E+03  0.00000000000E+00 0. -1.
         22    1    3    3    0    0  0.21832070621E+02 -0.20633609420E+02 -0.26387160196E+01  0.30155396988E+02  0.00000000000E+00 0.  1.
         22    1    3    3    0    0 -0.86723698781E+02  0.60594661648E+02 -0.12790455243E+03  0.16598881735E+03  0.00000000000E+00 0.  1.
</event>
<event>
 7    1  0.6557591E-006  0.5130923E+02  0.7818608E-02  0.1487059E+00
          2   -1    0    0  502    0  0.00000000000E+00  0.00000000000E+00  0.16538881694E+03  0.16538881694E+03  0.00000000000E+00 0. -1.
          1   -1    0    0  501    0 -0.00000000000E+00 -0.00000000000E+00 -0.10568940097E+03  0.10568940097E+03  0.00000000000E+00 0. -1.
         25    2    1    2    0    0  0.17979685804E+02  0.61644989653E+02  0.43506164979E+02  0.14710945866E+03  0.12500013034E+03 0.  0.
          2    1    1    2  501    0 -0.29938705745E+02 -0.20133613395E+02  0.55080232277E+02  0.65844669319E+02  0.00000000000E+00 0. -1.
          1    1    1    2  502    0  0.11959019941E+02 -0.41511376258E+02 -0.38886981290E+02  0.58124089934E+02  0.00000000000E+00 0. -1.
         22    1    3    3    0    0 -0.43146104039E+02 -0.39946839177E+01  0.37347544173E+02  0.57204744987E+02  0.00000000000E+00 0. -1.
         22    1    3    3    0    0  0.61125789843E+02  0.65639673571E+02  0.61586208066E+01  0.89904713673E+02  0.00000000000E+00 0. -1.
</event>
<event>
 7    1  0.6557591E-006  0.4968490E+02  0.7818608E-02  0.1558700E+00
          2   -1    0    0  502    0  0.00000000000E+00  0.00000000000E+00  0.95865535864E+03  0.95865535864E+03  0.00000000000E+00 0. -1.
          1   -1    0    0  501    0 -0.00000000000E+00 -0.00000000000E+00 -0.15708752328E+04  0.15708752328E+04  0.00000000000E+00 0. -1.
         25    2    1    2    0    0  0.25601450617E+02 -0.24001867786E+02  0.43010057501E+03  0.44926963420E+03  0.12500070264E+03 0.  0.
          2    1    1    2  501    0  0.22636169034E+02  0.46757183673E+01 -0.15599040398E+04  0.15600752777E+04  0.00000000000E+00 0. -1.
          1    1    1    2  502    0 -0.48237619650E+02  0.19326149419E+02  0.51758359063E+03  0.52018567962E+03  0.00000000000E+00 0. -1.
         22    1    3    3    0    0 -0.33403367745E+02  0.31384487712E+02  0.20506691089E+03  0.21012664987E+03  0.00000000000E+00 0. -1.
         22    1    3    3    0    0  0.59004818362E+02 -0.55386355498E+02  0.22503366412E+03  0.23914298432E+03  0.00000000000E+00 0. -1.
</event>
<event>
 7    1  0.6557591E-006  0.1109476E+03  0.7818608E-02  0.1373661E+00
          2   -1    0    0  502    0  0.00000000000E+00  0.00000000000E+00  0.20269126097E+04  0.20269126097E+04  0.00000000000E+00 0. -1.
          1   -1    0    0  501    0 -0.00000000000E+00 -0.00000000000E+00 -0.61173638102E+03  0.61173638102E+03  0.00000000000E+00 0. -1.
         25    2    1    2    0    0 -0.85709339322E+02  0.11229442858E+03  0.93244848033E+03  0.95133711662E+03  0.12500404577E+03 0.  0.
          2    1    1    2  501    0  0.16386857413E+02 -0.35887959553E+02 -0.59918950246E+03  0.60048691459E+03  0.00000000000E+00 0. -1.
          1    1    1    2  502    0  0.69322481909E+02 -0.76406469029E+02  0.10819172508E+04  0.10868249595E+04  0.00000000000E+00 0. -1.
         22    1    3    3    0    0 -0.34277179542E+02  0.84937723948E+02  0.24730754747E+03  0.26372403194E+03  0.00000000000E+00 0. -1.
         22    1    3    3    0    0 -0.51432159780E+02  0.27356704634E+02  0.68514093286E+03  0.68761308468E+03  0.00000000000E+00 0. -1.
</event>
<event>
 7    1  0.6557591E-006  0.2126180E+02  0.7818608E-02  0.1727991E+00
          2   -1    0    0  502    0  0.00000000000E+00  0.00000000000E+00  0.41062888801E+03  0.41062888801E+03  0.00000000000E+00 0. -1.
          1   -1    0    0  501    0 -0.00000000000E+00 -0.00000000000E+00 -0.90496069050E+03  0.90496069050E+03  0.00000000000E+00 0. -1.
         25    2    1    2    0    0 -0.64234383105E+01  0.33918539998E+02 -0.71153343436E+02  0.14791833193E+03  0.12500122689E+03 0.  0.
          2    1    1    2  501    0 -0.82694103300E+01 -0.19557663508E+02 -0.79499949078E+03  0.79528301609E+03  0.00000000000E+00 0. -1.
          1    1    1    2  502    0  0.14692848641E+02 -0.14360876489E+02  0.37182103172E+03  0.37238823049E+03  0.00000000000E+00 0. -1.
         22    1    3    3    0    0  0.16337831841E+02  0.77690920544E+02 -0.52470571363E+02  0.95162832784E+02  0.00000000000E+00 0.  1.
         22    1    3    3    0    0 -0.22761270152E+02 -0.43772380546E+02 -0.18682772073E+02  0.52755499144E+02  0.00000000000E+00 0.  1.
</event>
<event>
 7    1  0.6557591E-006  0.6020222E+02  0.7818608E-02  0.1411374E+00
          2   -1    0    0  502    0  0.00000000000E+00  0.00000000000E+00  0.20180561179E+04  0.20180561179E+04  0.00000000000E+00 0. -1.
          1   -1    0    0  501    0 -0.00000000000E+00 -0.00000000000E+00 -0.43454054848E+03  0.43454054848E+03  0.00000000000E+00 0. -1.
         25    2    1    2    0    0  0.41702841692E+02 -0.25216029094E+02  0.20959522225E+03  0.24886360263E+03  0.12501184101E+03 0.  0.
          2    1    1    2  501    0 -0.11632154941E+01  0.60519345197E+02 -0.41229214555E+03  0.41671183988E+03  0.00000000000E+00 0. -1.
          1    1    1    2  502    0 -0.40539626198E+02 -0.35303316103E+02  0.17862124927E+04  0.17870212239E+04  0.00000000000E+00 0. -1.
         22    1    3    3    0    0 -0.37966010414E+02 -0.32410743960E+02  0.51728551915E+02  0.71886837140E+02  0.00000000000E+00 0. -1.
         22    1    3    3    0    0  0.79668852106E+02  0.71947148653E+01  0.15786667034E+03  0.17697676549E+03  0.00000000000E+00 0. -1.
</event>
<event>
 7    1  0.6557591E-006  0.1425485E+03  0.7818608E-02  0.1259497E+00
          2   -1    0    0  502    0  0.00000000000E+00  0.00000000000E+00  0.44329647504E+04  0.44329647504E+04  0.00000000000E+00 0. -1.
          1   -1    0    0  501    0 -0.00000000000E+00 -0.00000000000E+00 -0.72286950769E+03  0.72286950769E+03  0.00000000000E+00 0. -1.
         25    2    1    2    0    0  0.10849653160E+02  0.17594522748E+03 -0.14103342464E+02  0.21656336522E+03  0.12500539524E+03 0.  0.
          2    1    1    2  501    0  0.65323570154E+02 -0.55602127738E+02 -0.60333065444E+03  0.60939859207E+03  0.00000000000E+00 0. -1.
          1    1    1    2  502    0 -0.76173223314E+02 -0.12034309974E+03  0.43275292396E+04  0.43298723008E+04  0.00000000000E+00 0. -1.
         22    1    3    3    0    0 -0.16621668854E+01 -0.14246707652E+02  0.18273096273E+02  0.23230099549E+02  0.00000000000E+00 0.  1.
         22    1    3    3    0    0  0.12511820045E+02  0.19019193513E+03 -0.32376438737E+02  0.19333326567E+03  0.00000000000E+00 0.  1.
</event>
<event>
 7    1  0.6557591E-006  0.6807352E+02  0.7818608E-02  0.1410076E+00
          2   -1    0    0  502    0  0.00000000000E+00  0.00000000000E+00  0.80532383062E+03  0.80532383062E+03  0.00000000000E+00 0. -1.
          1   -1    0    0  501    0 -0.00000000000E+00 -0.00000000000E+00 -0.86422777732E+02  0.86422777732E+02  0.00000000000E+00 0. -1.
         25    2    1    2    0    0 -0.72034626368E+01  0.23664476318E+02  0.14898765321E+03  0.19605576479E+03  0.12501457829E+03 0.  0.
          2    1    1    2  501    0 -0.27611229230E+02  0.39293163579E+02 -0.51331582592E+02  0.70294125324E+02  0.00000000000E+00 0. -1.
          1    1    1    2  502    0  0.34814691867E+02 -0.62957639897E+02  0.62124498227E+03  0.62539671824E+03  0.00000000000E+00 0. -1.
         22    1    3    3    0    0  0.24688071884E+01 -0.37712795554E+02  0.36209903926E+01  0.37966584371E+02  0.00000000000E+00 0. -1.
         22    1    3    3    0    0 -0.96722698252E+01  0.61377271871E+02  0.14536666282E+03  0.15808918042E+03  0.00000000000E+00 0. -1.
</event>
<event>
 7    1  0.6557591E-006  0.3016434E+03  0.7818608E-02  0.1212696E+00
          2   -1    0    0  502    0  0.00000000000E+00  0.00000000000E+00  0.10371553217E+04  0.10371553217E+04  0.00000000000E+00 0. -1.
          1   -1    0    0  501    0 -0.00000000000E+00 -0.00000000000E+00 -0.20753135279E+04  0.20753135279E+04  0.00000000000E+00 0. -1.
         25    2    1    2    0    0  0.15413245586E+03  0.29134250333E+03 -0.91408022760E+02  0.36416689502E+03  0.12499933042E+03 0.  0.
          2    1    1    2  501    0 -0.65163114210E+02 -0.57401893691E+01 -0.18220876200E+04  0.18232614941E+04  0.00000000000E+00 0. -1.
          1    1    1    2  502    0 -0.88969341655E+02 -0.28560231396E+03  0.87533743660E+03  0.92504046041E+03  0.00000000000E+00 0. -1.
         22    1    3    3    0    0  0.91202663378E+02  0.11917233800E+03  0.17278189973E+02  0.15105796173E+03  0.00000000000E+00 0. -1.
         22    1    3    3    0    0  0.62929792487E+02  0.17217016533E+03 -0.10868621273E+03  0.21310893329E+03  0.00000000000E+00 0. -1.
</event>
<event>
 7    1  0.6557591E-006  0.6209476E+02  0.7818608E-02  0.1443733E+00
          2   -1    0    0  502    0  0.00000000000E+00  0.00000000000E+00  0.11080992600E+04  0.11080992600E+04  0.00000000000E+00 0. -1.
          1   -1    0    0  501    0 -0.00000000000E+00 -0.00000000000E+00 -0.10786189074E+04  0.10786189074E+04  0.00000000000E+00 0. -1.
         25    2    1    2    0    0  0.32067771248E+02 -0.62730905667E+01 -0.15929699200E+03  0.20510559495E+03  0.12500031921E+03 0.  0.
          2    1    1    2  501    0 -0.59013071071E+02 -0.24289842126E+02 -0.89489849354E+03  0.89717102757E+03  0.00000000000E+00 0. -1.
          1    1    1    2  502    0  0.26945299824E+02  0.30562932692E+02  0.10836758382E+04  0.10844415449E+04  0.00000000000E+00 0. -1.
         22    1    3    3    0    0 -0.14456089077E+02  0.52360482469E+02 -0.69254448641E+02  0.88015778655E+02  0.00000000000E+00 0. -1.
         22    1    3    3    0    0  0.46523860325E+02 -0.58633573035E+02 -0.90042543357E+02  0.11708981630E+03  0.00000000000E+00 0. -1.
</event>
<event>
 7    1  0.6557591E-006  0.1441036E+03  0.7818608E-02  0.1254986E+00
          2   -1    0    0  502    0  0.00000000000E+00  0.00000000000E+00  0.10758896424E+04  0.10758896424E+04  0.00000000000E+00 0. -1.
          1   -1    0    0  501    0 -0.00000000000E+00 -0.00000000000E+00 -0.29722666112E+03  0.29722666112E+03  0.00000000000E+00 0. -1.
         25    2    1    2    0    0  0.17968194617E+03 -0.10562933731E+03  0.47484657944E+03  0.53342928492E+03  0.12499747724E+03 0.  0.
          2    1    1    2  501    0 -0.87349044051E+02  0.15546115504E+02 -0.25300940622E+03  0.26811433539E+03  0.00000000000E+00 0. -1.
          1    1    1    2  502    0 -0.92332902121E+02  0.90083221801E+02  0.55682580809E+03  0.57157268323E+03  0.00000000000E+00 0. -1.
         22    1    3    3    0    0  0.91649262512E+02  0.12621434232E+02  0.14308604473E+03  0.17038927231E+03  0.00000000000E+00 0. -1.
         22    1    3    3    0    0  0.88032683660E+02 -0.11825077154E+03  0.33176053471E+03  0.36304001261E+03  0.00000000000E+00 0. -1.
</event>
<event>
 7    1  0.6557591E-006  0.1362932E+03  0.7818608E-02  0.1415043E+00
          2   -1    0    0  502    0  0.00000000000E+00  0.00000000000E+00  0.14555377501E+03  0.14555377501E+03  0.00000000000E+00 0. -1.
          1   -1    0    0  501    0 -0.00000000000E+00 -0.00000000000E+00 -0.49729650345E+03  0.49729650345E+03  0.00000000000E+00 0. -1.
         25    2    1    2    0    0 -0.39425160124E+02  0.15053896189E+03 -0.44226726722E+02  0.20444463033E+03  0.12500112486E+03 0.  0.
          2    1    1    2  501    0  0.28125457135E+02 -0.13041670745E+03 -0.35845748429E+03  0.38248049227E+03  0.00000000000E+00 0. -1.
          1    1    1    2  502    0  0.11299702989E+02 -0.20122254445E+02  0.50941482566E+02  0.55925155857E+02  0.00000000000E+00 0. -1.
         22    1    3    3    0    0 -0.77353279972E+02  0.60691364562E+02 -0.41941681897E+02  0.10689282640E+03  0.00000000000E+00 0. -1.
         22    1    3    3    0    0  0.37928119848E+02  0.89847597331E+02 -0.22850448257E+01  0.97551803937E+02  0.00000000000E+00 0. -1.
</event>
<event>
 7    1  0.6557591E-006  0.5845540E+02  0.7818608E-02  0.1553245E+00
          2   -1    0    0  502    0  0.00000000000E+00  0.00000000000E+00  0.77269213121E+03  0.77269213121E+03  0.00000000000E+00 0. -1.
          1   -1    0    0  501    0 -0.00000000000E+00 -0.00000000000E+00 -0.90499717896E+02  0.90499717896E+02  0.00000000000E+00 0. -1.
         25    2    1    2    0    0  0.71264877573E+02  0.18758506652E+02  0.41801267583E+03  0.44248152952E+03  0.12499896985E+03 0.  0.
          2    1    1    2  501    0 -0.20072030691E+02  0.32969830903E+01 -0.74626621448E+02  0.77349137954E+02  0.00000000000E+00 0. -1.
          1    1    1    2  502    0 -0.51192846882E+02 -0.22055489742E+02  0.33880635893E+03  0.34336118163E+03  0.00000000000E+00 0. -1.
         22    1    3    3    0    0 -0.18735754330E+02  0.46969611168E+02  0.13453931311E+03  0.14372891022E+03  0.00000000000E+00 0.  1.
         22    1    3    3    0    0  0.90000631903E+02 -0.28211104516E+02  0.28347336273E+03  0.29875261930E+03  0.00000000000E+00 0.  1.
</event>
<event>
 7    1  0.6557591E-006  0.2759849E+02  0.7818608E-02  0.1672142E+00
          2   -1    0    0  502    0  0.00000000000E+00  0.00000000000E+00  0.10215497267E+03  0.10215497267E+03  0.00000000000E+00 0. -1.
          1   -1    0    0  501    0 -0.00000000000E+00 -0.00000000000E+00 -0.32256971708E+03  0.32256971708E+03  0.00000000000E+00 0. -1.
         25    2    1    2    0    0  0.19673040921E+02 -0.32965673066E+02 -0.51782268837E+02  0.14064258395E+03  0.12500067565E+03 0.  0.
          2    1    1    2  501    0  0.48738990343E+01  0.20727455146E+02 -0.22256199482E+03  0.22357822754E+03  0.00000000000E+00 0. -1.
          1    1    1    2  502    0 -0.24546939955E+02  0.12238217920E+02  0.53929519250E+02  0.60503878269E+02  0.00000000000E+00 0. -1.
         22    1    3    3    0    0  0.39746982182E+02  0.34915048566E+02  0.56090493433E-01  0.52904502219E+02  0.00000000000E+00 0.  1.
         22    1    3    3    0    0 -0.20073941261E+02 -0.67880721631E+02 -0.51838359331E+02  0.87738081727E+02  0.00000000000E+00 0.  1.
</event>
<event>
 7    1  0.6557591E-006  0.6660911E+02  0.7818608E-02  0.1387628E+00
          2   -1    0    0  502    0  0.00000000000E+00  0.00000000000E+00  0.87995730853E+03  0.87995730853E+03  0.00000000000E+00 0. -1.
          1   -1    0    0  501    0 -0.00000000000E+00 -0.00000000000E+00 -0.63005368178E+03  0.63005368178E+03  0.00000000000E+00 0. -1.
         25    2    1    2    0    0 -0.10915405438E+02 -0.43567627962E+01 -0.28773004266E+03  0.31392807509E+03  0.12499652565E+03 0.  0.
          2    1    1    2  501    0  0.70305631466E+02 -0.25802389581E+02 -0.32366304408E+03  0.33221440551E+03  0.00000000000E+00 0. -1.
          1    1    1    2  502    0 -0.59390226028E+02  0.30159152378E+02  0.86129671349E+03  0.86386850972E+03  0.00000000000E+00 0. -1.
         22    1    3    3    0    0 -0.64103021909E+02 -0.86563191210E+01 -0.20929290410E+03  0.21906083398E+03  0.00000000000E+00 0. -1.
         22    1    3    3    0    0  0.53187616472E+02  0.42995563249E+01 -0.78437138555E+02  0.94867241107E+02  0.00000000000E+00 0. -1.
</event>
<event>
 7    1  0.6557591E-006  0.4820994E+02  0.7818608E-02  0.1469487E+00
          2   -1    0    0  502    0  0.00000000000E+00  0.00000000000E+00  0.10566143962E+03  0.10566143962E+03  0.00000000000E+00 0. -1.
          1   -1    0    0  501    0 -0.00000000000E+00 -0.00000000000E+00 -0.17119172424E+04  0.17119172424E+04  0.00000000000E+00 0. -1.
         25    2    1    2    0    0  0.10350983542E+02  0.82357622284E+02  0.15264874640E+02  0.15082114105E+03  0.12499631747E+03 0.  0.
          2    1    1    2  501    0 -0.24652830760E+02 -0.41290761115E+02 -0.16225469429E+04  0.16232594589E+04  0.00000000000E+00 0. -1.
          1    1    1    2  502    0  0.14301847218E+02 -0.41066861169E+02  0.10262655012E+01  0.43498082038E+02  0.00000000000E+00 0. -1.
         22    1    3    3    0    0  0.24576781333E+02  0.54296120029E+01 -0.45341808957E+02  0.51859218145E+02  0.00000000000E+00 0. -1.
         22    1    3    3    0    0 -0.14225797791E+02  0.76928010281E+02  0.60606683597E+02  0.98961922906E+02  0.00000000000E+00 0. -1.
</event>
<event>
 7    1  0.6557591E-006  0.1250807E+03  0.7818608E-02  0.1302229E+00
          2   -1    0    0  502    0  0.00000000000E+00  0.00000000000E+00  0.27194591414E+03  0.27194591414E+03  0.00000000000E+00 0. -1.
          1   -1    0    0  501    0 -0.00000000000E+00 -0.00000000000E+00 -0.73442374472E+03  0.73442374472E+03  0.00000000000E+00 0. -1.
         25    2    1    2    0    0  0.32139985268E+02 -0.64909429180E+02  0.18137670109E+03  0.23185197240E+03  0.12494645557E+03 0.  0.
          2    1    1    2  501    0 -0.94168150431E+02  0.84768003969E+02 -0.68556632146E+03  0.69717604389E+03  0.00000000000E+00 0. -1.
          1    1    1    2  502    0  0.62028165163E+02 -0.19858574789E+02  0.41711789788E+02  0.77341642557E+02  0.00000000000E+00 0. -1.
         22    1    3    3    0    0  0.56391566247E+02 -0.71424943916E+02  0.18529563759E+03  0.20643644220E+03  0.00000000000E+00 0. -1.
         22    1    3    3    0    0 -0.24251580979E+02  0.65155147352E+01 -0.39189365004E+01  0.25415530204E+02  0.00000000000E+00 0. -1.
</event>
<event>
 7    1  0.6557591E-006  0.1149270E+03  0.7818608E-02  0.1317931E+00
          2   -1    0    0  502    0  0.00000000000E+00  0.00000000000E+00  0.12384532514E+04  0.12384532514E+04  0.00000000000E+00 0. -1.
          1   -1    0    0  501    0 -0.00000000000E+00 -0.00000000000E+00 -0.89223157887E+02  0.89223157887E+02  0.00000000000E+00 0. -1.
         25    2    1    2    0    0 -0.24832661020E+02  0.55880319415E+02  0.34327121296E+03  0.37040451357E+03  0.12500042748E+03 0.  0.
          2    1    1    2  501    0  0.45242737477E+02 -0.11386412534E+03 -0.24157973622E+02  0.12488215254E+03  0.00000000000E+00 0. -1.
          1    1    1    2  502    0 -0.20410076458E+02  0.57983805922E+02  0.83011685413E+03  0.83238974313E+03  0.00000000000E+00 0. -1.
         22    1    3    3    0    0  0.14316082347E+01  0.79636114929E+02  0.31550465347E+03  0.32540305264E+03  0.00000000000E+00 0.  1.
         22    1    3    3    0    0 -0.26264269254E+02 -0.23755795513E+02  0.27766559492E+02  0.45001460932E+02  0.00000000000E+00 0.  1.
</event>
<event>
 7    1  0.6557591E-006  0.4631136E+02  0.7818608E-02  0.1496387E+00
          2   -1    0    0  502    0  0.00000000000E+00  0.00000000000E+00  0.12174101185E+03  0.12174101185E+03  0.00000000000E+00 0. -1.
          1   -1    0    0  501    0 -0.00000000000E+00 -0.00000000000E+00 -0.65886693061E+03  0.65886693061E+03  0.00000000000E+00 0. -1.
         25    2    1    2    0    0 -0.43262319914E+02 -0.29817153413E+02 -0.39735301809E+03  0.41985150849E+03  0.12500070893E+03 0.  0.
          2    1    1    2  501    0  0.34030216542E+02 -0.15667181394E+02 -0.24389670686E+03  0.24675720826E+03  0.00000000000E+00 0. -1.
          1    1    1    2  502    0  0.92321033717E+01  0.45484334807E+02  0.10412380619E+03  0.11399922571E+03  0.00000000000E+00 0. -1.
         22    1    3    3    0    0 -0.45891103189E+02 -0.50812992481E+02 -0.39212192593E+03  0.39805471779E+03  0.00000000000E+00 0.  1.
         22    1    3    3    0    0  0.26287832752E+01  0.20995839068E+02 -0.52310921573E+01  0.21796790700E+02  0.00000000000E+00 0.  1.
</event>
<event>
 7    1  0.6557591E-006  0.1305549E+03  0.7818608E-02  0.1299706E+00
          2   -1    0    0  502    0  0.00000000000E+00  0.00000000000E+00  0.84475540991E+03  0.84475540991E+03  0.00000000000E+00 0. -1.
          1   -1    0    0  501    0 -0.00000000000E+00 -0.00000000000E+00 -0.14672497138E+04  0.14672497138E+04  0.00000000000E+00 0. -1.
         25    2    1    2    0    0  0.38744787059E+02  0.11676417852E+03 -0.11906916109E+04  0.12035394056E+04  0.12500222648E+03 0.  0.
          2    1    1    2  501    0 -0.42407988091E-01 -0.16756596402E+03 -0.24277190928E+03  0.29498568445E+03  0.00000000000E+00 0. -1.
          1    1    1    2  502    0 -0.38702379071E+02  0.50801785498E+02  0.81096921624E+03  0.81348003371E+03  0.00000000000E+00 0. -1.
         22    1    3    3    0    0  0.18015552961E+02  0.14169569528E+03 -0.95206926736E+03  0.96272432194E+03  0.00000000000E+00 0. -1.
         22    1    3    3    0    0  0.20729234098E+02 -0.24931516758E+02 -0.23862234353E+03  0.24081508363E+03  0.00000000000E+00 0. -1.
</event>
<event>
 7    1  0.6557591E-006  0.1262231E+03  0.7818608E-02  0.1328336E+00
          2   -1    0    0  502    0  0.00000000000E+00  0.00000000000E+00  0.99222607467E+03  0.99222607467E+03  0.00000000000E+00 0. -1.
          1   -1    0    0  501    0 -0.00000000000E+00 -0.00000000000E+00 -0.87060622819E+03  0.87060622819E+03  0.00000000000E+00 0. -1.
         25    2    1    2    0    0 -0.61644978579E+00  0.14825173749E+03 -0.14504092353E+03  0.24215898734E+03  0.12500059188E+03 0.  0.
          2    1    1    2  501    0  0.41279740156E+02 -0.11742971963E+03 -0.67058503843E+03  0.68203962477E+03  0.00000000000E+00 0. -1.
          1    1    1    2  502    0 -0.40663290371E+02 -0.30822017865E+02  0.93724580843E+03  0.93863369074E+03  0.00000000000E+00 0. -1.
         22    1    3    3    0    0 -0.15124955896E+01  0.13840294014E+03 -0.16769643083E+03  0.21743908203E+03  0.00000000000E+00 0. -1.
         22    1    3    3    0    0  0.89604580382E+00  0.98487973503E+01  0.22655507299E+02  0.24719905305E+02  0.00000000000E+00 0. -1.
</event>
<event>
 7    1  0.6557591E-006  0.2949625E+02  0.7818608E-02  0.1665956E+00
          2   -1    0    0  502    0  0.00000000000E+00  0.00000000000E+00  0.33939437063E+03  0.33939437063E+03  0.00000000000E+00 0. -1.
          1   -1    0    0  501    0 -0.00000000000E+00 -0.00000000000E+00 -0.68929215226E+02  0.68929215226E+02  0.00000000000E+00 0. -1.
         25    2    1    2    0    0 -0.19910871836E+02 -0.12632972738E+02  0.15217648728E+02  0.12811037599E+03  0.12499862714E+03 0.  0.
          2    1    1    2  501    0  0.10457286136E+02  0.30951711526E+02  0.10093705625E+02  0.34194241810E+02  0.00000000000E+00 0. -1.
          1    1    1    2  502    0  0.94535857003E+01 -0.18318738788E+02  0.24515380105E+03  0.24601896806E+03  0.00000000000E+00 0. -1.
         22    1    3    3    0    0 -0.67687708156E+02 -0.14440687534E+02 -0.15966078369E+02  0.71028691037E+02  0.00000000000E+00 0.  1.
         22    1    3    3    0    0  0.47776836320E+02  0.18077147967E+01  0.31183727097E+02  0.57081684954E+02  0.00000000000E+00 0.  1.
</event>
<event>
 7    1  0.6557591E-006  0.5494936E+02  0.7818608E-02  0.1506709E+00
          2   -1    0    0  502    0  0.00000000000E+00  0.00000000000E+00  0.10283388554E+03  0.10283388554E+03  0.00000000000E+00 0. -1.
          1   -1    0    0  501    0 -0.00000000000E+00 -0.00000000000E+00 -0.30459897343E+04  0.30459897343E+04  0.00000000000E+00 0. -1.
         25    2    1    2    0    0  0.36920629152E+02  0.27119013516E+02 -0.19865678236E+04  0.19910239997E+04  0.12500510359E+03 0.  0.
          2    1    1    2  501    0 -0.16861993214E+02  0.24104402543E+02 -0.10494523705E+04  0.10498645755E+04  0.00000000000E+00 0. -1.
          1    1    1    2  502    0 -0.20058635938E+02 -0.51223416059E+02  0.92864345301E+02  0.10793504462E+03  0.00000000000E+00 0. -1.
         22    1    3    3    0    0  0.80372870697E+02  0.20407648329E+02 -0.98218351934E+03  0.98567780543E+03  0.00000000000E+00 0.  1.
         22    1    3    3    0    0 -0.43452241545E+02  0.67113651866E+01 -0.10043843043E+04  0.10053461943E+04  0.00000000000E+00 0.  1.
</event>
<event>
 7    1  0.6557591E-006  0.1487136E+03  0.7818608E-02  0.1269480E+00
          2   -1    0    0  502    0  0.00000000000E+00  0.00000000000E+00  0.12199019524E+04  0.12199019524E+04  0.00000000000E+00 0. -1.
          1   -1    0    0  501    0 -0.00000000000E+00 -0.00000000000E+00 -0.80295569193E+03  0.80295569193E+03  0.00000000000E+00 0. -1.
         25    2    1    2    0    0  0.15355972495E+03 -0.24586046829E+00 -0.32444429357E+03  0.38009100429E+03  0.12499768935E+03 0.  0.
          2    1    1    2  501    0 -0.13431494042E+03 -0.71825100126E+02 -0.43660565603E+03  0.46241090721E+03  0.00000000000E+00 0. -1.
          1    1    1    2  502    0 -0.19244784524E+02  0.72070960594E+02  0.11779962101E+04  0.11803557328E+04  0.00000000000E+00 0. -1.
         22    1    3    3    0    0  0.16165122916E+03 -0.23699956535E+02 -0.22791868887E+03  0.28042777424E+03  0.00000000000E+00 0.  1.
         22    1    3    3    0    0 -0.80915042086E+01  0.23454096067E+02 -0.96525604698E+02  0.99663230055E+02  0.00000000000E+00 0.  1.
</event>
<event>
 7    1  0.6557591E-006  0.1049401E+03  0.7818608E-02  0.1290964E+00
          2   -1    0    0  502    0  0.00000000000E+00  0.00000000000E+00  0.10903358391E+03  0.10903358391E+03  0.00000000000E+00 0. -1.
          1   -1    0    0  501    0 -0.00000000000E+00 -0.00000000000E+00 -0.54134455830E+03  0.54134455830E+03  0.00000000000E+00 0. -1.
         25    2    1    2    0    0 -0.95125435799E+01 -0.18958631692E+02 -0.10212614820E+03  0.16280322265E+03  0.12500088383E+03 0.  0.
          2    1    1    2  501    0 -0.10201396522E+03  0.24608568514E+02 -0.35752454429E+03  0.37260734093E+03  0.00000000000E+00 0. -1.
          1    1    1    2  502    0  0.11152650880E+03 -0.56499368222E+01  0.27339718095E+02  0.11496757863E+03  0.00000000000E+00 0. -1.
         22    1    3    3    0    0 -0.54473568605E+02  0.25317254462E+02 -0.69174455991E+02  0.91615710507E+02  0.00000000000E+00 0.  1.
         22    1    3    3    0    0  0.44961025025E+02 -0.44275886154E+02 -0.32951692211E+02  0.71187512147E+02  0.00000000000E+00 0.  1.
</event>
<event>
 7    1  0.6557591E-006  0.9599329E+02  0.7818608E-02  0.1354528E+00
          2   -1    0    0  502    0  0.00000000000E+00  0.00000000000E+00  0.12341033305E+04  0.12341033305E+04  0.00000000000E+00 0. -1.
          1   -1    0    0  501    0 -0.00000000000E+00 -0.00000000000E+00 -0.18492566863E+03  0.18492566863E+03  0.00000000000E+00 0. -1.
         25    2    1    2    0    0 -0.83552583924E+02  0.76599611195E+02  0.10402458845E+03  0.19822811440E+03  0.12499894248E+03 0.  0.
          2    1    1    2  501    0  0.31746176246E+02 -0.89950776344E+02 -0.12056748147E+03  0.15373834739E+03  0.00000000000E+00 0. -1.
          1    1    1    2  502    0  0.51806407678E+02  0.13351165149E+02  0.10657205549E+04  0.10670625374E+04  0.00000000000E+00 0. -1.
         22    1    3    3    0    0 -0.60303361463E+02  0.11145011251E+03  0.81473500680E+02  0.15065043742E+03  0.00000000000E+00 0.  1.
         22    1    3    3    0    0 -0.23249222461E+02 -0.34850501317E+02  0.22551087775E+02  0.47577676982E+02  0.00000000000E+00 0.  1.
</event>
<event>
 7    1  0.6557591E-006  0.1466921E+03  0.7818608E-02  0.1268511E+00
          2   -1    0    0  502    0  0.00000000000E+00  0.00000000000E+00  0.89077343750E+03  0.89077343750E+03  0.00000000000E+00 0. -1.
          1   -1    0    0  501    0 -0.00000000000E+00 -0.00000000000E+00 -0.16848353764E+03  0.16848353764E+03  0.00000000000E+00 0. -1.
         25    2    1    2    0    0  0.45120924300E+02 -0.13839425251E+03  0.20952952531E+03  0.28410626179E+03  0.12499951628E+03 0.  0.
          2    1    1    2  501    0  0.66651010230E+02  0.37215238254E+02 -0.11028300728E+03  0.13412558599E+03  0.00000000000E+00 0. -1.
          1    1    1    2  502    0 -0.11177193453E+03  0.10117901426E+03  0.62304338183E+03  0.64102512737E+03  0.00000000000E+00 0. -1.
         22    1    3    3    0    0  0.65358745098E+02 -0.13021235803E+03  0.11092877464E+03  0.18311804058E+03  0.00000000000E+00 0.  1.
         22    1    3    3    0    0 -0.20237820798E+02 -0.81818944810E+01  0.98600750676E+02  0.10098822120E+03  0.00000000000E+00 0.  1.
</event>
<event>
 7    1  0.6557591E-006  0.3581338E+02  0.7818608E-02  0.1568231E+00
          2   -1    0    0  502    0  0.00000000000E+00  0.00000000000E+00  0.67096495234E+03  0.67096495234E+03  0.00000000000E+00 0. -1.
          1   -1    0    0  501    0 -0.00000000000E+00 -0.00000000000E+00 -0.66348517904E+02  0.66348517904E+02  0.00000000000E+00 0. -1.
         25    2    1    2    0    0 -0.48711746162E+01 -0.61372849316E+01  0.12636007478E+03  0.17791224810E+03  0.12499801966E+03 0.  0.
          2    1    1    2  501    0  0.11924071135E+02  0.35497299831E+02 -0.31388990002E+02  0.48862157761E+02  0.00000000000E+00 0. -1.
          1    1    1    2  502    0 -0.70528965192E+01 -0.29360014900E+02  0.50964534967E+03  0.51053906438E+03  0.00000000000E+00 0. -1.
         22    1    3    3    0    0 -0.31824785736E+02 -0.34436670492E+02  0.13220272176E+01  0.46908943899E+02  0.00000000000E+00 0.  1.
         22    1    3    3    0    0  0.26953611120E+02  0.28299385560E+02  0.12503804756E+03  0.13100330421E+03  0.00000000000E+00 0.  1.
</event>
<event>
 7    1  0.6557591E-006  0.6989159E+02  0.7818608E-02  0.1527386E+00
          2   -1    0    0  502    0  0.00000000000E+00  0.00000000000E+00  0.73288620520E+03  0.73288620520E+03  0.00000000000E+00 0. -1.
          1   -1    0    0  501    0 -0.00000000000E+00 -0.00000000000E+00 -0.10740472745E+04  0.10740472745E+04  0.00000000000E+00 0. -1.
         25    2    1    2    0    0  0.73699278353E+02  0.30676159621E+02 -0.63991968238E+03  0.65688255249E+03  0.12499950991E+03 0.  0.
          2    1    1    2  501    0 -0.55124580229E+02 -0.38434956908E+02 -0.42285250527E+03  0.42815909015E+03  0.00000000000E+00 0. -1.
          1    1    1    2  502    0 -0.18574698124E+02  0.77587972870E+01  0.72161111833E+03  0.72189183708E+03  0.00000000000E+00 0. -1.
         22    1    3    3    0    0  0.90571771714E+02 -0.21734959893E+02 -0.38970484789E+03  0.40068132323E+03  0.00000000000E+00 0.  1.
         22    1    3    3    0    0 -0.16872493361E+02  0.52411119513E+02 -0.25021483448E+03  0.25620122926E+03  0.00000000000E+00 0.  1.
</event>
<event>
 7    1  0.6557591E-006  0.3252214E+02  0.7818608E-02  0.1621165E+00
          2   -1    0    0  502    0  0.00000000000E+00  0.00000000000E+00  0.10072219405E+04  0.10072219405E+04  0.00000000000E+00 0. -1.
          1   -1    0    0  501    0 -0.00000000000E+00 -0.00000000000E+00 -0.23045761060E+02  0.23045761060E+02  0.00000000000E+00 0. -1.
         25    2    1    2    0    0  0.14858901545E+02 -0.18405830359E+02  0.20295245606E+03  0.23953259740E+03  0.12500641684E+03 0.  0.
          2    1    1    2  501    0  0.40067295654E+00  0.37094378167E+02  0.71048212924E+02  0.80149872053E+02  0.00000000000E+00 0. -1.
          1    1    1    2  502    0 -0.15259574502E+02 -0.18688547808E+02  0.71017551046E+03  0.71058523211E+03  0.00000000000E+00 0. -1.
         22    1    3    3    0    0 -0.95535013971E+01 -0.59314532383E+02  0.46453573736E+02  0.75943516205E+02  0.00000000000E+00 0. -1.
         22    1    3    3    0    0  0.24412402943E+02  0.40908702023E+02  0.15649888232E+03  0.16358908120E+03  0.00000000000E+00 0. -1.
</event>
<event>
 7    1  0.6557591E-006  0.6987685E+02  0.7818608E-02  0.1502645E+00
          2   -1    0    0  502    0  0.00000000000E+00  0.00000000000E+00  0.14881547540E+04  0.14881547540E+04  0.00000000000E+00 0. -1.
          1   -1    0    0  501    0 -0.00000000000E+00 -0.00000000000E+00 -0.62575919908E+03  0.62575919908E+03  0.00000000000E+00 0. -1.
         25    2    1    2    0    0 -0.29049844112E+02 -0.45844443332E+02  0.12463446147E+03  0.18467006466E+03  0.12499470936E+03 0.  0.
          2    1    1    2  501    0  0.52831918701E+02  0.46096150950E+02 -0.59357181560E+03  0.59769855868E+03  0.00000000000E+00 0. -1.
          1    1    1    2  502    0 -0.23782074589E+02 -0.25170761818E+00  0.13313329091E+04  0.13315453298E+04  0.00000000000E+00 0. -1.
         22    1    3    3    0    0 -0.12215261454E+02  0.16630989504E+02 -0.18421750184E+02  0.27661585351E+02  0.00000000000E+00 0. -1.
         22    1    3    3    0    0 -0.16834582658E+02 -0.62475432836E+02  0.14305621165E+03  0.15700847930E+03  0.00000000000E+00 0. -1.
</event>
<event>
 7    1  0.6557591E-006  0.9815791E+02  0.7818608E-02  0.1322278E+00
          2   -1    0    0  502    0  0.00000000000E+00  0.00000000000E+00  0.20485842125E+04  0.20485842125E+04  0.00000000000E+00 0. -1.
          1   -1    0    0  501    0 -0.00000000000E+00 -0.00000000000E+00 -0.66498477058E+03  0.66498477058E+03  0.00000000000E+00 0. -1.
         25    2    1    2    0    0  0.18249920419E+02 -0.13112038868E+03  0.19519468990E+03  0.26692255872E+03  0.12498427687E+03 0.  0.
          2    1    1    2  501    0 -0.55738956947E+02  0.41063691062E+02 -0.62590194761E+03  0.62971922797E+03  0.00000000000E+00 0. -1.
          1    1    1    2  502    0  0.37489036528E+02  0.90056697617E+02  0.18143066996E+04  0.18169271964E+04  0.00000000000E+00 0. -1.
         22    1    3    3    0    0 -0.15866912420E+01  0.64637018224E+01  0.95812489702E+02  0.96043376728E+02  0.00000000000E+00 0.  1.
         22    1    3    3    0    0  0.19836611661E+02 -0.13758409050E+03  0.99382200198E+02  0.17087918199E+03  0.00000000000E+00 0.  1.
</event>
<event>
 7    1  0.6557591E-006  0.1144809E+03  0.7818608E-02  0.1363474E+00
          2   -1    0    0  502    0  0.00000000000E+00  0.00000000000E+00  0.91356915180E+03  0.91356915180E+03  0.00000000000E+00 0. -1.
          1   -1    0    0  501    0 -0.00000000000E+00 -0.00000000000E+00 -0.13199104496E+03  0.13199104496E+03  0.00000000000E+00 0. -1.
         25    2    1    2    0    0 -0.13736184661E+03  0.60481978156E+02  0.28776553599E+03  0.34779266518E+03  0.12499755063E+03 0.  0.
          2    1    1    2  501    0  0.37073547388E+02 -0.18884183057E+02 -0.92531950588E+02  0.10145551816E+03  0.00000000000E+00 0. -1.
          1    1    1    2  502    0  0.10028829922E+03 -0.41597795098E+02  0.58634452144E+03  0.59631201341E+03  0.00000000000E+00 0. -1.
         22    1    3    3    0    0 -0.36446326231E+02  0.68210457173E+02  0.57830072937E+02  0.96567688693E+02  0.00000000000E+00 0.  1.
         22    1    3    3    0    0 -0.10091552038E+03 -0.77284790179E+01  0.22993546305E+03  0.25122497649E+03  0.00000000000E+00 0.  1.
</event>
<event>
 7    1  0.6557591E-006  0.5876964E+02  0.7818608E-02  0.1438768E+00
          2   -1    0    0  502    0  0.00000000000E+00  0.00000000000E+00  0.86483972618E+03  0.86483972618E+03  0.00000000000E+00 0. -1.
          1   -1    0    0  501    0 -0.00000000000E+00 -0.00000000000E+00 -0.84518004998E+03  0.84518004998E+03  0.00000000000E+00 0. -1.
         25    2    1    2    0    0 -0.76722908663E+02 -0.62782566608E+02  0.32825357182E+03  0.36497040571E+03  0.12499973697E+03 0.  0.
          2    1    1    2  501    0  0.34864789236E+02  0.47171418185E+02 -0.82481533512E+03  0.82689844194E+03  0.00000000000E+00 0. -1.
          1    1    1    2  502    0  0.41858119427E+02  0.15611148423E+02  0.51622143951E+03  0.51815092852E+03  0.00000000000E+00 0. -1.
         22    1    3    3    0    0 -0.28855591945E+02  0.10846251914E+02  0.23446918713E+03  0.23648696810E+03  0.00000000000E+00 0.  1.
         22    1    3    3    0    0 -0.47867316718E+02 -0.73628818522E+02  0.93784384692E+02  0.12848343760E+03  0.00000000000E+00 0.  1.
</event>
<event>
 7    1  0.6557591E-006  0.1335588E+03  0.7818608E-02  0.1321699E+00
          2   -1    0    0  502    0  0.00000000000E+00  0.00000000000E+00  0.50269114672E+02  0.50269114672E+02  0.00000000000E+00 0. -1.
          1   -1    0    0  501    0 -0.00000000000E+00 -0.00000000000E+00 -0.19015625326E+04  0.19015625326E+04  0.00000000000E+00 0. -1.
         25    2    1    2    0    0 -0.13134196040E+03 -0.13126412224E+02 -0.11783812426E+04  0.11923210392E+04  0.12499637745E+03 0.  0.
          2    1    1    2  501    0  0.13464408276E+03 -0.37911109777E+02 -0.69118727691E+03  0.70519935694E+03  0.00000000000E+00 0. -1.
          1    1    1    2  502    0 -0.33021223615E+01  0.51037522001E+02  0.18275101555E+02  0.54311251145E+02  0.00000000000E+00 0. -1.
         22    1    3    3    0    0  0.46655473180E+01  0.23616383947E+02 -0.43762718747E+03  0.43828878166E+03  0.00000000000E+00 0. -1.
         22    1    3    3    0    0 -0.13600750772E+03 -0.36742796170E+02 -0.74075405510E+03  0.75403225752E+03  0.00000000000E+00 0. -1.
</event>
<event>
 7    1  0.6557591E-006  0.7162056E+02  0.7818608E-02  0.1450524E+00
          2   -1    0    0  502    0  0.00000000000E+00  0.00000000000E+00  0.34752586506E+04  0.34752586506E+04  0.00000000000E+00 0. -1.
          1   -1    0    0  501    0 -0.00000000000E+00 -0.00000000000E+00 -0.98044972908E+03  0.98044972908E+03  0.00000000000E+00 0. -1.
         25    2    1    2    0    0 -0.94422746844E+02 -0.24314781441E+01  0.92631660408E+03  0.93947279831E+03  0.12500048230E+03 0.  0.
          2    1    1    2  501    0  0.26597384391E+02  0.20523065901E+02 -0.97309716058E+03  0.97367689765E+03  0.00000000000E+00 0. -1.
          1    1    1    2  502    0  0.67825362454E+02 -0.18091587756E+02  0.25415894781E+04  0.25425586837E+04  0.00000000000E+00 0. -1.
         22    1    3    3    0    0 -0.11722545299E+03 -0.19018255173E+02  0.58136649956E+03  0.59337214939E+03  0.00000000000E+00 0.  1.
         22    1    3    3    0    0  0.22802706149E+02  0.16586777029E+02  0.34495010451E+03  0.34610064892E+03  0.00000000000E+00 0.  1.
</event>
<event>
 7    1  0.6557591E-006  0.6735852E+02  0.7818608E-02  0.1506567E+00
          2   -1    0    0  502    0  0.00000000000E+00  0.00000000000E+00  0.44562953910E+03  0.44562953910E+03  0.00000000000E+00 0. -1.
          1   -1    0    0  501    0 -0.00000000000E+00 -0.00000000000E+00 -0.94510114252E+02  0.94510114252E+02  0.00000000000E+00 0. -1.
         25    2    1    2    0    0  0.23921145031E+02  0.37515394563E+02 -0.19819203314E+02  0.13414917389E+03  0.12499429597E+03 0.  0.
          2    1    1    2  501    0  0.16235218030E+02  0.17703476595E+02 -0.44618452693E+01  0.24431607627E+02  0.00000000000E+00 0. -1.
          1    1    1    2  502    0 -0.40156363060E+02 -0.55218871158E+02  0.37540047343E+03  0.38155887184E+03  0.00000000000E+00 0. -1.
         22    1    3    3    0    0 -0.12993296270E+02  0.65527732814E+02 -0.45825803733E+02  0.81010578344E+02  0.00000000000E+00 0. -1.
         22    1    3    3    0    0  0.36914441301E+02 -0.28012338251E+02  0.26006600419E+02  0.53138595542E+02  0.00000000000E+00 0. -1.
</event>
<event>
 7    1  0.1298892E-005  0.8731323E+02  0.7818608E-02  0.1317976E+00
          2   -1    0    0  502    0  0.00000000000E+00  0.00000000000E+00  0.12916790666E+04  0.12916790666E+04  0.00000000000E+00 0. -1.
          1   -1    0    0  501    0 -0.00000000000E+00 -0.00000000000E+00 -0.21158425084E+04  0.21158425084E+04  0.00000000000E+00 0. -1.
         25    2    1    2    0    0  0.22288417512E+02  0.13780819008E+03 -0.54262965530E+03  0.57407335988E+03  0.12500163560E+03 0.  0.
          2    1    1    2  501    0 -0.56718094294E+02 -0.57658788998E+02 -0.15549478562E+04  0.15570498751E+04  0.00000000000E+00 0. -1.
          1    1    1    2  502    0  0.34429676782E+02 -0.80149401082E+02  0.12734140697E+04  0.12763983399E+04  0.00000000000E+00 0. -1.
         22    1    3    3    0    0  0.29608751756E+02  0.15170405611E+03 -0.37354268144E+03  0.40425849858E+03  0.00000000000E+00 0.  1.
         22    1    3    3    0    0 -0.73203342440E+01 -0.13895866034E+02 -0.16908697386E+03  0.16981486129E+03  0.00000000000E+00 0.  1.
</event>
<event>
 7    1  0.6557591E-006  0.5265131E+02  0.7818608E-02  0.1484450E+00
          2   -1    0    0  502    0  0.00000000000E+00  0.00000000000E+00  0.13158181506E+04  0.13158181506E+04  0.00000000000E+00 0. -1.
          1   -1    0    0  501    0 -0.00000000000E+00 -0.00000000000E+00 -0.11943644742E+03  0.11943644742E+03  0.00000000000E+00 0. -1.
         25    2    1    2    0    0 -0.10125991453E+02 -0.30972088382E+02  0.51105202905E+03  0.52713898316E+03  0.12505808733E+03 0.  0.
          2    1    1    2  501    0 -0.35798206369E+02 -0.83560913476E+00 -0.10750685101E+03  0.11331342743E+03  0.00000000000E+00 0. -1.
          1    1    1    2  502    0  0.45924197822E+02  0.31807697517E+02  0.79283652509E+03  0.79480218740E+03  0.00000000000E+00 0. -1.
         22    1    3    3    0    0 -0.59357943544E+02 -0.47336909253E+02  0.34096801702E+03  0.34931838925E+03  0.00000000000E+00 0.  1.
         22    1    3    3    0    0  0.49231952091E+02  0.16364820871E+02  0.17008401203E+03  0.17782059391E+03  0.00000000000E+00 0.  1.
</event>
<event>
 7    1  0.6557591E-006  0.7453178E+02  0.7818608E-02  0.1489440E+00
          2   -1    0    0  502    0  0.00000000000E+00  0.00000000000E+00  0.12679384469E+03  0.12679384469E+03  0.00000000000E+00 0. -1.
          1   -1    0    0  501    0 -0.00000000000E+00 -0.00000000000E+00 -0.86870028107E+03  0.86870028107E+03  0.00000000000E+00 0. -1.
         25    2    1    2    0    0 -0.41395373490E+02 -0.31033423048E+02 -0.58557543603E+02  0.14741600191E+03  0.12500336561E+03 0.  0.
          2    1    1    2  501    0  0.64261798372E+02  0.39627121364E+02 -0.76199481736E+03  0.76572579241E+03  0.00000000000E+00 0. -1.
          1    1    1    2  502    0 -0.22866424882E+02 -0.85936983163E+01  0.78645924596E+02  0.82352331437E+02  0.00000000000E+00 0. -1.
         22    1    3    3    0    0 -0.22948926648E+02 -0.78091271025E+02 -0.19920414172E+02  0.83795720329E+02  0.00000000000E+00 0.  1.
         22    1    3    3    0    0 -0.18446446841E+02  0.47057847977E+02 -0.38637129431E+02  0.63620281577E+02  0.00000000000E+00 0.  1.
</event>
<event>
 7    1  0.6557591E-006  0.1580369E+03  0.7818608E-02  0.1238045E+00
          2   -1    0    0  502    0  0.00000000000E+00  0.00000000000E+00  0.32495425833E+03  0.32495425833E+03  0.00000000000E+00 0. -1.
          1   -1    0    0  501    0 -0.00000000000E+00 -0.00000000000E+00 -0.32719751102E+04  0.32719751102E+04  0.00000000000E+00 0. -1.
         25    2    1    2    0    0  0.33245870405E+01  0.23292913698E+03 -0.34909607817E+03  0.43790172504E+03  0.12499125274E+03 0.  0.
          2    1    1    2  501    0  0.42901190096E+02 -0.14889369667E+03 -0.28681263047E+04  0.28723088874E+04  0.00000000000E+00 0. -1.
          1    1    1    2  502    0 -0.46225777136E+02 -0.84035440310E+02  0.27020153103E+03  0.28671875605E+03  0.00000000000E+00 0. -1.
         22    1    3    3    0    0 -0.27427039125E+02  0.34768570092E+02 -0.12358502840E+02  0.45976391049E+02  0.00000000000E+00 0. -1.
         22    1    3    3    0    0  0.30751626165E+02  0.19816056689E+03 -0.33673757533E+03  0.39192533399E+03  0.00000000000E+00 0. -1.
</event>
<event>
 7    1  0.6557591E-006  0.8723449E+02  0.7818608E-02  0.1424840E+00
          2   -1    0    0  502    0  0.00000000000E+00  0.00000000000E+00  0.48000564152E+02  0.48000564152E+02  0.00000000000E+00 0. -1.
          1   -1    0    0  501    0 -0.00000000000E+00 -0.00000000000E+00 -0.19048159111E+04  0.19048159111E+04  0.00000000000E+00 0. -1.
         25    2    1    2    0    0 -0.83077421660E+02  0.83238751328E+02 -0.55957004242E+03  0.58529613262E+03  0.12498953065E+03 0.  0.
          2    1    1    2  501    0  0.26404124532E+02 -0.20518847201E+02 -0.12810063702E+04  0.12814427499E+04  0.00000000000E+00 0. -1.
          1    1    1    2  502    0  0.56673297128E+02 -0.62719904127E+02 -0.16238934366E+02  0.86077592731E+02  0.00000000000E+00 0. -1.
         22    1    3    3    0    0 -0.10383908842E+03  0.29645908394E+02 -0.28494230411E+03  0.30471880946E+03  0.00000000000E+00 0. -1.
         22    1    3    3    0    0  0.20761666758E+02  0.53592842935E+02 -0.27462773831E+03  0.28057732316E+03  0.00000000000E+00 0. -1.
</event>
<event>
 7    1  0.6557591E-006  0.6855663E+02  0.7818608E-02  0.1412985E+00
          2   -1    0    0  502    0  0.00000000000E+00  0.00000000000E+00  0.19052202664E+02  0.19052202664E+02  0.00000000000E+00 0. -1.
          1   -1    0    0  501    0 -0.00000000000E+00 -0.00000000000E+00 -0.27507762505E+04  0.27507762505E+04  0.00000000000E+00 0. -1.
         25    2    1    2    0    0  0.53063060094E+02  0.16547359576E+02 -0.63589822572E+03  0.65044741173E+03  0.12500311394E+03 0.  0.
          2    1    1    2  501    0 -0.13380431928E+02  0.44656812431E+02 -0.19917129673E+04  0.19922584700E+04  0.00000000000E+00 0. -1.
          1    1    1    2  502    0 -0.39682628166E+02 -0.61204172007E+02 -0.10411285477E+03  0.12712257148E+03  0.00000000000E+00 0. -1.
         22    1    3    3    0    0  0.43876780330E+02 -0.51364481946E+02 -0.34901132035E+03  0.35548893596E+03  0.00000000000E+00 0.  1.
         22    1    3    3    0    0  0.91862797640E+01  0.67911841522E+02 -0.28688690538E+03  0.29495847578E+03  0.00000000000E+00 0.  1.
</event>
<event>
 7    1  0.6557591E-006  0.6433090E+02  0.7818608E-02  0.1502791E+00
          2   -1    0    0  502    0  0.00000000000E+00  0.00000000000E+00  0.82609896571E+02  0.82609896571E+02  0.00000000000E+00 0. -1.
          1   -1    0    0  501    0 -0.00000000000E+00 -0.00000000000E+00 -0.12220208024E+04  0.12220208024E+04  0.00000000000E+00 0. -1.
         25    2    1    2    0    0 -0.47090889183E+02 -0.32218829248E+02 -0.88029567181E+02  0.16318618495E+03  0.12499968583E+03 0.  0.
          2    1    1    2  501    0 -0.17971765923E+02  0.18522186673E+02 -0.10716301206E+04  0.10719408431E+04  0.00000000000E+00 0. -1.
          1    1    1    2  502    0  0.65062655106E+02  0.13696642575E+02  0.20248781903E+02  0.69503670952E+02  0.00000000000E+00 0. -1.
         22    1    3    3    0    0 -0.20073568261E+02 -0.71328066117E+02 -0.88788608391E+02  0.11564626297E+03  0.00000000000E+00 0. -1.
         22    1    3    3    0    0 -0.27017320922E+02  0.39109236869E+02  0.75904121017E+00  0.47539921980E+02  0.00000000000E+00 0. -1.
</event>
<event>
 7    1  0.6557591E-006  0.2149859E+03  0.7818608E-02  0.1310204E+00
          2   -1    0    0  502    0  0.00000000000E+00  0.00000000000E+00  0.16953113496E+04  0.16953113496E+04  0.00000000000E+00 0. -1.
          1   -1    0    0  501    0 -0.00000000000E+00 -0.00000000000E+00 -0.94029713723E+02  0.94029713723E+02  0.00000000000E+00 0. -1.
         25    2    1    2    0    0  0.17917871635E+03 -0.61251722113E+02  0.58630999102E+03  0.62868238699E+03  0.12500140915E+03 0.  0.
          2    1    1    2  501    0 -0.21432717243E+03  0.58819819370E+02  0.97813039945E+02  0.24282359600E+03  0.00000000000E+00 0. -1.
          1    1    1    2  502    0  0.35148456081E+02  0.24319027429E+01  0.91715860487E+03  0.91783508029E+03  0.00000000000E+00 0. -1.
         22    1    3    3    0    0  0.91027600253E+02 -0.36800794671E+02  0.12793965120E+03  0.16127267854E+03  0.00000000000E+00 0.  1.
         22    1    3    3    0    0  0.88151116096E+02 -0.24450927442E+02  0.45837033982E+03  0.46740970844E+03  0.00000000000E+00 0.  1.
</event>
<event>
 7    1  0.6557591E-006  0.8569150E+02  0.7818608E-02  0.1336730E+00
          2   -1    0    0  502    0  0.00000000000E+00  0.00000000000E+00  0.30020638766E+03  0.30020638766E+03  0.00000000000E+00 0. -1.
          1   -1    0    0  501    0 -0.00000000000E+00 -0.00000000000E+00 -0.17054329909E+03  0.17054329909E+03  0.00000000000E+00 0. -1.
         25    2    1    2    0    0 -0.40421967979E+02 -0.93669448565E+01  0.96446837287E+02  0.16324496526E+03  0.12500100444E+03 0.  0.
          2    1    1    2  501    0 -0.68426812249E+02 -0.13924292324E+02 -0.10743575936E+03  0.12813491694E+03  0.00000000000E+00 0. -1.
          1    1    1    2  502    0  0.10884878023E+03  0.23291237180E+02  0.14065201064E+03  0.17936980455E+03  0.00000000000E+00 0. -1.
         22    1    3    3    0    0  0.44928256284E+02 -0.96128934812E+01  0.39996262170E+02  0.60915161671E+02  0.00000000000E+00 0. -1.
         22    1    3    3    0    0 -0.85350224262E+02  0.24594862478E+00  0.56450575116E+02  0.10232980359E+03  0.00000000000E+00 0. -1.
</event>
<event>
 7    1  0.6557591E-006  0.1979376E+03  0.7818608E-02  0.1323441E+00
          2   -1    0    0  502    0  0.00000000000E+00  0.00000000000E+00  0.35389161368E+03  0.35389161368E+03  0.00000000000E+00 0. -1.
          1   -1    0    0  501    0 -0.00000000000E+00 -0.00000000000E+00 -0.15308423586E+04  0.15308423586E+04  0.00000000000E+00 0. -1.
         25    2    1    2    0    0  0.17862324341E+03 -0.94647095845E+02 -0.12839705046E+04  0.13057841952E+04  0.12501108728E+03 0.  0.
          2    1    1    2  501    0 -0.14875234090E+03  0.11084276823E+03 -0.19841648679E+03  0.27162930700E+03  0.00000000000E+00 0. -1.
          1    1    1    2  502    0 -0.29870902509E+02 -0.16195672389E+02  0.30543624650E+03  0.30732047003E+03  0.00000000000E+00 0. -1.
         22    1    3    3    0    0  0.57804139929E+02 -0.29240294756E+02 -0.14826223124E+03  0.16179617623E+03  0.00000000000E+00 0.  1.
         22    1    3    3    0    0  0.12081910348E+03 -0.65406801089E+02 -0.11357082734E+04  0.11439880190E+04  0.00000000000E+00 0.  1.
</event>
<event>
 7    1  0.6557591E-006  0.5627489E+02  0.7818608E-02  0.1422591E+00
          2   -1    0    0  502    0  0.00000000000E+00  0.00000000000E+00  0.38508359892E+02  0.38508359892E+02  0.00000000000E+00 0. -1.
          1   -1    0    0  501    0 -0.00000000000E+00 -0.00000000000E+00 -0.39606743524E+04  0.39606743524E+04  0.00000000000E+00 0. -1.
         25    2    1    2    0    0  0.81305412637E+01  0.48876239821E+02 -0.79993736515E+03  0.81115925124E+03  0.12499820075E+03 0.  0.
          2    1    1    2  501    0 -0.53389717325E+02 -0.21809191917E+02 -0.31335548434E+04  0.31340855220E+04  0.00000000000E+00 0. -1.
          1    1    1    2  502    0  0.45259176062E+02 -0.27067047903E+02  0.11326216015E+02  0.53937939052E+02  0.00000000000E+00 0. -1.
         22    1    3    3    0    0 -0.56858063975E+02  0.32703914199E+02 -0.32804317542E+03  0.33453656060E+03  0.00000000000E+00 0. -1.
         22    1    3    3    0    0  0.64988605239E+02  0.16172325622E+02 -0.47189418973E+03  0.47662269064E+03  0.00000000000E+00 0. -1.
</event>
<event>
 7    1  0.6557591E-006  0.7050780E+02  0.7818608E-02  0.1472768E+00
          2   -1    0    0  502    0  0.00000000000E+00  0.00000000000E+00  0.13918858617E+04  0.13918858617E+04  0.00000000000E+00 0. -1.
          1   -1    0    0  501    0 -0.00000000000E+00 -0.00000000000E+00 -0.29640133113E+03  0.29640133113E+03  0.00000000000E+00 0. -1.
         25    2    1    2    0    0  0.20332710314E+02 -0.80951112098E+02  0.69032608248E+03  0.70650003713E+03  0.12500280256E+03 0.  0.
          2    1    1    2  501    0  0.66262551036E+01  0.70144891193E+02 -0.28369925733E+03  0.29231743299E+03  0.00000000000E+00 0. -1.
          1    1    1    2  502    0 -0.26958965418E+02  0.10806220905E+02  0.68885770543E+03  0.68946972273E+03  0.00000000000E+00 0. -1.
         22    1    3    3    0    0 -0.18286633383E+00 -0.51438466110E+01  0.50742628005E+03  0.50745238425E+03  0.00000000000E+00 0.  1.
         22    1    3    3    0    0  0.20515576648E+02 -0.75807265487E+02  0.18289980243E+03  0.19904765288E+03  0.00000000000E+00 0.  1.
</event>
<event>
 7    1  0.6557591E-006  0.7832510E+02  0.7818608E-02  0.1439299E+00
          2   -1    0    0  502    0  0.00000000000E+00  0.00000000000E+00  0.42099652023E+03  0.42099652023E+03  0.00000000000E+00 0. -1.
          1   -1    0    0  501    0 -0.00000000000E+00 -0.00000000000E+00 -0.52916194784E+03  0.52916194784E+03  0.00000000000E+00 0. -1.
         25    2    1    2    0    0  0.41677183887E+02 -0.22548140571E+02 -0.60422387300E+02  0.14670093581E+03  0.12499957352E+03 0.  0.
          2    1    1    2  501    0  0.33017037994E+02 -0.49609343482E+01 -0.42073956572E+03  0.42206222033E+03  0.00000000000E+00 0. -1.
          1    1    1    2  502    0 -0.74694221881E+02  0.27509074919E+02  0.37299652542E+03  0.38139531192E+03  0.00000000000E+00 0. -1.
         22    1    3    3    0    0 -0.62950184471E+01  0.35878018737E+02 -0.61061336678E+02  0.71100958662E+02  0.00000000000E+00 0.  1.
         22    1    3    3    0    0  0.47972202334E+02 -0.58426159308E+02  0.63894937837E+00  0.75599977146E+02  0.00000000000E+00 0.  1.
</event>
<event>
 7    1  0.6557591E-006  0.8918949E+02  0.7818608E-02  0.1466708E+00
          2   -1    0    0  502    0  0.00000000000E+00  0.00000000000E+00  0.20298908092E+04  0.20298908092E+04  0.00000000000E+00 0. -1.
          1   -1    0    0  501    0 -0.00000000000E+00 -0.00000000000E+00 -0.79614666159E+03  0.79614666159E+03  0.00000000000E+00 0. -1.
         25    2    1    2    0    0  0.55489147247E+02  0.41930403358E+02  0.54952928818E+03  0.56784246681E+03  0.12500169742E+03 0.  0.
          2    1    1    2  501    0  0.23038976448E+02  0.66499424541E+01 -0.78535795782E+03  0.78572395794E+03  0.00000000000E+00 0. -1.
          1    1    1    2  502    0 -0.78528123694E+02 -0.48580345812E+02  0.14695728172E+04  0.14724710460E+04  0.00000000000E+00 0. -1.
         22    1    3    3    0    0  0.90321329128E+02  0.35669901175E+01  0.37798485964E+03  0.38864279234E+03  0.00000000000E+00 0.  1.
         22    1    3    3    0    0 -0.34832181881E+02  0.38363413240E+02  0.17154442854E+03  0.17919967448E+03  0.00000000000E+00 0.  1.
</event>
<event>
 7    1  0.6557591E-006  0.5238320E+02  0.7818608E-02  0.1499762E+00
          2   -1    0    0  502    0  0.00000000000E+00  0.00000000000E+00  0.50483927851E+02  0.50483927851E+02  0.00000000000E+00 0. -1.
          1   -1    0    0  501    0 -0.00000000000E+00 -0.00000000000E+00 -0.22345455035E+04  0.22345455035E+04  0.00000000000E+00 0. -1.
         25    2    1    2    0    0 -0.15381437569E+02  0.52403328522E+02 -0.10253343479E+04  0.10343679721E+04  0.12499551729E+03 0.  0.
          2    1    1    2  501    0 -0.16920733134E+02 -0.50473837073E+02 -0.11983341262E+04  0.11995159847E+04  0.00000000000E+00 0. -1.
          1    1    1    2  502    0  0.32302170703E+02 -0.19294914490E+01  0.39606898411E+02  0.51145474591E+02  0.00000000000E+00 0. -1.
         22    1    3    3    0    0  0.23442925964E+02 -0.57352296145E+01 -0.74694454582E+03  0.74733434162E+03  0.00000000000E+00 0.  1.
         22    1    3    3    0    0 -0.38824363533E+02  0.58138558136E+02 -0.27838980207E+03  0.28703363051E+03  0.00000000000E+00 0.  1.
</event>
<event>
 7    1  0.6557591E-006  0.1018400E+03  0.7818608E-02  0.1320772E+00
          2   -1    0    0  502    0  0.00000000000E+00  0.00000000000E+00  0.21996491176E+04  0.21996491176E+04  0.00000000000E+00 0. -1.
          1   -1    0    0  501    0 -0.00000000000E+00 -0.00000000000E+00 -0.19295995288E+02  0.19295995288E+02  0.00000000000E+00 0. -1.
         25    2    1    2    0    0 -0.11742753506E+03  0.34058758616E+02  0.62427062687E+03  0.64829606321E+03  0.12499897990E+03 0.  0.
          2    1    1    2  501    0  0.92501459636E+02  0.28810687436E+02  0.36473120750E+03  0.37737968874E+03  0.00000000000E+00 0. -1.
          1    1    1    2  502    0  0.24926075419E+02 -0.62869446052E+02  0.11913512879E+04  0.11932693609E+04  0.00000000000E+00 0. -1.
         22    1    3    3    0    0  0.11977262751E+02  0.37037255618E+02  0.81700062679E+02  0.90499245126E+02  0.00000000000E+00 0. -1.
         22    1    3    3    0    0 -0.12940479781E+03 -0.29784970012E+01  0.54257056419E+03  0.55779681809E+03  0.00000000000E+00 0. -1.
</event>
<event>
 7    1  0.6557591E-006  0.6316717E+02  0.7818608E-02  0.1513013E+00
          2   -1    0    0  502    0  0.00000000000E+00  0.00000000000E+00  0.79966734641E+03  0.79966734641E+03  0.00000000000E+00 0. -1.
          1   -1    0    0  501    0 -0.00000000000E+00 -0.00000000000E+00 -0.13796824569E+04  0.13796824569E+04  0.00000000000E+00 0. -1.
         25    2    1    2    0    0  0.85468620863E+02  0.16601782450E+02  0.47662727222E+02  0.15961647143E+03  0.12500071220E+03 0.  0.
          2    1    1    2  501    0 -0.23894627368E+02 -0.54991899904E+01 -0.13221856316E+04  0.13224129607E+04  0.00000000000E+00 0. -1.
          1    1    1    2  502    0 -0.61573993496E+02 -0.11102592460E+02  0.69450779390E+03  0.69732037115E+03  0.00000000000E+00 0. -1.
         22    1    3    3    0    0  0.70250083415E+02  0.46918043995E+02  0.77348995873E+02  0.11453926940E+03  0.00000000000E+00 0. -1.
         22    1    3    3    0    0  0.15218537448E+02 -0.30316261544E+02 -0.29686268651E+02  0.45077202026E+02  0.00000000000E+00 0. -1.
</event>
<event>
 7    1  0.6557591E-006  0.7616561E+02  0.7818608E-02  0.1421545E+00
          2   -1    0    0  502    0  0.00000000000E+00  0.00000000000E+00  0.90713794218E+03  0.90713794218E+03  0.00000000000E+00 0. -1.
          1   -1    0    0  501    0 -0.00000000000E+00 -0.00000000000E+00 -0.13998200903E+03  0.13998200903E+03  0.00000000000E+00 0. -1.
         25    2    1    2    0    0 -0.22656139927E+02  0.55008094056E+02  0.43135601117E+03  0.45302547526E+03  0.12499952711E+03 0.  0.
          2    1    1    2  501    0  0.27041941903E+02  0.28485759568E+02 -0.12228703865E+03  0.12843996630E+03  0.00000000000E+00 0. -1.
          1    1    1    2  502    0 -0.43858019762E+01 -0.83493853625E+02  0.45808696063E+03  0.46565450965E+03  0.00000000000E+00 0. -1.
         22    1    3    3    0    0  0.29997935631E+02 -0.14343821950E+01  0.24064878533E+02  0.38484438066E+02  0.00000000000E+00 0.  1.
         22    1    3    3    0    0 -0.52654075558E+02  0.56442476251E+02  0.40729113264E+03  0.41454103720E+03  0.00000000000E+00 0.  1.
</event>
<event>
 7    1  0.6557591E-006  0.9495972E+02  0.7818608E-02  0.1376411E+00
          2   -1    0    0  502    0  0.00000000000E+00  0.00000000000E+00  0.17832423432E+04  0.17832423432E+04  0.00000000000E+00 0. -1.
          1   -1    0    0  501    0 -0.00000000000E+00 -0.00000000000E+00 -0.80707762660E+03  0.80707762660E+03  0.00000000000E+00 0. -1.
         25    2    1    2    0    0  0.67765907997E+02  0.12087985226E+03 -0.85397924891E+00  0.18662543932E+03  0.12499667336E+03 0.  0.
          2    1    1    2  501    0 -0.46239363495E+02 -0.81288823451E+02 -0.70997057073E+03  0.71610345820E+03  0.00000000000E+00 0. -1.
          1    1    1    2  502    0 -0.21526544502E+02 -0.39591028811E+02  0.16869892666E+04  0.16875910723E+04  0.00000000000E+00 0. -1.
         22    1    3    3    0    0  0.75140410290E+02  0.10200096363E+03  0.46628481689E+02  0.13499812275E+03  0.00000000000E+00 0.  1.
         22    1    3    3    0    0 -0.73745022922E+01  0.18878888630E+02 -0.47482460938E+02  0.51627316575E+02  0.00000000000E+00 0.  1.
</event>
<event>
 7    1  0.6557591E-006  0.7782817E+02  0.7818608E-02  0.1406925E+00
          2   -1    0    0  502    0  0.00000000000E+00  0.00000000000E+00  0.85675312155E+02  0.85675312155E+02  0.00000000000E+00 0. -1.
          1   -1    0    0  501    0 -0.00000000000E+00 -0.00000000000E+00 -0.11157801114E+04  0.11157801114E+04  0.00000000000E+00 0. -1.
         25    2    1    2    0    0 -0.38854872205E+02 -0.55229389628E+02 -0.18597191537E+03  0.23403518965E+03  0.12500772022E+03 0.  0.
          2    1    1    2  501    0 -0.35376660766E+02  0.24536921581E+02 -0.87885606196E+03  0.87990996488E+03  0.00000000000E+00 0. -1.
          1    1    1    2  502    0  0.74231532971E+02  0.30692468046E+02  0.34723178115E+02  0.87510269000E+02  0.00000000000E+00 0. -1.
         22    1    3    3    0    0 -0.68230751294E+02 -0.78898939671E+02 -0.13917740411E+03  0.17392765139E+03  0.00000000000E+00 0.  1.
         22    1    3    3    0    0  0.29375879089E+02  0.23669550043E+02 -0.46794511261E+02  0.60107538260E+02  0.00000000000E+00 0.  1.
</event>
<event>
 7    1  0.6557591E-006  0.8341291E+02  0.7818608E-02  0.1347836E+00
          2   -1    0    0  502    0  0.00000000000E+00  0.00000000000E+00  0.23183518123E+03  0.23183518123E+03  0.00000000000E+00 0. -1.
          1   -1    0    0  501    0 -0.00000000000E+00 -0.00000000000E+00 -0.81963498349E+03  0.81963498349E+03  0.00000000000E+00 0. -1.
         25    2    1    2    0    0  0.32167555616E+02 -0.30513522870E+02 -0.30326812486E+02  0.13605402893E+03  0.12500062608E+03 0.  0.
          2    1    1    2  501    0 -0.26279191333E+02 -0.59646305344E+02 -0.72348211497E+03  0.72641217523E+03  0.00000000000E+00 0. -1.
          1    1    1    2  502    0 -0.58883642830E+01  0.90159828214E+02  0.16600912520E+03  0.18900396056E+03  0.00000000000E+00 0. -1.
         22    1    3    3    0    0 -0.17196556744E+02 -0.30154945056E+02 -0.66390791055E+02  0.74918485116E+02  0.00000000000E+00 0.  1.
         22    1    3    3    0    0  0.49364112360E+02 -0.35857781454E+00  0.36063978569E+02  0.61135543814E+02  0.00000000000E+00 0.  1.
</event>
<event>
 7    1  0.6557591E-006  0.1480676E+03  0.7818608E-02  0.1407395E+00
          2   -1    0    0  502    0  0.00000000000E+00  0.00000000000E+00  0.72452034452E+03  0.72452034452E+03  0.00000000000E+00 0. -1.
          1   -1    0    0  501    0 -0.00000000000E+00 -0.00000000000E+00 -0.11897027755E+04  0.11897027755E+04  0.00000000000E+00 0. -1.
         25    2    1    2    0    0 -0.12773086379E+03 -0.22580594670E+02 -0.23545990088E+03  0.29647558686E+03  0.12502540487E+03 0.  0.
          2    1    1    2  501    0  0.14862262504E+03  0.31059053429E+02 -0.91730983467E+03  0.92979066582E+03  0.00000000000E+00 0. -1.
          1    1    1    2  502    0 -0.20891761258E+02 -0.84784587589E+01  0.68758730455E+03  0.68795686735E+03  0.00000000000E+00 0. -1.
         22    1    3    3    0    0 -0.10629769821E+03  0.35884518808E+02 -0.11379130542E+03  0.15979787397E+03  0.00000000000E+00 0.  1.
         22    1    3    3    0    0 -0.21433165571E+02 -0.58465113478E+02 -0.12166859546E+03  0.13667771289E+03  0.00000000000E+00 0.  1.
</event>
<event>
 7    1  0.6557591E-006  0.5795991E+02  0.7818608E-02  0.1436380E+00
          2   -1    0    0  502    0  0.00000000000E+00  0.00000000000E+00  0.49478837313E+03  0.49478837313E+03  0.00000000000E+00 0. -1.
          1   -1    0    0  501    0 -0.00000000000E+00 -0.00000000000E+00 -0.15753180626E+03  0.15753180626E+03  0.00000000000E+00 0. -1.
         25    2    1    2    0    0  0.44680008366E+02 -0.69990195399E+02  0.35886655036E+03  0.38897902386E+03  0.12499819774E+03 0.  0.
          2    1    1    2  501    0 -0.52301032156E+02  0.24507342504E+02 -0.13179441817E+03  0.14389501889E+03  0.00000000000E+00 0. -1.
          1    1    1    2  502    0  0.76210237906E+01  0.45482852895E+02  0.11018443468E+03  0.11944613664E+03  0.00000000000E+00 0. -1.
         22    1    3    3    0    0 -0.27291689940E+02  0.13300373115E+02  0.14829518198E+03  0.15137105821E+03  0.00000000000E+00 0. -1.
         22    1    3    3    0    0  0.71971698306E+02 -0.83290568514E+02  0.21057136838E+03  0.23760796565E+03  0.00000000000E+00 0. -1.
</event>
<event>
 7    1  0.6557591E-006  0.9753505E+02  0.7818608E-02  0.1294136E+00
          2   -1    0    0  502    0  0.00000000000E+00  0.00000000000E+00  0.61899003728E+03  0.61899003728E+03  0.00000000000E+00 0. -1.
          1   -1    0    0  501    0 -0.00000000000E+00 -0.00000000000E+00 -0.20937958142E+03  0.20937958142E+03  0.00000000000E+00 0. -1.
         25    2    1    2    0    0  0.12752342116E+03  0.10543324970E+03 -0.13779795907E+01  0.20738373846E+03  0.12501089178E+03 0.  0.
          2    1    1    2  501    0 -0.34979720406E+02 -0.82937165187E+02 -0.80255648520E+02  0.12059487273E+03  0.00000000000E+00 0. -1.
          1    1    1    2  502    0 -0.92543700758E+02 -0.22496084509E+02  0.49124408397E+03  0.50039100752E+03  0.00000000000E+00 0. -1.
         22    1    3    3    0    0  0.13478446861E+02  0.40810112917E+02 -0.51472224778E+02  0.67056124029E+02  0.00000000000E+00 0. -1.
         22    1    3    3    0    0  0.11404497430E+03  0.64623136779E+02  0.50094245188E+02  0.14032761443E+03  0.00000000000E+00 0. -1.
</event>
<event>
 7    1  0.6557591E-006  0.1936253E+03  0.7818608E-02  0.1329209E+00
          2   -1    0    0  502    0  0.00000000000E+00  0.00000000000E+00  0.29920328749E+04  0.29920328749E+04  0.00000000000E+00 0. -1.
          1   -1    0    0  501    0 -0.00000000000E+00 -0.00000000000E+00 -0.35256532042E+03  0.35256532042E+03  0.00000000000E+00 0. -1.
         25    2    1    2    0    0 -0.20705303671E+03  0.41493126453E+02 -0.42221238883E+02  0.24899379584E+03  0.12499055086E+03 0.  0.
          2    1    1    2  501    0  0.24530541279E+02  0.22085163429E+02 -0.20238625920E+03  0.20506023460E+03  0.00000000000E+00 0. -1.
          1    1    1    2  502    0  0.18252249543E+03 -0.63578289882E+02  0.28840750525E+04  0.28905441648E+04  0.00000000000E+00 0. -1.
         22    1    3    3    0    0 -0.97855903457E+01  0.38040773265E+02  0.17290048407E+02  0.42916243812E+02  0.00000000000E+00 0. -1.
         22    1    3    3    0    0 -0.19726744636E+03  0.34523531882E+01 -0.59511287290E+02  0.20607755203E+03  0.00000000000E+00 0. -1.
</event>
<event>
 7    1  0.6557591E-006  0.1331999E+03  0.7818608E-02  0.1298449E+00
          2   -1    0    0  502    0  0.00000000000E+00  0.00000000000E+00  0.18725222212E+03  0.18725222212E+03  0.00000000000E+00 0. -1.
          1   -1    0    0  501    0 -0.00000000000E+00 -0.00000000000E+00 -0.78643600861E+03  0.78643600861E+03  0.00000000000E+00 0. -1.
         25    2    1    2    0    0 -0.11419239520E+03  0.48194100968E+02  0.10740061309E+02  0.17636101118E+03  0.12500113143E+03 0.  0.
          2    1    1    2  501    0  0.13428102690E+03  0.11862061379E+02 -0.68555598492E+03  0.69868384205E+03  0.00000000000E+00 0. -1.
          1    1    1    2  502    0 -0.20088631706E+02 -0.60056162347E+02  0.75632137122E+02  0.98643377504E+02  0.00000000000E+00 0. -1.
         22    1    3    3    0    0  0.27626415265E+01  0.24411061149E+02 -0.39784556236E+02  0.46758346950E+02  0.00000000000E+00 0. -1.
         22    1    3    3    0    0 -0.11695503672E+03  0.23783039819E+02  0.50524617545E+02  0.12960266423E+03  0.00000000000E+00 0. -1.
</event>
<event>
 7    1  0.6557591E-006  0.1010454E+03  0.7818608E-02  0.1280319E+00
          2   -1    0    0  502    0  0.00000000000E+00  0.00000000000E+00  0.53652480284E+03  0.53652480284E+03  0.00000000000E+00 0. -1.
          1   -1    0    0  501    0 -0.00000000000E+00 -0.00000000000E+00 -0.93496587974E+02  0.93496587974E+02  0.00000000000E+00 0. -1.
         25    2    1    2    0    0  0.16001815713E+02 -0.51842237003E+01 -0.65902973204E+01  0.12629760527E+03  0.12499887518E+03 0.  0.
          2    1    1    2  501    0  0.62460285303E+02 -0.76736476720E+02  0.12233089511E+03  0.15733601621E+03  0.00000000000E+00 0. -1.
          1    1    1    2  502    0 -0.78462101016E+02  0.81920700420E+02  0.32728761708E+03  0.34638776934E+03  0.00000000000E+00 0. -1.
         22    1    3    3    0    0  0.23541361307E+02  0.57611203321E+02 -0.96405513256E+01  0.62977668027E+02  0.00000000000E+00 0. -1.
         22    1    3    3    0    0 -0.75395455944E+01 -0.62795427021E+02  0.30502540052E+01  0.63319937240E+02  0.00000000000E+00 0. -1.
</event>
<event>
 7    1  0.6557591E-006  0.7128271E+02  0.7818608E-02  0.1430576E+00
          2   -1    0    0  502    0  0.00000000000E+00  0.00000000000E+00  0.76989848555E+02  0.76989848555E+02  0.00000000000E+00 0. -1.
          1   -1    0    0  501    0 -0.00000000000E+00 -0.00000000000E+00 -0.32173582334E+03  0.32173582334E+03  0.00000000000E+00 0. -1.
         25    2    1    2    0    0 -0.21169052937E+02 -0.56231146838E+02 -0.13052865829E+03  0.19045512098E+03  0.12500140718E+03 0.  0.
          2    1    1    2  501    0  0.35050583501E+02 -0.17498179939E+02 -0.12633846622E+03  0.13227296682E+03  0.00000000000E+00 0. -1.
          1    1    1    2  502    0 -0.13881530565E+02  0.73729326777E+02  0.12121149718E+02  0.75997584095E+02  0.00000000000E+00 0. -1.
         22    1    3    3    0    0  0.22179328793E+02  0.22206515829E+02  0.87787955949E+00  0.31397812718E+02  0.00000000000E+00 0. -1.
         22    1    3    3    0    0 -0.43348381729E+02 -0.78437662667E+02 -0.13140653785E+03  0.15905730826E+03  0.00000000000E+00 0. -1.
</event>
<event>
 7    1  0.6557591E-006  0.2570475E+02  0.7818608E-02  0.1683518E+00
          2   -1    0    0  502    0  0.00000000000E+00  0.00000000000E+00  0.14590235885E+04  0.14590235885E+04  0.00000000000E+00 0. -1.
          1   -1    0    0  501    0 -0.00000000000E+00 -0.00000000000E+00 -0.80094777691E+03  0.80094777691E+03  0.00000000000E+00 0. -1.
         25    2    1    2    0    0 -0.12280564065E+02 -0.14646341150E+02 -0.46867537176E+03  0.48544160923E+03  0.12502649446E+03 0.  0.
          2    1    1    2  501    0  0.26576902372E+02 -0.13929656459E+01 -0.32326287023E+03  0.32435652508E+03  0.00000000000E+00 0. -1.
          1    1    1    2  502    0 -0.14296338307E+02  0.16039306795E+02  0.14500140535E+04  0.14501732311E+04  0.00000000000E+00 0. -1.
         22    1    3    3    0    0 -0.47968611216E+02 -0.43541992314E+02 -0.38100567872E+03  0.38647408707E+03  0.00000000000E+00 0.  1.
         22    1    3    3    0    0  0.35688047151E+02  0.28895651165E+02 -0.87669693035E+02  0.98967522160E+02  0.00000000000E+00 0.  1.
</event>
<event>
 7    1  0.6557591E-006  0.1014172E+03  0.7818608E-02  0.1319300E+00
          2   -1    0    0  502    0  0.00000000000E+00  0.00000000000E+00  0.14604662337E+04  0.14604662337E+04  0.00000000000E+00 0. -1.
          1   -1    0    0  501    0 -0.00000000000E+00 -0.00000000000E+00 -0.49466493398E+03  0.49466493398E+03  0.00000000000E+00 0. -1.
         25    2    1    2    0    0  0.75241566134E+02  0.21117213076E+02  0.11059409539E+03  0.18429241405E+03  0.12500163991E+03 0.  0.
          2    1    1    2  501    0 -0.19048341853E+02  0.66122473065E+02 -0.45316408271E+03  0.45835870956E+03  0.00000000000E+00 0. -1.
          1    1    1    2  502    0 -0.56193224281E+02 -0.87239686142E+02  0.13083712871E+04  0.13124800441E+04  0.00000000000E+00 0. -1.
         22    1    3    3    0    0  0.85256461906E+02 -0.25469971019E+02  0.36449905710E+02  0.96156015655E+02  0.00000000000E+00 0.  1.
         22    1    3    3    0    0 -0.10014895771E+02  0.46587184096E+02  0.74144189680E+02  0.88136398398E+02  0.00000000000E+00 0.  1.
</event>
<event>
 7    1  0.7746568E-006  0.7608567E+02  0.7818608E-02  0.1410775E+00
          2   -1    0    0  502    0  0.00000000000E+00  0.00000000000E+00  0.14050013857E+04  0.14050013857E+04  0.00000000000E+00 0. -1.
          1   -1    0    0  501    0 -0.00000000000E+00 -0.00000000000E+00 -0.15694826848E+04  0.15694826848E+04  0.00000000000E+00 0. -1.
         25    2    1    2    0    0  0.40924294883E+02 -0.10890707759E+03 -0.13955805841E+03  0.22053816529E+03  0.12500032488E+03 0.  0.
          2    1    1    2  501    0 -0.17835258745E+02  0.72947990879E+02 -0.13880847857E+04  0.13901146997E+04  0.00000000000E+00 0. -1.
          1    1    1    2  502    0 -0.23089036138E+02  0.35959086713E+02  0.13631615450E+04  0.13638312056E+04  0.00000000000E+00 0. -1.
         22    1    3    3    0    0  0.18360473734E+02 -0.14665434201E+02  0.21971565036E+02  0.32170353218E+02  0.00000000000E+00 0. -1.
         22    1    3    3    0    0  0.22563821149E+02 -0.94241643391E+02 -0.16152962345E+03  0.18836781207E+03  0.00000000000E+00 0. -1.
</event>
<event>
 7    1  0.6557591E-006  0.1563678E+03  0.7818608E-02  0.1397155E+00
          2   -1    0    0  502    0  0.00000000000E+00  0.00000000000E+00  0.25457643530E+03  0.25457643530E+03  0.00000000000E+00 0. -1.
          1   -1    0    0  501    0 -0.00000000000E+00 -0.00000000000E+00 -0.11729988990E+04  0.11729988990E+04  0.00000000000E+00 0. -1.
         25    2    1    2    0    0 -0.53980928390E+02 -0.13919655668E+03 -0.76438543215E+03  0.78879616035E+03  0.12499868668E+03 0.  0.
          2    1    1    2  501    0 -0.22981778651E+02  0.27593256720E+01 -0.37069862072E+03  0.37142057486E+03  0.00000000000E+00 0. -1.
          1    1    1    2  502    0  0.76962707041E+02  0.13643723101E+03  0.21666158918E+03  0.26735859908E+03  0.00000000000E+00 0. -1.
         22    1    3    3    0    0 -0.25829772256E+02 -0.39860275460E+02 -0.58287230973E+02  0.75189227879E+02  0.00000000000E+00 0. -1.
         22    1    3    3    0    0 -0.28151156134E+02 -0.99336281217E+02 -0.70609820118E+03  0.71360693247E+03  0.00000000000E+00 0. -1.
</event>
<event>
 7    1  0.6557591E-006  0.5671059E+02  0.7818608E-02  0.1417723E+00
          2   -1    0    0  502    0  0.00000000000E+00  0.00000000000E+00  0.10415907526E+04  0.10415907526E+04  0.00000000000E+00 0. -1.
          1   -1    0    0  501    0 -0.00000000000E+00 -0.00000000000E+00 -0.77015102418E+02  0.77015102418E+02  0.00000000000E+00 0. -1.
         25    2    1    2    0    0  0.29118907272E+02  0.45938726597E+02  0.76162906957E+03  0.77373273292E+03  0.12500090001E+03 0.  0.
          2    1    1    2  501    0 -0.57141038848E+02  0.60244174176E+00 -0.56166790572E+02  0.80125960960E+02  0.00000000000E+00 0. -1.
          1    1    1    2  502    0  0.28022131576E+02 -0.46541168339E+02  0.25911337116E+03  0.26474716112E+03  0.00000000000E+00 0. -1.
         22    1    3    3    0    0 -0.12834892948E+02  0.29562596134E+02  0.67785059814E+03  0.67861632383E+03  0.00000000000E+00 0. -1.
         22    1    3    3    0    0  0.41953800220E+02  0.16376130463E+02  0.83778471429E+02  0.95116409083E+02  0.00000000000E+00 0. -1.
</event>
<event>
 7    1  0.6557591E-006  0.7012395E+02  0.7818608E-02  0.1442260E+00
          2   -1    0    0  502    0  0.00000000000E+00  0.00000000000E+00  0.37160317952E+04  0.37160317952E+04  0.00000000000E+00 0. -1.
          1   -1    0    0  501    0 -0.00000000000E+00 -0.00000000000E+00 -0.27614775743E+02  0.27614775743E+02  0.00000000000E+00 0. -1.
         25    2    1    2    0    0 -0.97461524378E+01  0.37850644969E+02  0.11246406334E+04  0.11322408889E+04  0.12500086927E+03 0.  0.
          2    1    1    2  501    0  0.24581352801E+01  0.36394088843E+02 -0.89814634514E+01  0.37566458676E+02  0.00000000000E+00 0. -1.
          1    1    1    2  502    0  0.72880171577E+01 -0.74244733811E+02  0.25727578496E+04  0.25738392234E+04  0.00000000000E+00 0. -1.
         22    1    3    3    0    0 -0.50020118163E+02 -0.88743181648E+01  0.81112267184E+03  0.81271197513E+03  0.00000000000E+00 0.  1.
         22    1    3    3    0    0  0.40273965726E+02  0.46724963134E+02  0.31351796154E+03  0.31952891372E+03  0.00000000000E+00 0.  1.
</event>
<event>
 7    1  0.6557591E-006  0.1896679E+03  0.7818608E-02  0.1222965E+00
          2   -1    0    0  502    0  0.00000000000E+00  0.00000000000E+00  0.64982368407E+03  0.64982368407E+03  0.00000000000E+00 0. -1.
          1   -1    0    0  501    0 -0.00000000000E+00 -0.00000000000E+00 -0.46364028463E+03  0.46364028463E+03  0.00000000000E+00 0. -1.
         25    2    1    2    0    0 -0.12554925186E+03 -0.14038744930E+03  0.27847963801E+03  0.35867454794E+03  0.12500108796E+03 0.  0.
          2    1    1    2  501    0 -0.61984646151E+02  0.69821892715E+02 -0.38717636642E+03  0.39827469387E+03  0.00000000000E+00 0. -1.
          1    1    1    2  502    0  0.18753389801E+03  0.70565556586E+02  0.29488012786E+03  0.35651472688E+03  0.00000000000E+00 0. -1.
         22    1    3    3    0    0 -0.22252603882E+01 -0.88720160627E+02  0.14317186303E+03  0.16844702742E+03  0.00000000000E+00 0.  1.
         22    1    3    3    0    0 -0.12332399147E+03 -0.51667288674E+02  0.13530777498E+03  0.19022752052E+03  0.00000000000E+00 0.  1.
</event>
<event>
 7    1  0.6557591E-006  0.4453390E+02  0.7818608E-02  0.1478274E+00
          2   -1    0    0  502    0  0.00000000000E+00  0.00000000000E+00  0.15079181606E+02  0.15079181606E+02  0.00000000000E+00 0. -1.
          1   -1    0    0  501    0 -0.00000000000E+00 -0.00000000000E+00 -0.15281860891E+04  0.15281860891E+04  0.00000000000E+00 0. -1.
         25    2    1    2    0    0  0.31164354221E+02 -0.34777884769E+02 -0.63054142330E+03  0.64450671016E+03  0.12500277876E+03 0.  0.
          2    1    1    2  501    0 -0.45621657723E+02 -0.70109020310E+01 -0.82441044704E+03  0.82570156448E+03  0.00000000000E+00 0. -1.
          1    1    1    2  502    0  0.14457303502E+02  0.41788786800E+02 -0.58155037116E+02  0.73056996029E+02  0.00000000000E+00 0. -1.
         22    1    3    3    0    0  0.12043560744E+02 -0.52550475902E+02 -0.60689280795E+03  0.60928275884E+03  0.00000000000E+00 0. -1.
         22    1    3    3    0    0  0.19120793476E+02  0.17772591133E+02 -0.23648615349E+02  0.35223951321E+02  0.00000000000E+00 0. -1.
</event>
<event>
 7    1  0.6557591E-006  0.4962521E+02  0.7818608E-02  0.1477813E+00
          2   -1    0    0  502    0  0.00000000000E+00  0.00000000000E+00  0.21552937993E+04  0.21552937993E+04  0.00000000000E+00 0. -1.
          1   -1    0    0  501    0 -0.00000000000E+00 -0.00000000000E+00 -0.11213465040E+03  0.11213465040E+03  0.00000000000E+00 0. -1.
         25    2    1    2    0    0  0.89146188776E+01 -0.19004520977E+02  0.23024004579E+03  0.26282281903E+03  0.12499885309E+03 0.  0.
          2    1    1    2  501    0 -0.48470282681E+02  0.14493009055E+02 -0.88944350407E+02  0.10232552508E+03  0.00000000000E+00 0. -1.
          1    1    1    2  502    0  0.39555663803E+02  0.45115119213E+01  0.19018634535E+04  0.19022801056E+04  0.00000000000E+00 0. -1.
         22    1    3    3    0    0 -0.11397587613E+01 -0.27117153841E+02 -0.46852811380E+01  0.27542529691E+02  0.00000000000E+00 0.  1.
         22    1    3    3    0    0  0.10054377639E+02  0.81126328637E+01  0.23492532692E+03  0.23528028934E+03  0.00000000000E+00 0.  1.
</event>
<event>
 7    1  0.6557591E-006  0.2964405E+02  0.7818608E-02  0.1616541E+00
          2   -1    0    0  502    0  0.00000000000E+00  0.00000000000E+00  0.18159452603E+03  0.18159452603E+03  0.00000000000E+00 0. -1.
          1   -1    0    0  501    0 -0.00000000000E+00 -0.00000000000E+00 -0.10256993317E+04  0.10256993317E+04  0.00000000000E+00 0. -1.
         25    2    1    2    0    0 -0.19195588132E+02  0.38235569262E+02 -0.21806946065E+03  0.25496598841E+03  0.12499174460E+03 0.  0.
          2    1    1    2  501    0  0.25557484033E+02 -0.93034803872E+01 -0.78760021857E+03  0.78806969491E+03  0.00000000000E+00 0. -1.
          1    1    1    2  502    0 -0.63618959005E+01 -0.28932088874E+02  0.16156487357E+03  0.16425817440E+03  0.00000000000E+00 0. -1.
         22    1    3    3    0    0 -0.78829919539E+01 -0.13568665780E+02  0.11434322663E+02  0.19416333020E+02  0.00000000000E+00 0. -1.
         22    1    3    3    0    0 -0.11312596179E+02  0.51804235041E+02 -0.22950378331E+03  0.23554965539E+03  0.00000000000E+00 0. -1.
</event>
<event>
 7    1  0.6557591E-006  0.1604208E+03  0.7818608E-02  0.1277237E+00
          2   -1    0    0  502    0  0.00000000000E+00  0.00000000000E+00  0.90793928653E+03  0.90793928653E+03  0.00000000000E+00 0. -1.
          1   -1    0    0  501    0 -0.00000000000E+00 -0.00000000000E+00 -0.12580101683E+03  0.12580101683E+03  0.00000000000E+00 0. -1.
         25    2    1    2    0    0 -0.57227147219E+02 -0.13255868751E+03  0.12529168359E+03  0.22840817985E+03  0.12500215452E+03 0.  0.
          2    1    1    2  501    0  0.12090357230E+03  0.12452800082E+03  0.31132754184E+02  0.17633532025E+03  0.00000000000E+00 0. -1.
          1    1    1    2  502    0 -0.63676425083E+02  0.80306866895E+01  0.62571383193E+03  0.62899680325E+03  0.00000000000E+00 0. -1.
         22    1    3    3    0    0 -0.17380796621E+02 -0.53014531219E+02  0.12775710685E+03  0.13940771486E+03  0.00000000000E+00 0. -1.
         22    1    3    3    0    0 -0.39846350598E+02 -0.79544156295E+02 -0.24654232677E+01  0.89000464991E+02  0.00000000000E+00 0. -1.
</event>
<event>
 7    1  0.6557591E-006  0.5183383E+02  0.7818608E-02  0.1533354E+00
          2   -1    0    0  502    0  0.00000000000E+00  0.00000000000E+00  0.10890357532E+04  0.10890357532E+04  0.00000000000E+00 0. -1.
          1   -1    0    0  501    0 -0.00000000000E+00 -0.00000000000E+00 -0.70154379107E+02  0.70154379107E+02  0.00000000000E+00 0. -1.
         25    2    1    2    0    0 -0.43258916504E+02  0.89405834262E+01  0.76243975141E+02  0.15293846260E+03  0.12500304679E+03 0.  0.
          2    1    1    2  501    0  0.43903945390E+01  0.25723668810E+02 -0.25634480616E+02  0.36580176294E+02  0.00000000000E+00 0. -1.
          1    1    1    2  502    0  0.38868521965E+02 -0.34664252236E+02  0.96827187953E+03  0.96967149338E+03  0.00000000000E+00 0. -1.
         22    1    3    3    0    0  0.36204728775E+02 -0.26506448139E+02  0.18646444678E+02  0.48590781819E+02  0.00000000000E+00 0.  1.
         22    1    3    3    0    0 -0.79463645279E+02  0.35447031566E+02  0.57597530464E+02  0.10434768078E+03  0.00000000000E+00 0.  1.
</event>
<event>
 7    1  0.6557591E-006  0.1102374E+03  0.7818608E-02  0.1262756E+00
          2   -1    0    0  502    0  0.00000000000E+00  0.00000000000E+00  0.44917589145E+02  0.44917589145E+02  0.00000000000E+00 0. -1.
          1   -1    0    0  501    0 -0.00000000000E+00 -0.00000000000E+00 -0.15565799266E+04  0.15565799266E+04  0.00000000000E+00 0. -1.
         25    2    1    2    0    0 -0.41793673822E+02  0.29290845668E+02 -0.34326207579E+03  0.36886090987E+03  0.12499941337E+03 0.  0.
          2    1    1    2  501    0 -0.10437202920E+01 -0.13086468246E+03 -0.10888674817E+04  0.10967037190E+04  0.00000000000E+00 0. -1.
          1    1    1    2  502    0  0.42837394114E+02  0.10157383679E+03 -0.79532779935E+02  0.13593288689E+03  0.00000000000E+00 0. -1.
         22    1    3    3    0    0  0.32301365076E+02 -0.93041387295E-01 -0.21805728952E+03  0.22043676725E+03  0.00000000000E+00 0.  1.
         22    1    3    3    0    0 -0.74095038899E+02  0.29383887056E+02 -0.12520478627E+03  0.14842414262E+03  0.00000000000E+00 0.  1.
</event>
<event>
 7    1  0.6557591E-006  0.7326099E+02  0.7818608E-02  0.1449815E+00
          2   -1    0    0  502    0  0.00000000000E+00  0.00000000000E+00  0.65659188926E+03  0.65659188926E+03  0.00000000000E+00 0. -1.
          1   -1    0    0  501    0 -0.00000000000E+00 -0.00000000000E+00 -0.72213382257E+03  0.72213382257E+03  0.00000000000E+00 0. -1.
         25    2    1    2    0    0 -0.63340036088E+01 -0.66178193215E+02  0.19550443582E+02  0.14292120346E+03  0.12499831077E+03 0.  0.
          2    1    1    2  501    0  0.32907848126E+02 -0.26523459837E+01 -0.65766726103E+03  0.65849539682E+03  0.00000000000E+00 0. -1.
          1    1    1    2  502    0 -0.26573844517E+02  0.68830539199E+02  0.57257488414E+03  0.57730911155E+03  0.00000000000E+00 0. -1.
         22    1    3    3    0    0  0.32148903623E+02 -0.81102249256E+02  0.41010660773E+02  0.96400213359E+02  0.00000000000E+00 0.  1.
         22    1    3    3    0    0 -0.38482907232E+02  0.14924056041E+02 -0.21460217191E+02  0.46520990097E+02  0.00000000000E+00 0.  1.
</event>
<event>
 7    1  0.6557591E-006  0.1950656E+03  0.7818608E-02  0.1247773E+00
          2   -1    0    0  502    0  0.00000000000E+00  0.00000000000E+00  0.28698333928E+04  0.28698333928E+04  0.00000000000E+00 0. -1.
          1   -1    0    0  501    0 -0.00000000000E+00 -0.00000000000E+00 -0.17220454739E+04  0.17220454739E+04  0.00000000000E+00 0. -1.
         25    2    1    2    0    0  0.86971475725E+02 -0.15321383313E+03  0.83118312453E+03  0.85879395692E+03  0.12499263058E+03 0.  0.
          2    1    1    2  501    0 -0.50932854411E+02 -0.48640398971E+02 -0.17023190730E+04  0.17037752992E+04  0.00000000000E+00 0. -1.
          1    1    1    2  502    0 -0.36038621314E+02  0.20185423210E+03  0.20189238673E+04  0.20293096105E+04  0.00000000000E+00 0. -1.
         22    1    3    3    0    0 -0.35453797665E+00 -0.10918936278E+03  0.31392991355E+03  0.33237694454E+03  0.00000000000E+00 0.  1.
         22    1    3    3    0    0  0.87326013702E+02 -0.44024470346E+02  0.51725321098E+03  0.52641701238E+03  0.00000000000E+00 0.  1.
</event>
<event>
 7    1  0.6557591E-006  0.6941724E+02  0.7818608E-02  0.1418640E+00
          2   -1    0    0  502    0  0.00000000000E+00  0.00000000000E+00  0.19571744399E+04  0.19571744399E+04  0.00000000000E+00 0. -1.
          1   -1    0    0  501    0 -0.00000000000E+00 -0.00000000000E+00 -0.26209614662E+02  0.26209614662E+02  0.00000000000E+00 0. -1.
         25    2    1    2    0    0  0.53615653296E+02 -0.55528916584E+01  0.92146396495E+03  0.93146453951E+03  0.12499950711E+03 0.  0.
          2    1    1    2  501    0 -0.60159492422E+02 -0.38027886104E+02  0.40441097414E+02  0.81858212844E+02  0.00000000000E+00 0. -1.
          1    1    1    2  502    0  0.65438391262E+01  0.43580777762E+02  0.96905976284E+03  0.97006130217E+03  0.00000000000E+00 0. -1.
         22    1    3    3    0    0  0.16193910828E+01  0.54776714202E+02  0.30594487463E+03  0.31081405560E+03  0.00000000000E+00 0. -1.
         22    1    3    3    0    0  0.51996262213E+02 -0.60329605861E+02  0.61551909032E+03  0.62065048391E+03  0.00000000000E+00 0. -1.
</event>
<event>
 7    1  0.6557591E-006  0.8501373E+02  0.7818608E-02  0.1390829E+00
          2   -1    0    0  502    0  0.00000000000E+00  0.00000000000E+00  0.10699585069E+04  0.10699585069E+04  0.00000000000E+00 0. -1.
          1   -1    0    0  501    0 -0.00000000000E+00 -0.00000000000E+00 -0.23681843114E+03  0.23681843114E+03  0.00000000000E+00 0. -1.
         25    2    1    2    0    0 -0.33281587685E+01  0.44958888976E+02  0.40076122999E+03  0.42221771898E+03  0.12500344162E+03 0.  0.
          2    1    1    2  501    0  0.31280377980E+02 -0.79944828313E+02 -0.21714236333E+03  0.23349613181E+03  0.00000000000E+00 0. -1.
          1    1    1    2  502    0 -0.27952219212E+02  0.34985939338E+02  0.64952120910E+03  0.65106308725E+03  0.00000000000E+00 0. -1.
         22    1    3    3    0    0  0.40650073333E+02 -0.23383973959E+02  0.96530267176E+02  0.10731882957E+03  0.00000000000E+00 0. -1.
         22    1    3    3    0    0 -0.43978232101E+02  0.68342862935E+02  0.30423096282E+03  0.31489888941E+03  0.00000000000E+00 0. -1.
</event>
<event>
 7    1  0.6557591E-006  0.3019221E+03  0.7818608E-02  0.1309565E+00
          2   -1    0    0  502    0  0.00000000000E+00  0.00000000000E+00  0.19162856383E+04  0.19162856383E+04  0.00000000000E+00 0. -1.
          1   -1    0    0  501    0 -0.00000000000E+00 -0.00000000000E+00 -0.99286279990E+03  0.99286279990E+03  0.00000000000E+00 0. -1.
         25    2    1    2    0    0  0.27010787326E+03 -0.15643175058E+03  0.97633844823E+03  0.10326136364E+04  0.12500000348E+03 0.  0.
          2    1    1    2  501    0 -0.27165926066E+03  0.13124601281E+03 -0.94095347379E+03  0.98813850730E+03  0.00000000000E+00 0. -1.
          1    1    1    2  502    0  0.15513873927E+01  0.25185737762E+02  0.88803786400E+03  0.88839629450E+03  0.00000000000E+00 0. -1.
         22    1    3    3    0    0  0.15573164782E+03 -0.10388130309E+03  0.75624009104E+03  0.77906530314E+03  0.00000000000E+00 0.  1.
         22    1    3    3    0    0  0.11437622544E+03 -0.52550447482E+02  0.22009835719E+03  0.25354833329E+03  0.00000000000E+00 0.  1.
</event>
<event>
 7    1  0.6557591E-006  0.6328569E+02  0.7818608E-02  0.1399140E+00
          2   -1    0    0  502    0  0.00000000000E+00  0.00000000000E+00  0.52835307022E+03  0.52835307022E+03  0.00000000000E+00 0. -1.
          1   -1    0    0  501    0 -0.00000000000E+00 -0.00000000000E+00 -0.17244903891E+03  0.17244903891E+03  0.00000000000E+00 0. -1.
         25    2    1    2    0    0 -0.28971121586E+02  0.57490790526E+01  0.35503156003E+03  0.37755090470E+03  0.12499959689E+03 0.  0.
          2    1    1    2  501    0  0.19273563823E+02 -0.61205083770E+02 -0.14949808573E+03  0.16268746165E+03  0.00000000000E+00 0. -1.
          1    1    1    2  502    0  0.96975577631E+01  0.55456004717E+02  0.15037055700E+03  0.16056374279E+03  0.00000000000E+00 0. -1.
         22    1    3    3    0    0  0.45514107704E+01  0.43083042862E+02  0.29986851803E+03  0.30298183449E+03  0.00000000000E+00 0.  1.
         22    1    3    3    0    0 -0.33522532356E+02 -0.37333963809E+02  0.55163041997E+02  0.74569070208E+02  0.00000000000E+00 0.  1.
</event>
<event>
 7    1  0.6557591E-006  0.1152083E+03  0.7818608E-02  0.1264782E+00
          2   -1    0    0  502    0  0.00000000000E+00  0.00000000000E+00  0.14063532891E+03  0.14063532891E+03  0.00000000000E+00 0. -1.
          1   -1    0    0  501    0 -0.00000000000E+00 -0.00000000000E+00 -0.19535011659E+04  0.19535011659E+04  0.00000000000E+00 0. -1.
         25    2    1    2    0    0 -0.94200176921E+01 -0.12282229534E+03 -0.72802428791E+02  0.18999229491E+03  0.12499130177E+03 0.  0.
          2    1    1    2  501    0  0.94168422294E+02  0.68273212257E+02 -0.17885312441E+04  0.17923093858E+04  0.00000000000E+00 0. -1.
          1    1    1    2  502    0 -0.84748404602E+02  0.54549083086E+02  0.48467835850E+02  0.11183481417E+03  0.00000000000E+00 0. -1.
         22    1    3    3    0    0 -0.46756785626E+02  0.22832343396E+00 -0.16052977992E+02  0.49436294724E+02  0.00000000000E+00 0. -1.
         22    1    3    3    0    0  0.37336767934E+02 -0.12305061878E+03 -0.56749450799E+02  0.14055600018E+03  0.00000000000E+00 0. -1.
</event>
<event>
 7    1  0.6557591E-006  0.4945010E+02  0.7818608E-02  0.1539160E+00
          2   -1    0    0  502    0  0.00000000000E+00  0.00000000000E+00  0.22618277744E+04  0.22618277744E+04  0.00000000000E+00 0. -1.
          1   -1    0    0  501    0 -0.00000000000E+00 -0.00000000000E+00 -0.11536850380E+03  0.11536850380E+03  0.00000000000E+00 0. -1.
         25    2    1    2    0    0  0.26259656122E+02  0.70105273570E+02  0.41758925591E+03  0.44227557859E+03  0.12499032700E+03 0.  0.
          2    1    1    2  501    0 -0.11948741130E+02 -0.23467247089E+02 -0.10101212873E+03  0.10438838178E+03  0.00000000000E+00 0. -1.
          1    1    1    2  502    0 -0.14310914992E+02 -0.46638026481E+02  0.18298821435E+04  0.18305323179E+04  0.00000000000E+00 0. -1.
         22    1    3    3    0    0 -0.45017464821E+02  0.23697190259E+01  0.17000174831E+03  0.17587717912E+03  0.00000000000E+00 0.  1.
         22    1    3    3    0    0  0.71277120942E+02  0.67735554544E+02  0.24758750760E+03  0.26639839947E+03  0.00000000000E+00 0.  1.
</event>
<event>
 7    1  0.6557591E-006  0.8199913E+02  0.7818608E-02  0.1411889E+00
          2   -1    0    0  502    0  0.00000000000E+00  0.00000000000E+00  0.35898869525E+03  0.35898869525E+03  0.00000000000E+00 0. -1.
          1   -1    0    0  501    0 -0.00000000000E+00 -0.00000000000E+00 -0.41657280068E+03  0.41657280068E+03  0.00000000000E+00 0. -1.
         25    2    1    2    0    0 -0.10640440008E+03  0.40240178049E+02  0.15643839005E+03  0.23030138819E+03  0.12499836493E+03 0.  0.
          2    1    1    2  501    0  0.37936668336E+02 -0.10297204909E+02 -0.37011756418E+03  0.37219918666E+03  0.00000000000E+00 0. -1.
          1    1    1    2  502    0  0.68467731739E+02 -0.29942973140E+02  0.15609506870E+03  0.17306092107E+03  0.00000000000E+00 0. -1.
         22    1    3    3    0    0 -0.65748714008E+02 -0.13050943939E+02  0.80962626037E+01  0.67518664083E+02  0.00000000000E+00 0. -1.
         22    1    3    3    0    0 -0.40655686068E+02  0.53291121988E+02  0.14834212745E+03  0.16278272411E+03  0.00000000000E+00 0. -1.
</event>
<event>
 7    1  0.6557591E-006  0.8455476E+02  0.7818608E-02  0.1368140E+00
          2   -1    0    0  502    0  0.00000000000E+00  0.00000000000E+00  0.21068904988E+03  0.21068904988E+03  0.00000000000E+00 0. -1.
          1   -1    0    0  501    0 -0.00000000000E+00 -0.00000000000E+00 -0.21690002788E+03  0.21690002788E+03  0.00000000000E+00 0. -1.
         25    2    1    2    0    0 -0.41316571000E+02  0.11109234825E+03  0.49710692069E+02  0.17929235266E+03  0.12500410368E+03 0.  0.
          2    1    1    2  501    0  0.42419802744E+02 -0.33711911590E+02 -0.13020306642E+03  0.14102755459E+03  0.00000000000E+00 0. -1.
          1    1    1    2  502    0 -0.11032317438E+01 -0.77380436657E+02  0.74281396360E+02  0.10726917051E+03  0.00000000000E+00 0. -1.
         22    1    3    3    0    0 -0.42428636460E+02 -0.15866795176E+02  0.13304907025E+02  0.47211915148E+02  0.00000000000E+00 0.  1.
         22    1    3    3    0    0  0.11120654597E+01  0.12695914342E+03  0.36405785044E+02  0.13208043751E+03  0.00000000000E+00 0.  1.
</event>
<event>
 7    1  0.6557591E-006  0.7826763E+02  0.7818608E-02  0.1401993E+00
          2   -1    0    0  502    0  0.00000000000E+00  0.00000000000E+00  0.10674964479E+04  0.10674964479E+04  0.00000000000E+00 0. -1.
          1   -1    0    0  501    0 -0.00000000000E+00 -0.00000000000E+00 -0.40242499982E+03  0.40242499982E+03  0.00000000000E+00 0. -1.
         25    2    1    2    0    0  0.10121453054E+03  0.63326091174E+02  0.30113152923E+03  0.34721782010E+03  0.12500176672E+03 0.  0.
          2    1    1    2  501    0 -0.37380828005E+02 -0.24152982141E+02 -0.37618021775E+03  0.37880370784E+03  0.00000000000E+00 0. -1.
          1    1    1    2  502    0 -0.63833702539E+02 -0.39173109033E+02  0.74012013662E+03  0.74389991980E+03  0.00000000000E+00 0. -1.
         22    1    3    3    0    0  0.15442977609E+02  0.78977440889E+02  0.18711275055E+03  0.20368383133E+03  0.00000000000E+00 0. -1.
         22    1    3    3    0    0  0.85771552935E+02 -0.15651349715E+02  0.11401877868E+03  0.14353398877E+03  0.00000000000E+00 0. -1.
</event>
<event>
 7    1  0.6557591E-006  0.8113139E+02  0.7818608E-02  0.1380677E+00
          2   -1    0    0  502    0  0.00000000000E+00  0.00000000000E+00  0.14309363722E+03  0.14309363722E+03  0.00000000000E+00 0. -1.
          1   -1    0    0  501    0 -0.00000000000E+00 -0.00000000000E+00 -0.30232700237E+03  0.30232700237E+03  0.00000000000E+00 0. -1.
         25    2    1    2    0    0 -0.31661161062E+02 -0.81688023820E+02 -0.88228016722E+02  0.17630638709E+03  0.12499758732E+03 0.  0.
          2    1    1    2  501    0 -0.19258898166E+02  0.80312136035E+02 -0.15225777058E+03  0.17321481766E+03  0.00000000000E+00 0. -1.
          1    1    1    2  502    0  0.50920059228E+02  0.13758877845E+01  0.81252422148E+02  0.95899434846E+02  0.00000000000E+00 0. -1.
         22    1    3    3    0    0 -0.52029257150E+01 -0.11770491258E+02  0.32135768594E+02  0.34616795397E+02  0.00000000000E+00 0. -1.
         22    1    3    3    0    0 -0.26458235347E+02 -0.69917532562E+02 -0.12036378532E+03  0.14168959169E+03  0.00000000000E+00 0. -1.
</event>
<event>
 7    1  0.6557591E-006  0.3794416E+02  0.7818608E-02  0.1570988E+00
          2   -1    0    0  502    0  0.00000000000E+00  0.00000000000E+00  0.91404051568E+02  0.91404051568E+02  0.00000000000E+00 0. -1.
          1   -1    0    0  501    0 -0.00000000000E+00 -0.00000000000E+00 -0.10355925986E+04  0.10355925986E+04  0.00000000000E+00 0. -1.
         25    2    1    2    0    0 -0.60311372229E+02 -0.63840093535E+01 -0.44528614533E+02  0.14590288795E+03  0.12500655184E+03 0.  0.
          2    1    1    2  501    0  0.26941855808E+02 -0.76684551817E+01 -0.93207516024E+03  0.93249599095E+03  0.00000000000E+00 0. -1.
          1    1    1    2  502    0  0.33369516421E+02  0.14052464535E+02  0.32415227726E+02  0.48597771289E+02  0.00000000000E+00 0. -1.
         22    1    3    3    0    0 -0.94078621389E+02 -0.22454207945E+02 -0.14207909099E+02  0.97759107697E+02  0.00000000000E+00 0.  1.
         22    1    3    3    0    0  0.33767249160E+02  0.16070198591E+02 -0.30320705434E+02  0.48143780248E+02  0.00000000000E+00 0.  1.
</event>
<event>
 7    1  0.6557591E-006  0.8337094E+02  0.7818608E-02  0.1431924E+00
          2   -1    0    0  502    0  0.00000000000E+00  0.00000000000E+00  0.71056573426E+03  0.71056573426E+03  0.00000000000E+00 0. -1.
          1   -1    0    0  501    0 -0.00000000000E+00 -0.00000000000E+00 -0.74820763240E+03  0.74820763240E+03  0.00000000000E+00 0. -1.
         25    2    1    2    0    0  0.12140826841E+02  0.53504524891E+02 -0.18664877204E+03  0.23124203159E+03  0.12499991684E+03 0.  0.
          2    1    1    2  501    0 -0.17066897484E+02 -0.86292045451E+02 -0.53527104952E+03  0.54245063605E+03  0.00000000000E+00 0. -1.
          1    1    1    2  502    0  0.49260706427E+01  0.32787520560E+02  0.68427792342E+03  0.68508069901E+03  0.00000000000E+00 0. -1.
         22    1    3    3    0    0 -0.44781784123E+02 -0.87227030198E+01 -0.34192443633E+02  0.57014181909E+02  0.00000000000E+00 0. -1.
         22    1    3    3    0    0  0.56922610964E+02  0.62227227911E+02 -0.15245632841E+03  0.17422784968E+03  0.00000000000E+00 0. -1.
</event>
<event>
 7    1  0.6557591E-006  0.2875886E+02  0.7818608E-02  0.1615363E+00
          2   -1    0    0  502    0  0.00000000000E+00  0.00000000000E+00  0.23701815423E+04  0.23701815423E+04  0.00000000000E+00 0. -1.
          1   -1    0    0  501    0 -0.00000000000E+00 -0.00000000000E+00 -0.19212030627E+02  0.19212030627E+02  0.00000000000E+00 0. -1.
         25    2    1    2    0    0  0.10354521231E+01  0.14870076979E+02  0.46554574164E+03  0.48226289074E+03  0.12498986713E+03 0.  0.
          2    1    1    2  501    0  0.27357133792E+02 -0.10294777194E+02  0.91388565927E+01  0.30625380106E+02  0.00000000000E+00 0. -1.
          1    1    1    2  502    0 -0.28392585915E+02 -0.45752997859E+01  0.18762849134E+04  0.18765053021E+04  0.00000000000E+00 0. -1.
         22    1    3    3    0    0  0.37390710738E+02 -0.39421425356E+01  0.41730545170E+03  0.41899575864E+03  0.00000000000E+00 0.  1.
         22    1    3    3    0    0 -0.36355258615E+02  0.18812219515E+02  0.48240289933E+02  0.63267132105E+02  0.00000000000E+00 0.  1.
</event>
<event>
 7    1  0.6557591E-006  0.4484182E+02  0.7818608E-02  0.1488387E+00
          2   -1    0    0  502    0  0.00000000000E+00  0.00000000000E+00  0.28607492847E+04  0.28607492847E+04  0.00000000000E+00 0. -1.
          1   -1    0    0  501    0 -0.00000000000E+00 -0.00000000000E+00 -0.17319916436E+02  0.17319916436E+02  0.00000000000E+00 0. -1.
         25    2    1    2    0    0  0.42099511314E+02  0.11449438179E+02  0.13700431073E+04  0.13764248616E+04  0.12499530132E+03 0.  0.
          2    1    1    2  501    0 -0.35019473742E+02  0.28834311504E+02  0.23328409882E+02  0.51009761504E+02  0.00000000000E+00 0. -1.
          1    1    1    2  502    0 -0.70800375720E+01 -0.40283749684E+02  0.14500578511E+04  0.14506345780E+04  0.00000000000E+00 0. -1.
         22    1    3    3    0    0 -0.22566172738E+02  0.43052590235E+01  0.52863936769E+02  0.57639944639E+02  0.00000000000E+00 0.  1.
         22    1    3    3    0    0  0.64665684052E+02  0.71441791559E+01  0.13171791705E+04  0.13187849170E+04  0.00000000000E+00 0.  1.
</event>
<event>
 7    1  0.6557591E-006  0.1690621E+03  0.7818608E-02  0.1293130E+00
          2   -1    0    0  502    0  0.00000000000E+00  0.00000000000E+00  0.10077166582E+04  0.10077166582E+04  0.00000000000E+00 0. -1.
          1   -1    0    0  501    0 -0.00000000000E+00 -0.00000000000E+00 -0.30950878809E+03  0.30950878809E+03  0.00000000000E+00 0. -1.
         25    2    1    2    0    0  0.14148836204E+03  0.62012283398E+02  0.10528671315E+03  0.22485847599E+03  0.12494623793E+03 0.  0.
          2    1    1    2  501    0 -0.13050759413E+03 -0.11326743505E+03 -0.21888121104E+03  0.27887403700E+03  0.00000000000E+00 0. -1.
          1    1    1    2  502    0 -0.10980767912E+02  0.51255151650E+02  0.81180236800E+03  0.81349293329E+03  0.00000000000E+00 0. -1.
         22    1    3    3    0    0  0.62873653678E+02 -0.28433388242E+02  0.73632204550E+02  0.10091211741E+03  0.00000000000E+00 0.  1.
         22    1    3    3    0    0  0.78614708365E+02  0.90445671639E+02  0.31654508600E+02  0.12394635858E+03  0.00000000000E+00 0.  1.
</event>
<event>
 7    1  0.6557591E-006  0.1169090E+03  0.7818608E-02  0.1337867E+00
          2   -1    0    0  502    0  0.00000000000E+00  0.00000000000E+00  0.16971609089E+04  0.16971609089E+04  0.00000000000E+00 0. -1.
          1   -1    0    0  501    0 -0.00000000000E+00 -0.00000000000E+00 -0.36888698941E+03  0.36888698941E+03  0.00000000000E+00 0. -1.
         25    2    1    2    0    0 -0.91253736213E+02 -0.73118081584E+02  0.60820395824E+03  0.63183108872E+03  0.12499988648E+03 0.  0.
          2    1    1    2  501    0  0.51838181055E+02  0.10497449122E+03 -0.34685909161E+03  0.36608478561E+03  0.00000000000E+00 0. -1.
          1    1    1    2  502    0  0.39415555158E+02 -0.31856409637E+02  0.10669290528E+04  0.10681320240E+04  0.00000000000E+00 0. -1.
         22    1    3    3    0    0 -0.80155416596E+01 -0.69946481750E+02  0.14490210446E+03  0.16110052481E+03  0.00000000000E+00 0.  1.
         22    1    3    3    0    0 -0.83238194554E+02 -0.31715998342E+01  0.46330185378E+03  0.47073056391E+03  0.00000000000E+00 0.  1.
</event>
<event>
 7    1  0.6557591E-006  0.5674275E+02  0.7818608E-02  0.1501244E+00
          2   -1    0    0  502    0  0.00000000000E+00  0.00000000000E+00  0.88856697609E+03  0.88856697609E+03  0.00000000000E+00 0. -1.
          1   -1    0    0  501    0 -0.00000000000E+00 -0.00000000000E+00 -0.17371823578E+04  0.17371823578E+04  0.00000000000E+00 0. -1.
         25    2    1    2    0    0  0.11625692188E+02  0.49846599523E+02  0.18704005262E+02  0.13636221428E+03  0.12499989387E+03 0.  0.
          2    1    1    2  501    0  0.17650544368E+02 -0.54012140791E+02 -0.16776025127E+04  0.16785645783E+04  0.00000000000E+00 0. -1.
          1    1    1    2  502    0 -0.29276236556E+02  0.41655412680E+01  0.81028312567E+03  0.81082254132E+03  0.00000000000E+00 0. -1.
         22    1    3    3    0    0 -0.29142137092E+02  0.15722580555E+01  0.55886615419E+02  0.63047997056E+02  0.00000000000E+00 0.  1.
         22    1    3    3    0    0  0.40767829280E+02  0.48274341468E+02 -0.37182610157E+02  0.73314217220E+02  0.00000000000E+00 0.  1.
</event>
<event>
 7    1  0.6557591E-006  0.7222392E+02  0.7818608E-02  0.1420453E+00
          2   -1    0    0  502    0  0.00000000000E+00  0.00000000000E+00  0.56384512383E+03  0.56384512383E+03  0.00000000000E+00 0. -1.
          1   -1    0    0  501    0 -0.00000000000E+00 -0.00000000000E+00 -0.98259790964E+03  0.98259790964E+03  0.00000000000E+00 0. -1.
         25    2    1    2    0    0  0.22436459708E+02  0.11043762945E+03 -0.10308504962E+03  0.19737058332E+03  0.12501501903E+03 0.  0.
          2    1    1    2  501    0 -0.13821417085E+02 -0.69565873125E+02 -0.83001103681E+03  0.83303587167E+03  0.00000000000E+00 0. -1.
          1    1    1    2  502    0 -0.86150426229E+01 -0.40871756325E+02  0.51434330062E+03  0.51603657847E+03  0.00000000000E+00 0. -1.
         22    1    3    3    0    0  0.63519077914E+02  0.74170620090E+02 -0.22988771125E+02  0.10032167134E+03  0.00000000000E+00 0.  1.
         22    1    3    3    0    0 -0.41082618206E+02  0.36267009360E+02 -0.80096278499E+02  0.97048911977E+02  0.00000000000E+00 0.  1.
</event>
<event>
 7    1  0.6557591E-006  0.8557319E+02  0.7818608E-02  0.1370810E+00
          2   -1    0    0  502    0  0.00000000000E+00  0.00000000000E+00  0.17264334191E+04  0.17264334191E+04  0.00000000000E+00 0. -1.
          1   -1    0    0  501    0 -0.00000000000E+00 -0.00000000000E+00 -0.12838436473E+04  0.12838436473E+04  0.00000000000E+00 0. -1.
         25    2    1    2    0    0 -0.57166536900E+01  0.76729657210E+02  0.49248581951E+03  0.51389417877E+03  0.12499929652E+03 0.  0.
          2    1    1    2  501    0  0.56584785777E+02 -0.64286703299E+02 -0.12711374336E+04  0.12740192280E+04  0.00000000000E+00 0. -1.
          1    1    1    2  502    0 -0.50868132087E+02 -0.12442953912E+02  0.12212413858E+04  0.12223636596E+04  0.00000000000E+00 0. -1.
         22    1    3    3    0    0 -0.46824159596E+00  0.37691377448E+00  0.36638753212E+03  0.36638802520E+03  0.00000000000E+00 0.  1.
         22    1    3    3    0    0 -0.52484120940E+01  0.76352743436E+02  0.12609828738E+03  0.14750615357E+03  0.00000000000E+00 0.  1.
</event>
<event>
 7    1  0.6557591E-006  0.7812217E+02  0.7818608E-02  0.1452360E+00
          2   -1    0    0  502    0  0.00000000000E+00  0.00000000000E+00  0.16012338019E+04  0.16012338019E+04  0.00000000000E+00 0. -1.
          1   -1    0    0  501    0 -0.00000000000E+00 -0.00000000000E+00 -0.25803470736E+03  0.25803470736E+03  0.00000000000E+00 0. -1.
         25    2    1    2    0    0  0.80857004235E+02 -0.50403586983E+02  0.53441366312E+03  0.55704676931E+03  0.12499905264E+03 0.  0.
          2    1    1    2  501    0 -0.73587472150E+01  0.29481378047E+02 -0.24439289355E+03  0.24627462157E+03  0.00000000000E+00 0. -1.
          1    1    1    2  502    0 -0.73498257021E+02  0.20922208935E+02  0.10531783250E+04  0.10559471184E+04  0.00000000000E+00 0. -1.
         22    1    3    3    0    0 -0.32815046113E+02 -0.53983760621E+01  0.84227099981E+02  0.90554812609E+02  0.00000000000E+00 0. -1.
         22    1    3    3    0    0  0.11367205035E+03 -0.45005210920E+02  0.45018656314E+03  0.46649195670E+03  0.00000000000E+00 0. -1.
</event>
<event>
 7    1  0.6557591E-006  0.5159578E+02  0.7818608E-02  0.1540486E+00
          2   -1    0    0  502    0  0.00000000000E+00  0.00000000000E+00  0.19500291791E+03  0.19500291791E+03  0.00000000000E+00 0. -1.
          1   -1    0    0  501    0 -0.00000000000E+00 -0.00000000000E+00 -0.27230373149E+03  0.27230373149E+03  0.00000000000E+00 0. -1.
         25    2    1    2    0    0  0.35483177657E+02 -0.42486367114E+02  0.36183218802E+02  0.14141590441E+03  0.12500034164E+03 0.  0.
          2    1    1    2  501    0 -0.23728696637E+02 -0.79405253277E+01 -0.21259866840E+03  0.21406610379E+03  0.00000000000E+00 0. -1.
          1    1    1    2  502    0 -0.11754481020E+02  0.50426892441E+02  0.99114636017E+02  0.11182464119E+03  0.00000000000E+00 0. -1.
         22    1    3    3    0    0  0.39796476139E+02 -0.21497572560E+02 -0.41162101313E+02  0.61157368514E+02  0.00000000000E+00 0. -1.
         22    1    3    3    0    0 -0.43132984819E+01 -0.20988794554E+02  0.77345320115E+02  0.80258535897E+02  0.00000000000E+00 0. -1.
</event>
<event>
 7    1  0.6557591E-006  0.1953686E+03  0.7818608E-02  0.1170971E+00
          2   -1    0    0  502    0  0.00000000000E+00  0.00000000000E+00  0.83261468644E+03  0.83261468644E+03  0.00000000000E+00 0. -1.
          1   -1    0    0  501    0 -0.00000000000E+00 -0.00000000000E+00 -0.97664304331E+03  0.97664304331E+03  0.00000000000E+00 0. -1.
         25    2    1    2    0    0 -0.17667737427E+03 -0.21218691903E+03  0.23061785577E+03  0.38085120047E+03  0.12499943325E+03 0.  0.
          2    1    1    2  501    0 -0.12794456552E+01  0.15992807257E+03 -0.87775130641E+03  0.89220288124E+03  0.00000000000E+00 0. -1.
          1    1    1    2  502    0  0.17795681992E+03  0.52258846460E+02  0.50310509377E+03  0.53620364804E+03  0.00000000000E+00 0. -1.
         22    1    3    3    0    0 -0.11364663058E+03 -0.48548045903E+02  0.64941685922E+02  0.13960620321E+03  0.00000000000E+00 0. -1.
         22    1    3    3    0    0 -0.63030743683E+02 -0.16363887313E+03  0.16567616985E+03  0.24124499726E+03  0.00000000000E+00 0. -1.
</event>
<event>
 7    1  0.6557591E-006  0.1653335E+03  0.7818608E-02  0.1262365E+00
          2   -1    0    0  502    0  0.00000000000E+00  0.00000000000E+00  0.75935277621E+03  0.75935277621E+03  0.00000000000E+00 0. -1.
          1   -1    0    0  501    0 -0.00000000000E+00 -0.00000000000E+00 -0.51295773732E+03  0.51295773732E+03  0.00000000000E+00 0. -1.
         25    2    1    2    0    0  0.11301901438E+03 -0.52452079072E+02  0.70253136225E+02  0.18996498483E+03  0.12500669623E+03 0.  0.
          2    1    1    2  501    0 -0.17113551202E+03  0.10104287902E+02 -0.43470127919E+03  0.46728434837E+03  0.00000000000E+00 0. -1.
          1    1    1    2  502    0  0.58116497642E+02  0.42347791170E+02  0.61084318186E+03  0.61506118032E+03  0.00000000000E+00 0. -1.
         22    1    3    3    0    0  0.41680439736E+00 -0.30017515352E+02  0.68884063154E+02  0.75141460662E+02  0.00000000000E+00 0.  1.
         22    1    3    3    0    0  0.11260220998E+03 -0.22434563720E+02  0.13690730708E+01  0.11482352417E+03  0.00000000000E+00 0.  1.
</event>
<event>
 7    1  0.6557591E-006  0.4626922E+02  0.7818608E-02  0.1558925E+00
          2   -1    0    0  502    0  0.00000000000E+00  0.00000000000E+00  0.18039107940E+04  0.18039107940E+04  0.00000000000E+00 0. -1.
          1   -1    0    0  501    0 -0.00000000000E+00 -0.00000000000E+00 -0.17978141650E+04  0.17978141650E+04  0.00000000000E+00 0. -1.
         25    2    1    2    0    0  0.34393885014E+02  0.26307826449E+02  0.56739521894E+03  0.58261286101E+03  0.12500148109E+03 0.  0.
          2    1    1    2  501    0 -0.16343200620E+02 -0.43292008404E+02 -0.17897812962E+04  0.17903793974E+04  0.00000000000E+00 0. -1.
          1    1    1    2  502    0 -0.18050684394E+02  0.16984181955E+02  0.12284827064E+04  0.12287327006E+04  0.00000000000E+00 0. -1.
         22    1    3    3    0    0  0.77381268716E+02  0.26343412580E+02  0.26925685018E+03  0.28139134227E+03  0.00000000000E+00 0.  1.
         22    1    3    3    0    0 -0.42987383702E+02 -0.35586131294E-01  0.29813836876E+03  0.30122151874E+03  0.00000000000E+00 0.  1.
</event>
<event>
 7    1  0.6557591E-006  0.1048309E+03  0.7818608E-02  0.1384645E+00
          2   -1    0    0  502    0  0.00000000000E+00  0.00000000000E+00  0.33362150788E+04  0.33362150788E+04  0.00000000000E+00 0. -1.
          1   -1    0    0  501    0 -0.00000000000E+00 -0.00000000000E+00 -0.72711176746E+02  0.72711176746E+02  0.00000000000E+00 0. -1.
         25    2    1    2    0    0  0.68171932052E+02 -0.15874046307E+02  0.51680478202E+02  0.15229708052E+03  0.12499652492E+03 0.  0.
          2    1    1    2  501    0  0.37058840575E+02  0.91513941374E+01 -0.46264122838E+01  0.38451389703E+02  0.00000000000E+00 0. -1.
          1    1    1    2  502    0 -0.10523077263E+03  0.67226521700E+01  0.32164498361E+04  0.32181777853E+04  0.00000000000E+00 0. -1.
         22    1    3    3    0    0  0.71858832199E+02 -0.61369780027E+02  0.49311796377E+02  0.10659078256E+03  0.00000000000E+00 0. -1.
         22    1    3    3    0    0 -0.36869001473E+01  0.45495733720E+02  0.23686818252E+01  0.45706297958E+02  0.00000000000E+00 0. -1.
</event>
<event>
 7    1  0.6557591E-006  0.9626119E+02  0.7818608E-02  0.1362266E+00
          2   -1    0    0  502    0  0.00000000000E+00  0.00000000000E+00  0.30827584700E+04  0.30827584700E+04  0.00000000000E+00 0. -1.
          1   -1    0    0  501    0 -0.00000000000E+00 -0.00000000000E+00 -0.25007743900E+03  0.25007743900E+03  0.00000000000E+00 0. -1.
         25    2    1    2    0    0 -0.54063290489E+02  0.55917132316E+02  0.13170785278E+04  0.13252817271E+04  0.12500497037E+03 0.  0.
          2    1    1    2  501    0 -0.45673170690E+02 -0.20306117974E+02 -0.24182602966E+03  0.24693765523E+03  0.00000000000E+00 0. -1.
          1    1    1    2  502    0  0.99736461179E+02 -0.35611014342E+02  0.17574285329E+04  0.17606165268E+04  0.00000000000E+00 0. -1.
         22    1    3    3    0    0 -0.43122754259E+02 -0.33266186905E+02  0.63067854121E+03  0.63302577631E+03  0.00000000000E+00 0.  1.
         22    1    3    3    0    0 -0.10940536231E+02  0.89183319221E+02  0.68639998660E+03  0.69225595076E+03  0.00000000000E+00 0.  1.
</event>
<event>
 7    1  0.6557591E-006  0.5239284E+02  0.7818608E-02  0.1569287E+00
          2   -1    0    0  502    0  0.00000000000E+00  0.00000000000E+00  0.59084114774E+03  0.59084114774E+03  0.00000000000E+00 0. -1.
          1   -1    0    0  501    0 -0.00000000000E+00 -0.00000000000E+00 -0.83271607591E+03  0.83271607591E+03  0.00000000000E+00 0. -1.
         25    2    1    2    0    0 -0.39259815362E+02  0.25774025320E+02  0.78958179893E+02  0.15513190455E+03  0.12500352056E+03 0.  0.
          2    1    1    2  501    0  0.51610073031E+02 -0.94068434935E+01 -0.79354089220E+03  0.79527305747E+03  0.00000000000E+00 0. -1.
          1    1    1    2  502    0 -0.12350257668E+02 -0.16367181826E+02  0.47270778413E+03  0.47315226163E+03  0.00000000000E+00 0. -1.
         22    1    3    3    0    0 -0.60010424654E+02  0.51359264641E+02  0.11183317389E+02  0.79775257564E+02  0.00000000000E+00 0.  1.
         22    1    3    3    0    0  0.20750609292E+02 -0.25585239321E+02  0.67774862504E+02  0.75356646983E+02  0.00000000000E+00 0.  1.
</event>
<event>
 7    1  0.6557591E-006  0.1533454E+03  0.7818608E-02  0.1212213E+00
          2   -1    0    0  502    0  0.00000000000E+00  0.00000000000E+00  0.38307547451E+03  0.38307547451E+03  0.00000000000E+00 0. -1.
          1   -1    0    0  501    0 -0.00000000000E+00 -0.00000000000E+00 -0.25957828301E+04  0.25957828301E+04  0.00000000000E+00 0. -1.
         25    2    1    2    0    0 -0.82141374713E+02 -0.39482180948E+02 -0.10494581761E+02  0.15507839403E+03  0.12503249176E+03 0.  0.
          2    1    1    2  501    0  0.17180438466E+02 -0.12819456960E+03 -0.24851618680E+04  0.24885253717E+04  0.00000000000E+00 0. -1.
          1    1    1    2  502    0  0.64960936247E+02  0.16767675055E+03  0.28294909423E+03  0.33525453888E+03  0.00000000000E+00 0. -1.
         22    1    3    3    0    0 -0.61992440021E+02 -0.84628373440E+02 -0.12191341921E+02  0.10561085659E+03  0.00000000000E+00 0. -1.
         22    1    3    3    0    0 -0.20148934692E+02  0.45146192492E+02  0.16967601603E+01  0.49467537444E+02  0.00000000000E+00 0. -1.
</event>
<event>
 7    1  0.6557591E-006  0.1144433E+03  0.7818608E-02  0.1356239E+00
          2   -1    0    0  502    0  0.00000000000E+00  0.00000000000E+00  0.13626961062E+04  0.13626961062E+04  0.00000000000E+00 0. -1.
          1   -1    0    0  501    0 -0.00000000000E+00 -0.00000000000E+00 -0.66255189597E+02  0.66255189597E+02  0.00000000000E+00 0. -1.
         25    2    1    2    0    0 -0.58581370898E+02 -0.11397652076E+03  0.10885662526E+04  0.11031879076E+04  0.12499859579E+03 0.  0.
          2    1    1    2  501    0  0.41121496812E+02  0.16286355471E+02 -0.39453359060E+02  0.59268797995E+02  0.00000000000E+00 0. -1.
          1    1    1    2  502    0  0.17459874086E+02  0.97690165287E+02  0.24732802307E+03  0.26649459017E+03  0.00000000000E+00 0. -1.
         22    1    3    3    0    0 -0.49188286647E+02 -0.11510882864E+03  0.10862612833E+04  0.10934500929E+04  0.00000000000E+00 0. -1.
         22    1    3    3    0    0 -0.93930842511E+01  0.11323078781E+01  0.23049692823E+01  0.97378147585E+01  0.00000000000E+00 0. -1.
</event>
<event>
 7    1  0.6557591E-006  0.6053858E+02  0.7818608E-02  0.1415598E+00
          2   -1    0    0  502    0  0.00000000000E+00  0.00000000000E+00  0.20288038818E+03  0.20288038818E+03  0.00000000000E+00 0. -1.
          1   -1    0    0  501    0 -0.00000000000E+00 -0.00000000000E+00 -0.10882520960E+04  0.10882520960E+04  0.00000000000E+00 0. -1.
         25    2    1    2    0    0 -0.13775971020E+02  0.25357125619E+01  0.26107368880E+02  0.12846396751E+03  0.12500075609E+03 0.  0.
          2    1    1    2  501    0  0.36587638092E+02 -0.48968282124E+02 -0.10308023193E+04  0.10326131751E+04  0.00000000000E+00 0. -1.
          1    1    1    2  502    0 -0.22811667072E+02  0.46432569562E+02  0.11932324255E+03  0.13005534162E+03  0.00000000000E+00 0. -1.
         22    1    3    3    0    0 -0.32086306852E+02 -0.16465974717E+02 -0.42037772563E+02  0.55388028786E+02  0.00000000000E+00 0.  1.
         22    1    3    3    0    0  0.18310335832E+02  0.19001687279E+02  0.68145141442E+02  0.73075938721E+02  0.00000000000E+00 0.  1.
</event>
<event>
 7    1  0.6557591E-006  0.4549297E+02  0.7818608E-02  0.1568035E+00
          2   -1    0    0  502    0  0.00000000000E+00  0.00000000000E+00  0.10481381497E+03  0.10481381497E+03  0.00000000000E+00 0. -1.
          1   -1    0    0  501    0 -0.00000000000E+00 -0.00000000000E+00 -0.15901821187E+04  0.15901821187E+04  0.00000000000E+00 0. -1.
         25    2    1    2    0    0  0.22621477065E+01 -0.57926706824E+02 -0.11136877440E+04  0.11221789846E+04  0.12499864638E+03 0.  0.
          2    1    1    2  501    0  0.16934313259E+02  0.16722878883E+02 -0.46679359706E+03  0.46739992287E+03  0.00000000000E+00 0. -1.
          1    1    1    2  502    0 -0.19196460965E+02  0.41203827941E+02  0.95113037328E+02  0.10541702624E+03  0.00000000000E+00 0. -1.
         22    1    3    3    0    0  0.52689443180E+02 -0.47230188183E+02 -0.36990182547E+03  0.37660885356E+03  0.00000000000E+00 0. -1.
         22    1    3    3    0    0 -0.50427295474E+02 -0.10696518641E+02 -0.74378591854E+03  0.74557013101E+03  0.00000000000E+00 0. -1.
</event>
<event>
 7    1  0.6557591E-006  0.1317577E+03  0.7818608E-02  0.1257215E+00
          2   -1    0    0  502    0  0.00000000000E+00  0.00000000000E+00  0.90176696133E+02  0.90176696133E+02  0.00000000000E+00 0. -1.
          1   -1    0    0  501    0 -0.00000000000E+00 -0.00000000000E+00 -0.17139805517E+04  0.17139805517E+04  0.00000000000E+00 0. -1.
         25    2    1    2    0    0  0.50353626418E+02 -0.45988061672E+02 -0.93015915695E+03  0.94099513467E+03  0.12500158680E+03 0.  0.
          2    1    1    2  501    0 -0.32015505711E+02 -0.89357232916E+02 -0.71815299915E+03  0.72439867329E+03  0.00000000000E+00 0. -1.
          1    1    1    2  502    0 -0.18338120707E+02  0.13534529459E+03  0.24508300569E+02  0.13876343983E+03  0.00000000000E+00 0. -1.
         22    1    3    3    0    0 -0.34757286449E+02 -0.39672288461E+02 -0.47357169194E+03  0.47649984978E+03  0.00000000000E+00 0.  1.
         22    1    3    3    0    0  0.85110912867E+02 -0.63157732111E+01 -0.45658746501E+03  0.46449528489E+03  0.00000000000E+00 0.  1.
</event>
<event>
 7    1  0.6557591E-006  0.7304175E+02  0.7818608E-02  0.1481092E+00
          2   -1    0    0  502    0  0.00000000000E+00  0.00000000000E+00  0.11978672496E+03  0.11978672496E+03  0.00000000000E+00 0. -1.
          1   -1    0    0  501    0 -0.00000000000E+00 -0.00000000000E+00 -0.46016014898E+03  0.46016014898E+03  0.00000000000E+00 0. -1.
         25    2    1    2    0    0 -0.21146645324E+02  0.76766709157E+02  0.32331719710E+02  0.15169136058E+03  0.12499848212E+03 0.  0.
          2    1    1    2  501    0 -0.18278148917E+02 -0.19089161555E+02 -0.35526589703E+03  0.35624758863E+03  0.00000000000E+00 0. -1.
          1    1    1    2  502    0  0.39424794241E+02 -0.57677547602E+02 -0.17439246701E+02  0.72007924730E+02  0.00000000000E+00 0. -1.
         22    1    3    3    0    0  0.31516773960E+02  0.26843358757E+02  0.60955124787E+02  0.73684463681E+02  0.00000000000E+00 0. -1.
         22    1    3    3    0    0 -0.52663419284E+02  0.49923350400E+02 -0.28623405077E+02  0.78006896900E+02  0.00000000000E+00 0. -1.
</event>
<event>
 7    1  0.6557591E-006  0.1511042E+03  0.7818608E-02  0.1305715E+00
          2   -1    0    0  502    0  0.00000000000E+00  0.00000000000E+00  0.31347198752E+03  0.31347198752E+03  0.00000000000E+00 0. -1.
          1   -1    0    0  501    0 -0.00000000000E+00 -0.00000000000E+00 -0.16758010914E+04  0.16758010914E+04  0.00000000000E+00 0. -1.
         25    2    1    2    0    0 -0.92419636214E+02 -0.45054450184E+02 -0.61500639245E+02  0.17314115172E+03  0.12499694857E+03 0.  0.
          2    1    1    2  501    0  0.13429717731E+03  0.76247684167E+02 -0.15519621234E+04  0.15596268379E+04  0.00000000000E+00 0. -1.
          1    1    1    2  502    0 -0.41877541099E+02 -0.31193233982E+02  0.25113365872E+03  0.25650508930E+03  0.00000000000E+00 0. -1.
         22    1    3    3    0    0 -0.24251620878E+02 -0.15775938201E+02 -0.89334185100E+02  0.93902172333E+02  0.00000000000E+00 0. -1.
         22    1    3    3    0    0 -0.68168015337E+02 -0.29278511983E+02  0.27833545855E+02  0.79238979384E+02  0.00000000000E+00 0. -1.
</event>
<event>
 7    1  0.6557591E-006  0.5335150E+02  0.7818608E-02  0.1502034E+00
          2   -1    0    0  502    0  0.00000000000E+00  0.00000000000E+00  0.29961007825E+03  0.29961007825E+03  0.00000000000E+00 0. -1.
          1   -1    0    0  501    0 -0.00000000000E+00 -0.00000000000E+00 -0.36342082466E+03  0.36342082466E+03  0.00000000000E+00 0. -1.
         25    2    1    2    0    0 -0.10843618842E+02 -0.31048791411E+02  0.71868775603E+02  0.14788475281E+03  0.12499267055E+03 0.  0.
          2    1    1    2  501    0  0.42010183031E+02  0.33719633454E+02 -0.32186980077E+03  0.32634649961E+03  0.00000000000E+00 0. -1.
          1    1    1    2  502    0 -0.31166564189E+02 -0.26708420426E+01  0.18619027876E+03  0.18879965049E+03  0.00000000000E+00 0. -1.
         22    1    3    3    0    0  0.15503420645E+00 -0.73621699643E+02  0.73301444884E+02  0.10389071429E+03  0.00000000000E+00 0. -1.
         22    1    3    3    0    0 -0.10998653049E+02  0.42572908232E+02 -0.14326692811E+01  0.43994038522E+02  0.00000000000E+00 0. -1.
</event>
<event>
 7    1  0.6557591E-006  0.1257533E+03  0.7818608E-02  0.1272315E+00
          2   -1    0    0  502    0  0.00000000000E+00  0.00000000000E+00  0.14879105477E+03  0.14879105477E+03  0.00000000000E+00 0. -1.
          1   -1    0    0  501    0 -0.00000000000E+00 -0.00000000000E+00 -0.96990881296E+03  0.96990881296E+03  0.00000000000E+00 0. -1.
         25    2    1    2    0    0 -0.93670293205E+02  0.82137688308E+02 -0.23701718568E+03  0.29550722795E+03  0.12500660699E+03 0.  0.
          2    1    1    2  501    0 -0.35598144882E+02 -0.78103414355E+02 -0.66508325380E+03  0.67059906482E+03  0.00000000000E+00 0. -1.
          1    1    1    2  502    0  0.12926843809E+03 -0.40342739533E+01  0.80982681291E+02  0.15259357497E+03  0.00000000000E+00 0. -1.
         22    1    3    3    0    0 -0.11960154738E+03  0.42529106879E+02 -0.19207436182E+03  0.23022991885E+03  0.00000000000E+00 0. -1.
         22    1    3    3    0    0  0.25931254173E+02  0.39608581429E+02 -0.44942823861E+02  0.65277309093E+02  0.00000000000E+00 0. -1.
</event>
<event>
 7    1  0.6557591E-006  0.4860471E+02  0.7818608E-02  0.1541173E+00
          2   -1    0    0  502    0  0.00000000000E+00  0.00000000000E+00  0.56379704284E+03  0.56379704284E+03  0.00000000000E+00 0. -1.
          1   -1    0    0  501    0 -0.00000000000E+00 -0.00000000000E+00 -0.12753132355E+04  0.12753132355E+04  0.00000000000E+00 0. -1.
         25    2    1    2    0    0 -0.49867928019E+01 -0.50184243336E+02 -0.17428369451E+03  0.22032599848E+03  0.12500165220E+03 0.  0.
          2    1    1    2  501    0 -0.20745170763E+02  0.44091578662E+02 -0.10771339777E+04  0.10782356122E+04  0.00000000000E+00 0. -1.
          1    1    1    2  502    0  0.25731963564E+02  0.60926646733E+01  0.53990147955E+03  0.54054866769E+03  0.00000000000E+00 0. -1.
         22    1    3    3    0    0 -0.15295284998E+02  0.38434341912E+02 -0.31636632328E+02  0.52077066800E+02  0.00000000000E+00 0.  1.
         22    1    3    3    0    0  0.10308492196E+02 -0.88618585248E+02 -0.14264706219E+03  0.16824893168E+03  0.00000000000E+00 0.  1.
</event>
<event>
 7    1  0.6557591E-006  0.3926352E+02  0.7818608E-02  0.1526199E+00
          2   -1    0    0  502    0  0.00000000000E+00  0.00000000000E+00  0.14192879308E+04  0.14192879308E+04  0.00000000000E+00 0. -1.
          1   -1    0    0  501    0 -0.00000000000E+00 -0.00000000000E+00 -0.50730708804E+02  0.50730708804E+02  0.00000000000E+00 0. -1.
         25    2    1    2    0    0 -0.56893680273E+02 -0.35351514264E+01  0.62774154918E+03  0.64259936710E+03  0.12500042352E+03 0.  0.
          2    1    1    2  501    0  0.31995601030E+02 -0.22626609452E+02 -0.33927996792E+02  0.51834263830E+02  0.00000000000E+00 0. -1.
          1    1    1    2  502    0  0.24898079243E+02  0.26161760878E+02  0.77474366956E+03  0.77558500863E+03  0.00000000000E+00 0. -1.
         22    1    3    3    0    0 -0.54816203218E+02 -0.55312780459E+02  0.47413654065E+03  0.48048910394E+03  0.00000000000E+00 0.  1.
         22    1    3    3    0    0 -0.20774770546E+01  0.51777629032E+02  0.15360500853E+03  0.16211026317E+03  0.00000000000E+00 0.  1.
</event>
<event>
 7    1  0.6557591E-006  0.9657972E+02  0.7818608E-02  0.1291996E+00
          2   -1    0    0  502    0  0.00000000000E+00  0.00000000000E+00  0.26447002305E+03  0.26447002305E+03  0.00000000000E+00 0. -1.
          1   -1    0    0  501    0 -0.00000000000E+00 -0.00000000000E+00 -0.21325658368E+03  0.21325658368E+03  0.00000000000E+00 0. -1.
         25    2    1    2    0    0 -0.37970080199E+02 -0.22529714116E+02 -0.65147794274E+01  0.13272666282E+03  0.12499843865E+03 0.  0.
          2    1    1    2  501    0  0.42850650328E+02 -0.86553247841E+02 -0.10904180071E+03  0.14566316366E+03  0.00000000000E+00 0. -1.
          1    1    1    2  502    0 -0.48805701293E+01  0.10908296196E+03  0.16677001951E+03  0.19933678025E+03  0.00000000000E+00 0. -1.
         22    1    3    3    0    0 -0.11773297577E+02 -0.40052871523E+02  0.51746325711E+02  0.66487030898E+02  0.00000000000E+00 0.  1.
         22    1    3    3    0    0 -0.26196782622E+02  0.17523157407E+02 -0.58261105139E+02  0.66239631922E+02  0.00000000000E+00 0.  1.
</event>
<event>
 7    1  0.6557591E-006  0.4070844E+02  0.7818608E-02  0.1558129E+00
          2   -1    0    0  502    0  0.00000000000E+00  0.00000000000E+00  0.23033910170E+04  0.23033910170E+04  0.00000000000E+00 0. -1.
          1   -1    0    0  501    0 -0.00000000000E+00 -0.00000000000E+00 -0.11031635286E+04  0.11031635286E+04  0.00000000000E+00 0. -1.
         25    2    1    2    0    0 -0.13924321480E+02 -0.65140646235E+02  0.26200641955E+03  0.29782169474E+03  0.12495282089E+03 0.  0.
          2    1    1    2  501    0  0.13825037705E+02  0.24708596772E+02 -0.10848691964E+04  0.10852386004E+04  0.00000000000E+00 0. -1.
          1    1    1    2  502    0  0.99283775090E-01  0.40432049463E+02  0.20230902652E+04  0.20234942505E+04  0.00000000000E+00 0. -1.
         22    1    3    3    0    0  0.28318170736E+01  0.10734878247E+02 -0.99953287800E+01  0.14938654435E+02  0.00000000000E+00 0.  1.
         22    1    3    3    0    0 -0.16756138554E+02 -0.75875524482E+02  0.27200174833E+03  0.28288304030E+03  0.00000000000E+00 0.  1.
</event>
<event>
 7    1  0.6557591E-006  0.1843558E+03  0.7818608E-02  0.1255477E+00
          2   -1    0    0  502    0  0.00000000000E+00  0.00000000000E+00  0.29380982435E+04  0.29380982435E+04  0.00000000000E+00 0. -1.
          1   -1    0    0  501    0 -0.00000000000E+00 -0.00000000000E+00 -0.13168400035E+03  0.13168400035E+03  0.00000000000E+00 0. -1.
         25    2    1    2    0    0 -0.81310603231E+02 -0.11624894415E+03  0.33005101944E+03  0.38037269236E+03  0.12499791378E+03 0.  0.
          2    1    1    2  501    0 -0.68989189412E+02 -0.18320923442E+01 -0.91407596166E+02  0.11453476963E+03  0.00000000000E+00 0. -1.
          1    1    1    2  502    0  0.15029979264E+03  0.11808103650E+03  0.25677708198E+04  0.25748747818E+04  0.00000000000E+00 0. -1.
         22    1    3    3    0    0 -0.88787948378E+02 -0.13082701823E+03  0.32766267814E+03  0.36381566641E+03  0.00000000000E+00 0.  1.
         22    1    3    3    0    0  0.74773451468E+01  0.14578074083E+02  0.23883412981E+01  0.16557025958E+02  0.00000000000E+00 0.  1.
</event>
<event>
 7    1  0.6557591E-006  0.6261347E+02  0.7818608E-02  0.1468514E+00
          2   -1    0    0  502    0  0.00000000000E+00  0.00000000000E+00  0.11610166520E+04  0.11610166520E+04  0.00000000000E+00 0. -1.
          1   -1    0    0  501    0 -0.00000000000E+00 -0.00000000000E+00 -0.14203640070E+04  0.14203640070E+04  0.00000000000E+00 0. -1.
         25    2    1    2    0    0  0.10977364648E+02 -0.39386705047E+02 -0.37899482554E+02  0.13686950439E+03  0.12500030154E+03 0.  0.
          2    1    1    2  501    0 -0.44245152300E+02  0.44872296996E+02 -0.13319787179E+04  0.13334685829E+04  0.00000000000E+00 0. -1.
          1    1    1    2  502    0  0.33267787652E+02 -0.54855919490E+01  0.11105308454E+04  0.11110425717E+04  0.00000000000E+00 0. -1.
         22    1    3    3    0    0  0.48015324269E+02  0.13625925289E+02 -0.50479053094E+02  0.70987829984E+02  0.00000000000E+00 0. -1.
         22    1    3    3    0    0 -0.37037959621E+02 -0.53012630336E+02  0.12579570539E+02  0.65881674409E+02  0.00000000000E+00 0. -1.
</event>
<event>
 7    1  0.6557591E-006  0.1388593E+03  0.7818608E-02  0.1271931E+00
          2   -1    0    0  502    0  0.00000000000E+00  0.00000000000E+00  0.11872893074E+04  0.11872893074E+04  0.00000000000E+00 0. -1.
          1   -1    0    0  501    0 -0.00000000000E+00 -0.00000000000E+00 -0.39058686660E+03  0.39058686660E+03  0.00000000000E+00 0. -1.
         25    2    1    2    0    0 -0.86907347936E+02 -0.19113825366E+03  0.15476747817E+03  0.28924922298E+03  0.12500168621E+03 0.  0.
          2    1    1    2  501    0  0.18875031370E+02  0.75703311391E+02 -0.31389755908E+03  0.32344850558E+03  0.00000000000E+00 0. -1.
          1    1    1    2  502    0  0.68032316566E+02  0.11543494227E+03  0.95583252171E+03  0.96517844545E+03  0.00000000000E+00 0. -1.
         22    1    3    3    0    0 -0.11466696331E+03 -0.15271398367E+03  0.95988912167E+02  0.21373802784E+03  0.00000000000E+00 0. -1.
         22    1    3    3    0    0  0.27759615374E+02 -0.38424269983E+02  0.58778566007E+02  0.75511195139E+02  0.00000000000E+00 0. -1.
</event>
<event>
 7    1  0.6557591E-006  0.1255573E+03  0.7818608E-02  0.1269740E+00
          2   -1    0    0  502    0  0.00000000000E+00  0.00000000000E+00  0.10347459804E+04  0.10347459804E+04  0.00000000000E+00 0. -1.
          1   -1    0    0  501    0 -0.00000000000E+00 -0.00000000000E+00 -0.10388568770E+04  0.10388568770E+04  0.00000000000E+00 0. -1.
         25    2    1    2    0    0  0.13749830438E+03  0.13044607717E+03  0.12544016819E+02  0.22739426318E+03  0.12501534230E+03 0.  0.
          2    1    1    2  501    0 -0.86276295768E+02 -0.17986495096E+02 -0.92515466772E+03  0.92934292510E+03  0.00000000000E+00 0. -1.
          1    1    1    2  502    0 -0.51222008613E+02 -0.11245958208E+03  0.90849975430E+03  0.91686566918E+03  0.00000000000E+00 0. -1.
         22    1    3    3    0    0  0.97268998221E+02  0.14636320399E+03  0.34167693609E+02  0.17902758665E+03  0.00000000000E+00 0.  1.
         22    1    3    3    0    0  0.40229306160E+02 -0.15917126811E+02 -0.21623676791E+02  0.48366676524E+02  0.00000000000E+00 0.  1.
</event>
<event>
 7    1  0.6557591E-006  0.9187778E+02  0.7818608E-02  0.1314671E+00
          2   -1    0    0  502    0  0.00000000000E+00  0.00000000000E+00  0.10730110925E+04  0.10730110925E+04  0.00000000000E+00 0. -1.
          1   -1    0    0  501    0 -0.00000000000E+00 -0.00000000000E+00 -0.15514926258E+03  0.15514926258E+03  0.00000000000E+00 0. -1.
         25    2    1    2    0    0 -0.84714296556E+02 -0.16401807209E+02  0.25688568959E+03  0.29843061850E+03  0.12500018087E+03 0.  0.
          2    1    1    2  501    0  0.71151317050E+02 -0.61606058961E+02 -0.11563384434E+03  0.14909393809E+03  0.00000000000E+00 0. -1.
          1    1    1    2  502    0  0.13562979506E+02  0.78007866170E+02  0.77660998467E+03  0.78063579849E+03  0.00000000000E+00 0. -1.
         22    1    3    3    0    0 -0.46444432118E+02  0.21141186398E+02  0.18798225370E+02  0.54382058753E+02  0.00000000000E+00 0. -1.
         22    1    3    3    0    0 -0.38269864438E+02 -0.37542993607E+02  0.23808746423E+03  0.24404855975E+03  0.00000000000E+00 0. -1.
</event>
<event>
 7    1  0.6557591E-006  0.2088101E+03  0.7818608E-02  0.1289827E+00
          2   -1    0    0  502    0  0.00000000000E+00  0.00000000000E+00  0.23210284918E+04  0.23210284918E+04  0.00000000000E+00 0. -1.
          1   -1    0    0  501    0 -0.00000000000E+00 -0.00000000000E+00 -0.67327966963E+03  0.67327966963E+03  0.00000000000E+00 0. -1.
         25    2    1    2    0    0  0.16685371347E+03 -0.69797145817E+02  0.37926231801E+03  0.43837942939E+03  0.12499925994E+03 0.  0.
          2    1    1    2  501    0 -0.17759578515E+03  0.11222871033E+03 -0.62632085432E+03  0.66061589360E+03  0.00000000000E+00 0. -1.
          1    1    1    2  502    0  0.10742071680E+02 -0.42431564515E+02  0.18948073585E+04  0.18953128384E+04  0.00000000000E+00 0. -1.
         22    1    3    3    0    0  0.27660416355E+02  0.22090504857E+02  0.15444127985E+03  0.15844619894E+03  0.00000000000E+00 0.  1.
         22    1    3    3    0    0  0.13919329712E+03 -0.91887650674E+02  0.22482103817E+03  0.27993323045E+03  0.00000000000E+00 0.  1.
</event>
<event>
 7    1  0.6557591E-006  0.9782140E+02  0.7818608E-02  0.1306800E+00
          2   -1    0    0  502    0  0.00000000000E+00  0.00000000000E+00  0.27828679141E+04  0.27828679141E+04  0.00000000000E+00 0. -1.
          1   -1    0    0  501    0 -0.00000000000E+00 -0.00000000000E+00 -0.21337693720E+03  0.21337693720E+03  0.00000000000E+00 0. -1.
         25    2    1    2    0    0  0.14145404029E+03  0.10312886523E+03  0.40148299851E+03  0.45547523034E+03  0.12499711598E+03 0.  0.
          2    1    1    2  501    0 -0.73534671279E+02 -0.61109878609E+02 -0.17339277638E+03  0.19800712119E+03  0.00000000000E+00 0. -1.
          1    1    1    2  502    0 -0.67919369012E+02 -0.42018986620E+02  0.23414007547E+04  0.23427624998E+04  0.00000000000E+00 0. -1.
         22    1    3    3    0    0  0.30346746846E+02  0.83026450333E+02  0.25904677995E+03  0.27371435969E+03  0.00000000000E+00 0. -1.
         22    1    3    3    0    0  0.11110729344E+03  0.20102414896E+02  0.14243621856E+03  0.18176087065E+03  0.00000000000E+00 0. -1.
</event>
<event>
 7    1  0.6557591E-006  0.7823540E+02  0.7818608E-02  0.1424078E+00
          2   -1    0    0  502    0  0.00000000000E+00  0.00000000000E+00  0.29014077399E+04  0.29014077399E+04  0.00000000000E+00 0. -1.
          1   -1    0    0  501    0 -0.00000000000E+00 -0.00000000000E+00 -0.70513046058E+02  0.70513046058E+02  0.00000000000E+00 0. -1.
         25    2    1    2    0    0 -0.87429987475E+02  0.47880917991E+02  0.26009772370E+03  0.30530701838E+03  0.12499985834E+03 0.  0.
          2    1    1    2  501    0  0.75451389933E+02 -0.12341685847E+02 -0.17183675564E+02  0.78361394566E+02  0.00000000000E+00 0. -1.
          1    1    1    2  502    0  0.11978597542E+02 -0.35539232143E+02  0.25879806457E+04  0.25882523730E+04  0.00000000000E+00 0. -1.
         22    1    3    3    0    0 -0.52486021347E+01 -0.27040916750E+02  0.63614058479E+01  0.28270594041E+02  0.00000000000E+00 0. -1.
         22    1    3    3    0    0 -0.82181385340E+02  0.74921834741E+02  0.25373631785E+03  0.27703642434E+03  0.00000000000E+00 0. -1.
</event>
<event>
 7    1  0.6557591E-006  0.4692007E+02  0.7818608E-02  0.1507130E+00
          2   -1    0    0  502    0  0.00000000000E+00  0.00000000000E+00  0.24623362983E+02  0.24623362983E+02  0.00000000000E+00 0. -1.
          1   -1    0    0  501    0 -0.00000000000E+00 -0.00000000000E+00 -0.25330703357E+04  0.25330703357E+04  0.00000000000E+00 0. -1.
         25    2    1    2    0    0  0.26022582438E+02  0.46847776502E+02 -0.28139352402E+03  0.31253404578E+03  0.12499330163E+03 0.  0.
          2    1    1    2  501    0 -0.43674043874E+02 -0.17377530887E+02 -0.22023399480E+04  0.22028414939E+04  0.00000000000E+00 0. -1.
          1    1    1    2  502    0  0.17651461437E+02 -0.29470245615E+02 -0.24713500776E+02  0.42318159082E+02  0.00000000000E+00 0. -1.
         22    1    3    3    0    0  0.14736626407E+02  0.89902811213E+02 -0.19980041906E+03  0.21959028001E+03  0.00000000000E+00 0.  1.
         22    1    3    3    0    0  0.11285956031E+02 -0.43055034711E+02 -0.81593104968E+02  0.92943765771E+02  0.00000000000E+00 0.  1.
</event>
<event>
 7    1  0.6557591E-006  0.9677582E+02  0.7818608E-02  0.1296350E+00
          2   -1    0    0  502    0  0.00000000000E+00  0.00000000000E+00  0.10187286067E+04  0.10187286067E+04  0.00000000000E+00 0. -1.
          1   -1    0    0  501    0 -0.00000000000E+00 -0.00000000000E+00 -0.54446350605E+03  0.54446350605E+03  0.00000000000E+00 0. -1.
         25    2    1    2    0    0 -0.10773055882E+03 -0.11143813779E+03  0.39824098671E+03  0.44524703317E+03  0.12499882077E+03 0.  0.
          2    1    1    2  501    0  0.93433969709E+02  0.23723872294E+02 -0.51313976372E+03  0.52211602726E+03  0.00000000000E+00 0. -1.
          1    1    1    2  502    0  0.14296589111E+02  0.87714265494E+02  0.58916387771E+03  0.59582905235E+03  0.00000000000E+00 0. -1.
         22    1    3    3    0    0 -0.12544240319E+03 -0.11620291883E+03  0.30001182318E+03  0.34532015422E+03  0.00000000000E+00 0.  1.
         22    1    3    3    0    0  0.17711844367E+02  0.47647810440E+01  0.98229163528E+02  0.99926878950E+02  0.00000000000E+00 0.  1.
</event>
<event>
 7    1  0.6557591E-006  0.1074460E+03  0.7818608E-02  0.1320207E+00
          2   -1    0    0  502    0  0.00000000000E+00  0.00000000000E+00  0.79855868439E+03  0.79855868439E+03  0.00000000000E+00 0. -1.
          1   -1    0    0  501    0 -0.00000000000E+00 -0.00000000000E+00 -0.85410658340E+02  0.85410658340E+02  0.00000000000E+00 0. -1.
         25    2    1    2    0    0  0.69603146891E+02 -0.11679397539E+03  0.18514073815E+03  0.26150865485E+03  0.12499701155E+03 0.  0.
          2    1    1    2  501    0  0.19987726849E+02  0.61246976945E+02 -0.17581422512E+02  0.66781792631E+02  0.00000000000E+00 0. -1.
          1    1    1    2  502    0 -0.89590873740E+02  0.55546998443E+02  0.54558871041E+03  0.55567889525E+03  0.00000000000E+00 0. -1.
         22    1    3    3    0    0 -0.34607671789E+02 -0.11474778422E+02  0.33829608830E+02  0.49737349347E+02  0.00000000000E+00 0. -1.
         22    1    3    3    0    0  0.10421081868E+03 -0.10531919697E+03  0.15131112932E+03  0.21177130550E+03  0.00000000000E+00 0. -1.
</event>
<event>
 7    1  0.6557591E-006  0.4510806E+02  0.7818608E-02  0.1537500E+00
          2   -1    0    0  502    0  0.00000000000E+00  0.00000000000E+00  0.11962401874E+04  0.11962401874E+04  0.00000000000E+00 0. -1.
          1   -1    0    0  501    0 -0.00000000000E+00 -0.00000000000E+00 -0.65171487374E+03  0.65171487374E+03  0.00000000000E+00 0. -1.
         25    2    1    2    0    0  0.74377867169E+01 -0.49688176944E+02  0.31928699034E+03  0.34654588657E+03  0.12500253478E+03 0.  0.
          2    1    1    2  501    0 -0.27692754458E+02  0.92073433178E+01 -0.63715787068E+03  0.63782585083E+03  0.00000000000E+00 0. -1.
          1    1    1    2  502    0  0.20254967741E+02  0.40480833626E+02  0.86239619401E+03  0.86358332375E+03  0.00000000000E+00 0. -1.
         22    1    3    3    0    0  0.26480737367E+02 -0.87341168994E+02  0.19523518679E+03  0.21551447147E+03  0.00000000000E+00 0. -1.
         22    1    3    3    0    0 -0.19042950650E+02  0.37652992050E+02  0.12405180355E+03  0.13103141510E+03  0.00000000000E+00 0. -1.
</event>
<event>
 7    1  0.6557591E-006  0.1088090E+03  0.7818608E-02  0.1344822E+00
          2   -1    0    0  502    0  0.00000000000E+00  0.00000000000E+00  0.14322949049E+04  0.14322949049E+04  0.00000000000E+00 0. -1.
          1   -1    0    0  501    0 -0.00000000000E+00 -0.00000000000E+00 -0.39459303198E+04  0.39459303198E+04  0.00000000000E+00 0. -1.
         25    2    1    2    0    0  0.94424629963E+02  0.95009232510E+02 -0.89484918220E+02  0.20390057868E+03  0.12500052156E+03 0.  0.
          2    1    1    2  501    0 -0.99291332090E+02 -0.43966067305E+02 -0.37979832869E+04  0.37995353441E+04  0.00000000000E+00 0. -1.
          1    1    1    2  502    0  0.48667021263E+01 -0.51043165204E+02  0.13738327902E+04  0.13747893020E+04  0.00000000000E+00 0. -1.
         22    1    3    3    0    0 -0.28759317338E+02  0.14371198117E+02 -0.33373357833E+02  0.46340162733E+02  0.00000000000E+00 0. -1.
         22    1    3    3    0    0  0.12318394730E+03  0.80638034392E+02 -0.56111560387E+02  0.15756041594E+03  0.00000000000E+00 0. -1.
</event>
<event>
 7    1  0.6557591E-006  0.1264934E+03  0.7818608E-02  0.1269223E+00
          2   -1    0    0  502    0  0.00000000000E+00  0.00000000000E+00  0.18012159837E+04  0.18012159837E+04  0.00000000000E+00 0. -1.
          1   -1    0    0  501    0 -0.00000000000E+00 -0.00000000000E+00 -0.35466887075E+03  0.35466887075E+03  0.00000000000E+00 0. -1.
         25    2    1    2    0    0 -0.62610673498E+02 -0.19865809926E+03  0.12378116309E+03  0.27264294037E+03  0.12500903871E+03 0.  0.
          2    1    1    2  501    0  0.43946570674E+02  0.76146156561E+02 -0.27087721219E+03  0.28478764425E+03  0.00000000000E+00 0. -1.
          1    1    1    2  502    0  0.18664102824E+02  0.12251194270E+03  0.15936431621E+04  0.15984542698E+04  0.00000000000E+00 0. -1.
         22    1    3    3    0    0 -0.69246931052E+02 -0.93587087596E+02  0.88133767618E+01  0.11675339839E+03  0.00000000000E+00 0. -1.
         22    1    3    3    0    0  0.66362575537E+01 -0.10507101166E+03  0.11496778633E+03  0.15588954198E+03  0.00000000000E+00 0. -1.
</event>
<event>
 7    1  0.6557591E-006  0.1027605E+03  0.7818608E-02  0.1343344E+00
          2   -1    0    0  502    0  0.00000000000E+00  0.00000000000E+00  0.92715031378E+03  0.92715031378E+03  0.00000000000E+00 0. -1.
          1   -1    0    0  501    0 -0.00000000000E+00 -0.00000000000E+00 -0.25351117873E+03  0.25351117873E+03  0.00000000000E+00 0. -1.
         25    2    1    2    0    0  0.10345661841E+02  0.78108510749E+02  0.13904090056E+03  0.20289347600E+03  0.12500167362E+03 0.  0.
          2    1    1    2  501    0 -0.65139490364E+02 -0.82725067623E+02 -0.20800241280E+03  0.23313428265E+03  0.00000000000E+00 0. -1.
          1    1    1    2  502    0  0.54793828522E+02  0.46165568748E+01  0.74260064729E+03  0.74463373386E+03  0.00000000000E+00 0. -1.
         22    1    3    3    0    0 -0.50691937062E+02  0.40922232933E+02  0.28161655665E+02  0.70974505853E+02  0.00000000000E+00 0. -1.
         22    1    3    3    0    0  0.61037598903E+02  0.37186277815E+02  0.11087924489E+03  0.13191897015E+03  0.00000000000E+00 0. -1.
</event>
<event>
 7    1  0.6557591E-006  0.3869408E+02  0.7818608E-02  0.1594048E+00
          2   -1    0    0  502    0  0.00000000000E+00  0.00000000000E+00  0.78304581278E+03  0.78304581278E+03  0.00000000000E+00 0. -1.
          1   -1    0    0  501    0 -0.00000000000E+00 -0.00000000000E+00 -0.16056068821E+02  0.16056068821E+02  0.00000000000E+00 0. -1.
         25    2    1    2    0    0  0.16392075457E+01  0.59544354618E+02  0.39449876206E+03  0.41809431403E+03  0.12500145994E+03 0.  0.
          2    1    1    2  501    0  0.52391188143E+01 -0.23251763594E+02  0.40690650079E+02  0.47157415961E+02  0.00000000000E+00 0. -1.
          1    1    1    2  502    0 -0.68783263600E+01 -0.36292591023E+02  0.33180033181E+03  0.33385015161E+03  0.00000000000E+00 0. -1.
         22    1    3    3    0    0 -0.82124502193E+01  0.93147858867E+02  0.34508933618E+03  0.35753407935E+03  0.00000000000E+00 0.  1.
         22    1    3    3    0    0  0.98516577650E+01 -0.33603504249E+02  0.49409425877E+02  0.60560234676E+02  0.00000000000E+00 0.  1.
</event>
<event>
 7    1  0.6557591E-006  0.1330805E+03  0.7818608E-02  0.1323702E+00
          2   -1    0    0  502    0  0.00000000000E+00  0.00000000000E+00  0.38687618919E+04  0.38687618919E+04  0.00000000000E+00 0. -1.
          1   -1    0    0  501    0 -0.00000000000E+00 -0.00000000000E+00 -0.39934121684E+03  0.39934121684E+03  0.00000000000E+00 0. -1.
         25    2    1    2    0    0  0.16126639384E+03  0.71114433271E+02  0.57738180794E+02  0.22365158936E+03  0.12498889350E+03 0.  0.
          2    1    1    2  501    0 -0.12351719597E+03 -0.37687676249E+02 -0.30302860781E+03  0.32939823283E+03  0.00000000000E+00 0. -1.
          1    1    1    2  502    0 -0.37749197877E+02 -0.33426757021E+02  0.37147111021E+04  0.37150532865E+04  0.00000000000E+00 0. -1.
         22    1    3    3    0    0  0.78527887007E+02  0.10886031912E+02 -0.33955023834E+02  0.86244294722E+02  0.00000000000E+00 0.  1.
         22    1    3    3    0    0  0.82738506835E+02  0.60228401359E+02  0.91693204627E+02  0.13740729463E+03  0.00000000000E+00 0.  1.
</event>
<event>
 7    1  0.6557591E-006  0.5824311E+02  0.7818608E-02  0.1440865E+00
          2   -1    0    0  502    0  0.00000000000E+00  0.00000000000E+00  0.94123231295E+02  0.94123231295E+02  0.00000000000E+00 0. -1.
          1   -1    0    0  501    0 -0.00000000000E+00 -0.00000000000E+00 -0.19158780797E+04  0.19158780797E+04  0.00000000000E+00 0. -1.
         25    2    1    2    0    0  0.30410941173E+02  0.90074915060E+02 -0.50856205889E+03  0.53225816799E+03  0.12500029593E+03 0.  0.
          2    1    1    2  501    0 -0.33339097561E+02 -0.45794624692E+02 -0.13888644162E+04  0.13900190681E+04  0.00000000000E+00 0. -1.
          1    1    1    2  502    0  0.29281563881E+01 -0.44280290368E+02  0.75671626744E+02  0.87724074854E+02  0.00000000000E+00 0. -1.
         22    1    3    3    0    0  0.68328114890E+02  0.93036306198E+02 -0.32757275542E+03  0.34731598818E+03  0.00000000000E+00 0. -1.
         22    1    3    3    0    0 -0.37917173717E+02 -0.29613911381E+01 -0.18098930348E+03  0.18494217981E+03  0.00000000000E+00 0. -1.
</event>
<event>
 7    1  0.6557591E-006  0.1959021E+03  0.7818608E-02  0.1226901E+00
          2   -1    0    0  502    0  0.00000000000E+00  0.00000000000E+00  0.94398339074E+03  0.94398339074E+03  0.00000000000E+00 0. -1.
          1   -1    0    0  501    0 -0.00000000000E+00 -0.00000000000E+00 -0.63772849075E+03  0.63772849075E+03  0.00000000000E+00 0. -1.
         25    2    1    2    0    0  0.79679846731E+02  0.10203730565E+03  0.12464221460E+02  0.18039061149E+03  0.12499970471E+03 0.  0.
          2    1    1    2  501    0 -0.15881790231E+03 -0.13760945842E+03 -0.53147278893E+03  0.57150924272E+03  0.00000000000E+00 0. -1.
          1    1    1    2  502    0  0.79138055577E+02  0.35572152766E+02  0.82526346746E+03  0.82981202728E+03  0.00000000000E+00 0. -1.
         22    1    3    3    0    0  0.44277298658E+01  0.53524238266E+02 -0.48261596743E+02  0.72205474819E+02  0.00000000000E+00 0.  1.
         22    1    3    3    0    0  0.75252116865E+02  0.48513067388E+02  0.60725818203E+02  0.10818513667E+03  0.00000000000E+00 0.  1.
</event>
<event>
 7    1  0.6557591E-006  0.1341626E+03  0.7818608E-02  0.1324989E+00
          2   -1    0    0  502    0  0.00000000000E+00  0.00000000000E+00  0.10592828877E+04  0.10592828877E+04  0.00000000000E+00 0. -1.
          1   -1    0    0  501    0 -0.00000000000E+00 -0.00000000000E+00 -0.11948842751E+04  0.11948842751E+04  0.00000000000E+00 0. -1.
         25    2    1    2    0    0  0.13191630895E+01  0.16996758527E+03 -0.18431392943E+03  0.28015568116E+03  0.12499944348E+03 0.  0.
          2    1    1    2  501    0 -0.27718694963E+02 -0.12815764679E+03 -0.95757464084E+03  0.96651016615E+03  0.00000000000E+00 0. -1.
          1    1    1    2  502    0  0.26399531874E+02 -0.41809938480E+02  0.10062871828E+04  0.10075013154E+04  0.00000000000E+00 0. -1.
         22    1    3    3    0    0  0.38712701682E+02  0.15230068472E+02 -0.78992201568E+02  0.89277075253E+02  0.00000000000E+00 0. -1.
         22    1    3    3    0    0 -0.37393538592E+02  0.15473751680E+03 -0.10532172786E+03  0.19087860591E+03  0.00000000000E+00 0. -1.
</event>
<event>
 7    1  0.6557591E-006  0.9333091E+02  0.7818608E-02  0.1349729E+00
          2   -1    0    0  502    0  0.00000000000E+00  0.00000000000E+00  0.52759905592E+03  0.52759905592E+03  0.00000000000E+00 0. -1.
          1   -1    0    0  501    0 -0.00000000000E+00 -0.00000000000E+00 -0.12783065276E+04  0.12783065276E+04  0.00000000000E+00 0. -1.
         25    2    1    2    0    0 -0.10641623009E+03  0.56238573200E+01 -0.49901824137E+02  0.17167269289E+03  0.12500111853E+03 0.  0.
          2    1    1    2  501    0  0.30334915572E+02  0.48632149645E+02 -0.11621284387E+04  0.11635410612E+04  0.00000000000E+00 0. -1.
          1    1    1    2  502    0  0.76081314523E+02 -0.54256006965E+02  0.46132279112E+03  0.47069182946E+03  0.00000000000E+00 0. -1.
         22    1    3    3    0    0 -0.38760301365E+02  0.43387429855E+02 -0.70591013338E+02  0.91476342272E+02  0.00000000000E+00 0. -1.
         22    1    3    3    0    0 -0.67655928730E+02 -0.37763572535E+02  0.20689189201E+02  0.80196350620E+02  0.00000000000E+00 0. -1.
</event>
<event>
 7    1  0.6557591E-006  0.9382324E+02  0.7818608E-02  0.1424526E+00
          2   -1    0    0  502    0  0.00000000000E+00  0.00000000000E+00  0.90884557902E+03  0.90884557902E+03  0.00000000000E+00 0. -1.
          1   -1    0    0  501    0 -0.00000000000E+00 -0.00000000000E+00 -0.29499415907E+03  0.29499415907E+03  0.00000000000E+00 0. -1.
         25    2    1    2    0    0 -0.49816804845E+02  0.10368625159E+03  0.95756024622E+02  0.19500651212E+03  0.12500308278E+03 0.  0.
          2    1    1    2  501    0  0.56731749351E+02 -0.73297207231E+02 -0.23628255057E+03  0.25381177214E+03  0.00000000000E+00 0. -1.
          1    1    1    2  502    0 -0.69149445067E+01 -0.30389044362E+02  0.75437794590E+03  0.75502145383E+03  0.00000000000E+00 0. -1.
         22    1    3    3    0    0  0.90893160345E+01  0.82301517604E+02  0.10273731308E+03  0.13195116886E+03  0.00000000000E+00 0.  1.
         22    1    3    3    0    0 -0.58906120879E+02  0.21384733989E+02 -0.69812884571E+01  0.63055343258E+02  0.00000000000E+00 0.  1.
</event>
<event>
 7    1  0.1178345E-005  0.8628802E+02  0.7818608E-02  0.1336409E+00
          2   -1    0    0  502    0  0.00000000000E+00  0.00000000000E+00  0.24655620658E+04  0.24655620658E+04  0.00000000000E+00 0. -1.
          1   -1    0    0  501    0 -0.00000000000E+00 -0.00000000000E+00 -0.19420745584E+04  0.19420745584E+04  0.00000000000E+00 0. -1.
         25    2    1    2    0    0 -0.21914967619E+02  0.85059131366E+02 -0.64447105529E+03  0.66233164732E+03  0.12499979319E+03 0.  0.
          2    1    1    2  501    0  0.68435680029E+02 -0.12349158030E+02 -0.12869759561E+04  0.12888533879E+04  0.00000000000E+00 0. -1.
          1    1    1    2  502    0 -0.46520712409E+02 -0.72709973336E+02  0.24549345188E+04  0.24564515889E+04  0.00000000000E+00 0. -1.
         22    1    3    3    0    0  0.20186092725E+02 -0.21577162067E+02 -0.61946367025E+02  0.68632387763E+02  0.00000000000E+00 0. -1.
         22    1    3    3    0    0 -0.42101060344E+02  0.10663629343E+03 -0.58252468827E+03  0.59369925956E+03  0.00000000000E+00 0. -1.
</event>
<event>
 7    1  0.6557591E-006  0.1222591E+03  0.7818608E-02  0.1328844E+00
          2   -1    0    0  502    0  0.00000000000E+00  0.00000000000E+00  0.10980878602E+04  0.10980878602E+04  0.00000000000E+00 0. -1.
          1   -1    0    0  501    0 -0.00000000000E+00 -0.00000000000E+00 -0.12043299633E+04  0.12043299633E+04  0.00000000000E+00 0. -1.
         25    2    1    2    0    0  0.11355703996E+03 -0.45841563016E+02  0.22090765633E+03  0.28181896938E+03  0.12500035463E+03 0.  0.
          2    1    1    2  501    0  0.99885697745E+01  0.51483532979E+02 -0.11687671333E+04  0.11699431343E+04  0.00000000000E+00 0. -1.
          1    1    1    2  502    0 -0.12354560974E+03 -0.56419699632E+01  0.84161737393E+03  0.85065571979E+03  0.00000000000E+00 0. -1.
         22    1    3    3    0    0  0.11090084055E+03 -0.32336059324E+02  0.23516225461E+03  0.26200363196E+03  0.00000000000E+00 0. -1.
         22    1    3    3    0    0  0.26561994128E+01 -0.13505503692E+02 -0.14254598279E+02  0.19815337428E+02  0.00000000000E+00 0. -1.
</event>
<event>
 7    1  0.6557591E-006  0.2154951E+03  0.7818608E-02  0.1367465E+00
          2   -1    0    0  502    0  0.00000000000E+00  0.00000000000E+00  0.78325487602E+03  0.78325487602E+03  0.00000000000E+00 0. -1.
          1   -1    0    0  501    0 -0.00000000000E+00 -0.00000000000E+00 -0.36602972089E+03  0.36602972089E+03  0.00000000000E+00 0. -1.
         25    2    1    2    0    0  0.15532677889E+03  0.13004064711E+03  0.15521512422E+03  0.28417056098E+03  0.12499677917E+03 0.  0.
          2    1    1    2  501    0 -0.15672132049E+03 -0.15137506153E+03 -0.26194581888E+03  0.34072216479E+03  0.00000000000E+00 0. -1.
          1    1    1    2  502    0  0.13945416078E+01  0.21334414419E+02  0.52395584979E+03  0.52439187114E+03  0.00000000000E+00 0. -1.
         22    1    3    3    0    0  0.51560395189E+02 -0.11814633057E+02  0.72961188166E+02  0.90118782087E+02  0.00000000000E+00 0.  1.
         22    1    3    3    0    0  0.10376638370E+03  0.14185528016E+03  0.82253936053E+02  0.19405177890E+03  0.00000000000E+00 0.  1.
</event>
<event>
 7    1  0.6557591E-006  0.6705451E+02  0.7818608E-02  0.1452070E+00
          2   -1    0    0  502    0  0.00000000000E+00  0.00000000000E+00  0.11479168325E+04  0.11479168325E+04  0.00000000000E+00 0. -1.
          1   -1    0    0  501    0 -0.00000000000E+00 -0.00000000000E+00 -0.34874780573E+03  0.34874780573E+03  0.00000000000E+00 0. -1.
         25    2    1    2    0    0  0.30130274246E+02  0.23954198986E+02  0.67826973529E+01  0.13096855657E+03  0.12500048301E+03 0.  0.
          2    1    1    2  501    0 -0.65513756652E+02 -0.21382152516E+02 -0.28221595731E+03  0.29050833949E+03  0.00000000000E+00 0. -1.
          1    1    1    2  502    0  0.35383482407E+02 -0.25720464706E+01  0.10746022867E+04  0.10751877422E+04  0.00000000000E+00 0. -1.
         22    1    3    3    0    0 -0.30450897883E+02  0.43433241453E+02 -0.26344890632E+02  0.59226319381E+02  0.00000000000E+00 0. -1.
         22    1    3    3    0    0  0.60581172129E+02 -0.19479042467E+02  0.33127587985E+02  0.71742237194E+02  0.00000000000E+00 0. -1.
</event>
<event>
 7    1  0.6557591E-006  0.1465397E+03  0.7818608E-02  0.1372233E+00
          2   -1    0    0  502    0  0.00000000000E+00  0.00000000000E+00  0.73945279471E+03  0.73945279471E+03  0.00000000000E+00 0. -1.
          1   -1    0    0  501    0 -0.00000000000E+00 -0.00000000000E+00 -0.10918833147E+04  0.10918833147E+04  0.00000000000E+00 0. -1.
         25    2    1    2    0    0 -0.99169092052E+02 -0.76504687649E+02 -0.15814574917E+03  0.23732428669E+03  0.12500105208E+03 0.  0.
          2    1    1    2  501    0  0.10636669661E+03  0.10585859267E+03 -0.88752024442E+03  0.90011782564E+03  0.00000000000E+00 0. -1.
          1    1    1    2  502    0 -0.71976045606E+01 -0.29353905020E+02  0.69323547362E+03  0.69389399705E+03  0.00000000000E+00 0. -1.
         22    1    3    3    0    0 -0.10697484971E+03 -0.10274769814E+03 -0.12246659713E+03  0.19235065728E+03  0.00000000000E+00 0. -1.
         22    1    3    3    0    0  0.78057576579E+01  0.26243010486E+02 -0.35679152043E+02  0.44973629412E+02  0.00000000000E+00 0. -1.
</event>
<event>
 7    1  0.6557591E-006  0.4475153E+02  0.7818608E-02  0.1531714E+00
          2   -1    0    0  502    0  0.00000000000E+00  0.00000000000E+00  0.66225451910E+02  0.66225451910E+02  0.00000000000E+00 0. -1.
          1   -1    0    0  501    0 -0.00000000000E+00 -0.00000000000E+00 -0.45409113396E+03  0.45409113396E+03  0.00000000000E+00 0. -1.
         25    2    1    2    0    0 -0.51072480067E+02 -0.30068759601E+02 -0.10827661768E+03  0.17567420430E+03  0.12500028638E+03 0.  0.
          2    1    1    2  501    0  0.44417143695E+02  0.24928624129E+00 -0.30294545523E+03  0.30618441116E+03  0.00000000000E+00 0. -1.
          1    1    1    2  502    0  0.66553363715E+01  0.29819473360E+02  0.23356390862E+02  0.38457970407E+02  0.00000000000E+00 0. -1.
         22    1    3    3    0    0 -0.94182430175E+01 -0.50063722658E+02  0.70581375057E+01  0.51428561452E+02  0.00000000000E+00 0. -1.
         22    1    3    3    0    0 -0.41654237049E+02  0.19994963057E+02 -0.11533475519E+03  0.12424564285E+03  0.00000000000E+00 0. -1.
</event>
<event>
 7    1  0.6557591E-006  0.9408123E+02  0.7818608E-02  0.1397303E+00
          2   -1    0    0  502    0  0.00000000000E+00  0.00000000000E+00  0.29932263042E+03  0.29932263042E+03  0.00000000000E+00 0. -1.
          1   -1    0    0  501    0 -0.00000000000E+00 -0.00000000000E+00 -0.10602576922E+04  0.10602576922E+04  0.00000000000E+00 0. -1.
         25    2    1    2    0    0 -0.79681696674E+01  0.56322911480E+02 -0.61052902882E+03  0.62578505918E+03  0.12500193268E+03 0.  0.
          2    1    1    2  501    0 -0.14912793119E+02  0.35414044191E+02 -0.43356709216E+03  0.43526654975E+03  0.00000000000E+00 0. -1.
          1    1    1    2  502    0  0.22880962786E+02 -0.91736955671E+02  0.28316105917E+03  0.29852871373E+03  0.00000000000E+00 0. -1.
         22    1    3    3    0    0 -0.65897708161E+02  0.35292570591E+02 -0.37088310221E+03  0.37834157713E+03  0.00000000000E+00 0. -1.
         22    1    3    3    0    0  0.57929538494E+02  0.21030340889E+02 -0.23964592661E+03  0.24744348205E+03  0.00000000000E+00 0. -1.
</event>
<event>
 7    1  0.6557591E-006  0.6584198E+02  0.7818608E-02  0.1462699E+00
          2   -1    0    0  502    0  0.00000000000E+00  0.00000000000E+00  0.72306758704E+03  0.72306758704E+03  0.00000000000E+00 0. -1.
          1   -1    0    0  501    0 -0.00000000000E+00 -0.00000000000E+00 -0.75812618620E+03  0.75812618620E+03  0.00000000000E+00 0. -1.
         25    2    1    2    0    0 -0.92270229590E+02 -0.23694066961E+02  0.46740326341E+03  0.49311789227E+03  0.12499696378E+03 0.  0.
          2    1    1    2  501    0  0.59200232216E+02  0.28627453224E+02 -0.74265805380E+03  0.74556366827E+03  0.00000000000E+00 0. -1.
          1    1    1    2  502    0  0.33069997374E+02 -0.49333862630E+01  0.24019619123E+03  0.24251221270E+03  0.00000000000E+00 0. -1.
         22    1    3    3    0    0 -0.39318303047E+02 -0.19303217204E+02  0.41887326151E+03  0.42115715873E+03  0.00000000000E+00 0.  1.
         22    1    3    3    0    0 -0.52951926543E+02 -0.43908497576E+01  0.48530001900E+02  0.71960733533E+02  0.00000000000E+00 0.  1.
</event>
<event>
 7    1  0.6557591E-006  0.9580856E+02  0.7818608E-02  0.1426856E+00
          2   -1    0    0  502    0  0.00000000000E+00  0.00000000000E+00  0.17499980518E+03  0.17499980518E+03  0.00000000000E+00 0. -1.
          1   -1    0    0  501    0 -0.00000000000E+00 -0.00000000000E+00 -0.11667813302E+04  0.11667813302E+04  0.00000000000E+00 0. -1.
         25    2    1    2    0    0 -0.76891301679E+02 -0.11058316137E+02 -0.97889476051E+02  0.17675298439E+03  0.12499883735E+03 0.  0.
          2    1    1    2  501    0  0.96290579856E+02 -0.11802335272E+02 -0.10254846834E+04  0.10300631081E+04  0.00000000000E+00 0. -1.
          1    1    1    2  502    0 -0.19399278177E+02  0.22860651409E+02  0.13159263438E+03  0.13496504288E+03  0.00000000000E+00 0. -1.
         22    1    3    3    0    0  0.33425006136E+01  0.32568082699E+02  0.11089206720E+02  0.34566209319E+02  0.00000000000E+00 0.  1.
         22    1    3    3    0    0 -0.80233802293E+02 -0.43626398836E+02 -0.10897868277E+03  0.14218677507E+03  0.00000000000E+00 0.  1.
</event>
<event>
 7    1  0.6557591E-006  0.7132841E+02  0.7818608E-02  0.1491986E+00
          2   -1    0    0  502    0  0.00000000000E+00  0.00000000000E+00  0.23799696467E+03  0.23799696467E+03  0.00000000000E+00 0. -1.
          1   -1    0    0  501    0 -0.00000000000E+00 -0.00000000000E+00 -0.67133886360E+03  0.67133886360E+03  0.00000000000E+00 0. -1.
         25    2    1    2    0    0  0.32121164033E+02  0.64958776944E+02 -0.38535839622E+02  0.14953752916E+03  0.12500019925E+03 0.  0.
          2    1    1    2  501    0 -0.77894076917E+01 -0.71025792012E+02 -0.57421594690E+03  0.57864435682E+03  0.00000000000E+00 0. -1.
          1    1    1    2  502    0 -0.24331756341E+02  0.60670150680E+01  0.17940988760E+03  0.18115394229E+03  0.00000000000E+00 0. -1.
         22    1    3    3    0    0  0.77979929671E+01 -0.21306148954E+02  0.29353647195E+02  0.37099828587E+02  0.00000000000E+00 0. -1.
         22    1    3    3    0    0  0.24323171066E+02  0.86264925897E+02 -0.67889486817E+02  0.11243770058E+03  0.00000000000E+00 0. -1.
</event>
<event>
 7    1  0.6557591E-006  0.2670213E+03  0.7818608E-02  0.1346741E+00
          2   -1    0    0  502    0  0.00000000000E+00  0.00000000000E+00  0.48410685820E+03  0.48410685820E+03  0.00000000000E+00 0. -1.
          1   -1    0    0  501    0 -0.00000000000E+00 -0.00000000000E+00 -0.59397978022E+03  0.59397978022E+03  0.00000000000E+00 0. -1.
         25    2    1    2    0    0 -0.20658658465E+02  0.25816677045E+03  0.91116572886E+02  0.30166798392E+03  0.12499792451E+03 0.  0.
          2    1    1    2  501    0  0.39794468314E+02 -0.26566566205E+03 -0.45133622061E+03  0.52522969045E+03  0.00000000000E+00 0. -1.
          1    1    1    2  502    0 -0.19135809849E+02  0.74988916001E+01  0.25034672570E+03  0.25118896405E+03  0.00000000000E+00 0. -1.
         22    1    3    3    0    0 -0.56074686742E+01  0.23627771023E+03  0.11774913027E+03  0.26405199816E+03  0.00000000000E+00 0.  1.
         22    1    3    3    0    0 -0.15051189791E+02  0.21889060225E+02 -0.26632557383E+02  0.37615985756E+02  0.00000000000E+00 0.  1.
</event>
<event>
 7    1  0.6557591E-006  0.7941882E+02  0.7818608E-02  0.1416365E+00
          2   -1    0    0  502    0  0.00000000000E+00  0.00000000000E+00  0.32576901080E+04  0.32576901080E+04  0.00000000000E+00 0. -1.
          1   -1    0    0  501    0 -0.00000000000E+00 -0.00000000000E+00 -0.19154833079E+02  0.19154833079E+02  0.00000000000E+00 0. -1.
         25    2    1    2    0    0  0.80352777244E+02 -0.16093602213E+02  0.14162271519E+04  0.14240928301E+04  0.12500188013E+03 0.  0.
          2    1    1    2  501    0 -0.17891971949E+02 -0.34880522653E+02  0.12495944614E+02  0.41145135224E+02  0.00000000000E+00 0. -1.
          1    1    1    2  502    0 -0.62460805295E+02  0.50974124866E+02  0.18098121784E+04  0.18116069758E+04  0.00000000000E+00 0. -1.
         22    1    3    3    0    0  0.93106194811E+00  0.35005492917E+02  0.13771472532E+03  0.14209713924E+03  0.00000000000E+00 0.  1.
         22    1    3    3    0    0  0.79421715296E+02 -0.51099095130E+02  0.12785124266E+04  0.12819956909E+04  0.00000000000E+00 0.  1.
</event>
<event>
 7    1  0.6557591E-006  0.4694831E+02  0.7818608E-02  0.1477585E+00
          2   -1    0    0  502    0  0.00000000000E+00  0.00000000000E+00  0.18987766806E+02  0.18987766806E+02  0.00000000000E+00 0. -1.
          1   -1    0    0  501    0 -0.00000000000E+00 -0.00000000000E+00 -0.72444245146E+03  0.72444245146E+03  0.00000000000E+00 0. -1.
         25    2    1    2    0    0 -0.18536826547E+02  0.20848803567E+02 -0.43694465199E+03  0.45532849154E+03  0.12500047903E+03 0.  0.
          2    1    1    2  501    0  0.51806929660E+02  0.12275868299E+02 -0.18256054650E+03  0.19016573835E+03  0.00000000000E+00 0. -1.
          1    1    1    2  502    0 -0.33270103114E+02 -0.33124671867E+02 -0.85949486164E+02  0.97935988377E+02  0.00000000000E+00 0. -1.
         22    1    3    3    0    0  0.44575113164E+02  0.24544208976E+02 -0.30264109323E+03  0.30688921490E+03  0.00000000000E+00 0. -1.
         22    1    3    3    0    0 -0.63111939711E+02 -0.36954054083E+01 -0.13430355875E+03  0.14843927664E+03  0.00000000000E+00 0. -1.
</event>
<event>
 7    1  0.6557591E-006  0.1057594E+03  0.7818608E-02  0.1300417E+00
          2   -1    0    0  502    0  0.00000000000E+00  0.00000000000E+00  0.19756538126E+03  0.19756538126E+03  0.00000000000E+00 0. -1.
          1   -1    0    0  501    0 -0.00000000000E+00 -0.00000000000E+00 -0.48846587950E+03  0.48846587950E+03  0.00000000000E+00 0. -1.
         25    2    1    2    0    0 -0.37122086910E+02  0.76093737600E+02 -0.53515220222E+02  0.16017939451E+03  0.12500101357E+03 0.  0.
          2    1    1    2  501    0 -0.34810679885E+02 -0.10708049123E+03 -0.36175590459E+03  0.37887379104E+03  0.00000000000E+00 0. -1.
          1    1    1    2  502    0  0.71932766794E+02  0.30986753632E+02  0.12437062657E+03  0.14697807521E+03  0.00000000000E+00 0. -1.
         22    1    3    3    0    0  0.19915381227E+02  0.54098910170E+01 -0.65399724390E+02  0.68578519090E+02  0.00000000000E+00 0.  1.
         22    1    3    3    0    0 -0.57037468137E+02  0.70683846583E+02  0.11884504168E+02  0.91600875425E+02  0.00000000000E+00 0.  1.
</event>
<event>
 7    1  0.6557591E-006  0.4090155E+02  0.7818608E-02  0.1601658E+00
          2   -1    0    0  502    0  0.00000000000E+00  0.00000000000E+00  0.16918372459E+04  0.16918372459E+04  0.00000000000E+00 0. -1.
          1   -1    0    0  501    0 -0.00000000000E+00 -0.00000000000E+00 -0.78569877011E+03  0.78569877011E+03  0.00000000000E+00 0. -1.
         25    2    1    2    0    0  0.13107595868E+02 -0.24995664598E+02  0.93061361700E+03  0.93939536190E+03  0.12500139795E+03 0.  0.
          2    1    1    2  501    0 -0.11799267058E+02 -0.18016582441E+02 -0.78054756750E+03  0.78084462288E+03  0.00000000000E+00 0. -1.
          1    1    1    2  502    0 -0.13083288094E+01  0.43012247039E+02  0.75607242627E+03  0.75729603121E+03  0.00000000000E+00 0. -1.
         22    1    3    3    0    0 -0.59323060908E+01 -0.71686264955E+02  0.67751976587E+03  0.68132748806E+03  0.00000000000E+00 0.  1.
         22    1    3    3    0    0  0.19039901958E+02  0.46690600357E+02  0.25309385113E+03  0.25806787384E+03  0.00000000000E+00 0.  1.
</event>
<event>
 7    1  0.6557591E-006  0.6932133E+02  0.7818608E-02  0.1378498E+00
          2   -1    0    0  502    0  0.00000000000E+00  0.00000000000E+00  0.98799911623E+02  0.98799911623E+02  0.00000000000E+00 0. -1.
          1   -1    0    0  501    0 -0.00000000000E+00 -0.00000000000E+00 -0.10636143994E+04  0.10636143994E+04  0.00000000000E+00 0. -1.
         25    2    1    2    0    0 -0.11579514872E+03 -0.13930108657E+02 -0.32911915578E+03  0.37087346011E+03  0.12500056126E+03 0.  0.
          2    1    1    2  501    0  0.50879986476E+02  0.33076631938E+02 -0.69735162154E+03  0.69998722894E+03  0.00000000000E+00 0. -1.
          1    1    1    2  502    0  0.64915162243E+02 -0.19146523281E+02  0.61656289595E+02  0.91553621935E+02  0.00000000000E+00 0. -1.
         22    1    3    3    0    0 -0.59707464683E+02  0.38910715302E+02 -0.67565017801E+02  0.98204158439E+02  0.00000000000E+00 0. -1.
         22    1    3    3    0    0 -0.56087684035E+02 -0.52840823959E+02 -0.26155413798E+03  0.27266930167E+03  0.00000000000E+00 0. -1.
</event>
<event>
 7    1  0.6557591E-006  0.1022462E+03  0.7818608E-02  0.1338728E+00
          2   -1    0    0  502    0  0.00000000000E+00  0.00000000000E+00  0.21229218090E+04  0.21229218090E+04  0.00000000000E+00 0. -1.
          1   -1    0    0  501    0 -0.00000000000E+00 -0.00000000000E+00 -0.16196990307E+04  0.16196990307E+04  0.00000000000E+00 0. -1.
         25    2    1    2    0    0 -0.52850182899E+02 -0.14289201929E+02 -0.63859137017E+02  0.15065835889E+03  0.12499051404E+03 0.  0.
          2    1    1    2  501    0 -0.26679048705E+02 -0.50953701975E+02 -0.15106205691E+04  0.15117151039E+04  0.00000000000E+00 0. -1.
          1    1    1    2  502    0  0.79529231603E+02  0.65242903904E+02  0.20777024845E+04  0.20802473770E+04  0.00000000000E+00 0. -1.
         22    1    3    3    0    0  0.16654824738E+02 -0.38287944561E+02  0.13545077190E+02  0.43895546492E+02  0.00000000000E+00 0.  1.
         22    1    3    3    0    0 -0.69505007637E+02  0.23998742632E+02 -0.77404214206E+02  0.10676281240E+03  0.00000000000E+00 0.  1.
</event>
<event>
 7    1  0.6557591E-006  0.5642400E+02  0.7818608E-02  0.1417280E+00
          2   -1    0    0  502    0  0.00000000000E+00  0.00000000000E+00  0.90312975883E+03  0.90312975883E+03  0.00000000000E+00 0. -1.
          1   -1    0    0  501    0 -0.00000000000E+00 -0.00000000000E+00 -0.11022354328E+03  0.11022354328E+03  0.00000000000E+00 0. -1.
         25    2    1    2    0    0 -0.10351720219E+02 -0.37268097776E+02  0.38748064091E+03  0.40897555405E+03  0.12499474991E+03 0.  0.
          2    1    1    2  501    0 -0.44426081289E+02  0.36156435462E+02 -0.89591846558E+02  0.10633749806E+03  0.00000000000E+00 0. -1.
          1    1    1    2  502    0  0.54777801509E+02  0.11116623146E+01  0.49501742120E+03  0.49804025000E+03  0.00000000000E+00 0. -1.
         22    1    3    3    0    0 -0.56935787844E+02  0.12458994011E+02  0.12708329319E+03  0.13981085036E+03  0.00000000000E+00 0. -1.
         22    1    3    3    0    0  0.46584067624E+02 -0.49727091788E+02  0.26039734772E+03  0.26916470369E+03  0.00000000000E+00 0. -1.
</event>
<event>
 7    1  0.6557591E-006  0.1084491E+03  0.7818608E-02  0.1277954E+00
          2   -1    0    0  502    0  0.00000000000E+00  0.00000000000E+00  0.93558855503E+03  0.93558855503E+03  0.00000000000E+00 0. -1.
          1   -1    0    0  501    0 -0.00000000000E+00 -0.00000000000E+00 -0.16077636922E+03  0.16077636922E+03  0.00000000000E+00 0. -1.
         25    2    1    2    0    0 -0.28313007706E+02 -0.25237807403E+02  0.20881118673E+03  0.24630594889E+03  0.12500374166E+03 0.  0.
          2    1    1    2  501    0 -0.70106690942E+02 -0.63052541698E+02 -0.11933233509E+03  0.15208805781E+03  0.00000000000E+00 0. -1.
          1    1    1    2  502    0  0.98419698647E+02  0.88290349101E+02  0.68533333418E+03  0.69797091756E+03  0.00000000000E+00 0. -1.
         22    1    3    3    0    0 -0.42987384623E+02  0.35990248861E+02  0.48708669119E+02  0.74268079934E+02  0.00000000000E+00 0.  1.
         22    1    3    3    0    0  0.14674376917E+02 -0.61228056264E+02  0.16010251761E+03  0.17203786896E+03  0.00000000000E+00 0.  1.
</event>
<event>
 7    1  0.6557591E-006  0.1237311E+03  0.7818608E-02  0.1386108E+00
          2   -1    0    0  502    0  0.00000000000E+00  0.00000000000E+00  0.49274131977E+02  0.49274131977E+02  0.00000000000E+00 0. -1.
          1   -1    0    0  501    0 -0.00000000000E+00 -0.00000000000E+00 -0.60785649370E+03  0.60785649370E+03  0.00000000000E+00 0. -1.
         25    2    1    2    0    0  0.77773336096E+02  0.83299653299E+02 -0.24608938571E+03  0.29861766526E+03  0.12500000080E+03 0.  0.
          2    1    1    2  501    0 -0.10782281503E+03 -0.72413198452E+02 -0.29442089790E+03  0.32179666852E+03  0.00000000000E+00 0. -1.
          1    1    1    2  502    0  0.30049478932E+02 -0.10886454846E+02 -0.18072078110E+02  0.36716291893E+02  0.00000000000E+00 0. -1.
         22    1    3    3    0    0  0.90213363305E+02  0.88744702122E+02 -0.25336640496E+03  0.28321124313E+03  0.00000000000E+00 0. -1.
         22    1    3    3    0    0 -0.12440027209E+02 -0.54450488234E+01  0.72770192499E+01  0.15406422129E+02  0.00000000000E+00 0. -1.
</event>
<event>
 7    1  0.6557591E-006  0.6217690E+02  0.7818608E-02  0.1457900E+00
          2   -1    0    0  502    0  0.00000000000E+00  0.00000000000E+00  0.21615411915E+04  0.21615411915E+04  0.00000000000E+00 0. -1.
          1   -1    0    0  501    0 -0.00000000000E+00 -0.00000000000E+00 -0.32423239718E+03  0.32423239718E+03  0.00000000000E+00 0. -1.
         25    2    1    2    0    0  0.34807278704E+02  0.88384684463E+02  0.71169887862E+03  0.72881037555E+03  0.12500348228E+03 0.  0.
          2    1    1    2  501    0 -0.34266311133E+02 -0.51726290609E+02 -0.31239190913E+03  0.31849410372E+03  0.00000000000E+00 0. -1.
          1    1    1    2  502    0 -0.54096757124E+00 -0.36658393855E+02  0.14380018248E+04  0.14384691094E+04  0.00000000000E+00 0. -1.
         22    1    3    3    0    0 -0.23456420883E+02  0.78781373693E+02  0.56040374430E+03  0.56640009282E+03  0.00000000000E+00 0.  1.
         22    1    3    3    0    0  0.58263699586E+02  0.96033107702E+01  0.15129513432E+03  0.16241028273E+03  0.00000000000E+00 0.  1.
</event>
<event>
 7    1  0.6557591E-006  0.1842808E+03  0.7818608E-02  0.1261034E+00
          2   -1    0    0  502    0  0.00000000000E+00  0.00000000000E+00  0.47018778958E+03  0.47018778958E+03  0.00000000000E+00 0. -1.
          1   -1    0    0  501    0 -0.00000000000E+00 -0.00000000000E+00 -0.27149589573E+03  0.27149589573E+03  0.00000000000E+00 0. -1.
         25    2    1    2    0    0  0.12069834976E+03  0.52306488422E+02 -0.72174653305E+02  0.19529226197E+03  0.12500330652E+03 0.  0.
          2    1    1    2  501    0  0.65340763213E+02  0.16685185544E+01 -0.10492096652E+03  0.12361475845E+03  0.00000000000E+00 0. -1.
          1    1    1    2  502    0 -0.18603911298E+03 -0.53975006976E+02  0.37578751368E+03  0.42277666489E+03  0.00000000000E+00 0. -1.
         22    1    3    3    0    0  0.12237566652E+03  0.13678468704E+02 -0.90192737292E+02  0.15263562534E+03  0.00000000000E+00 0. -1.
         22    1    3    3    0    0 -0.16773167531E+01  0.38628019717E+02  0.18018083987E+02  0.42656636639E+02  0.00000000000E+00 0. -1.
</event>
<event>
 7    1  0.6557591E-006  0.9116873E+02  0.7818608E-02  0.1304334E+00
          2   -1    0    0  502    0  0.00000000000E+00  0.00000000000E+00  0.16208819462E+04  0.16208819462E+04  0.00000000000E+00 0. -1.
          1   -1    0    0  501    0 -0.00000000000E+00 -0.00000000000E+00 -0.32459331030E+03  0.32459331030E+03  0.00000000000E+00 0. -1.
         25    2    1    2    0    0 -0.81135836728E+02  0.30846633118E+02  0.57434397453E+03  0.59416513038E+03  0.12500664901E+03 0.  0.
          2    1    1    2  501    0  0.64963610371E+02  0.63964570292E+02 -0.30578664216E+03  0.31908808729E+03  0.00000000000E+00 0. -1.
          1    1    1    2  502    0  0.16172226358E+02 -0.94811203410E+02  0.10277313035E+04  0.10322220388E+04  0.00000000000E+00 0. -1.
         22    1    3    3    0    0 -0.35490493696E+02  0.71009148859E+02  0.43425786711E+03  0.44145415335E+03  0.00000000000E+00 0. -1.
         22    1    3    3    0    0 -0.45645343032E+02 -0.40162515741E+02  0.14008610742E+03  0.15271097702E+03  0.00000000000E+00 0. -1.
</event>
<event>
 7    1  0.6557591E-006  0.6014920E+02  0.7818608E-02  0.1433038E+00
          2   -1    0    0  502    0  0.00000000000E+00  0.00000000000E+00  0.14510195196E+04  0.14510195196E+04  0.00000000000E+00 0. -1.
          1   -1    0    0  501    0 -0.00000000000E+00 -0.00000000000E+00 -0.18630461973E+04  0.18630461973E+04  0.00000000000E+00 0. -1.
         25    2    1    2    0    0 -0.10227703175E+03  0.26662165906E+01  0.16809038852E+03  0.23312357337E+03  0.12499808724E+03 0.  0.
          2    1    1    2  501    0  0.44413587407E+02  0.10204357673E+02 -0.18295431829E+04  0.18301106397E+04  0.00000000000E+00 0. -1.
          1    1    1    2  502    0  0.57863444347E+02 -0.12870574263E+02  0.12494261167E+04  0.12508315038E+04  0.00000000000E+00 0. -1.
         22    1    3    3    0    0 -0.76626373025E+02  0.46243999892E+02  0.45261410105E+02  0.10029308956E+03  0.00000000000E+00 0.  1.
         22    1    3    3    0    0 -0.25650658729E+02 -0.43577783302E+02  0.12282897842E+03  0.13283048381E+03  0.00000000000E+00 0.  1.
</event>
<event>
 7    1  0.6557591E-006  0.1410727E+03  0.7818608E-02  0.1343556E+00
          2   -1    0    0  502    0  0.00000000000E+00  0.00000000000E+00  0.15049155783E+04  0.15049155783E+04  0.00000000000E+00 0. -1.
          1   -1    0    0  501    0 -0.00000000000E+00 -0.00000000000E+00 -0.24383242511E+03  0.24383242511E+03  0.00000000000E+00 0. -1.
         25    2    1    2    0    0  0.70101469971E+01 -0.17085661834E+03  0.31614794040E+03  0.38054661882E+03  0.12500033075E+03 0.  0.
          2    1    1    2  501    0 -0.27454022095E+02  0.13649744802E+03 -0.18834273023E+03  0.23421840379E+03  0.00000000000E+00 0. -1.
          1    1    1    2  502    0  0.20443875097E+02  0.34359170319E+02  0.11332779430E+04  0.11339829808E+04  0.00000000000E+00 0. -1.
         22    1    3    3    0    0 -0.51290891272E+02 -0.12757219875E+03  0.22905515455E+03  0.26715479641E+03  0.00000000000E+00 0.  1.
         22    1    3    3    0    0  0.58301038269E+02 -0.43284419586E+02  0.87092785850E+02  0.11339182241E+03  0.00000000000E+00 0.  1.
</event>
<event>
 7    1  0.6557591E-006  0.8357978E+02  0.7818608E-02  0.1354742E+00
          2   -1    0    0  502    0  0.00000000000E+00  0.00000000000E+00  0.16767661933E+03  0.16767661933E+03  0.00000000000E+00 0. -1.
          1   -1    0    0  501    0 -0.00000000000E+00 -0.00000000000E+00 -0.22777232748E+04  0.22777232748E+04  0.00000000000E+00 0. -1.
         25    2    1    2    0    0 -0.10350237502E+03  0.56688349181E+01 -0.15613484154E+03  0.22527705420E+03  0.12500714012E+03 0.  0.
          2    1    1    2  501    0  0.69971880668E+02  0.45688209181E+02 -0.20790675669E+04  0.20807463623E+04  0.00000000000E+00 0. -1.
          1    1    1    2  502    0  0.33530494354E+02 -0.51357044099E+02  0.12515575293E+03  0.13937647765E+03  0.00000000000E+00 0. -1.
         22    1    3    3    0    0 -0.51326072220E+02 -0.27817189819E+02 -0.15236360327E+03  0.16316503713E+03  0.00000000000E+00 0. -1.
         22    1    3    3    0    0 -0.52176302802E+02  0.33486024737E+02 -0.37712382708E+01  0.62112017073E+02  0.00000000000E+00 0. -1.
</event>
<event>
 7    1  0.6557591E-006  0.8955750E+02  0.7818608E-02  0.1421225E+00
          2   -1    0    0  502    0  0.00000000000E+00  0.00000000000E+00  0.14722837968E+04  0.14722837968E+04  0.00000000000E+00 0. -1.
          1   -1    0    0  501    0 -0.00000000000E+00 -0.00000000000E+00 -0.22651284241E+03  0.22651284241E+03  0.00000000000E+00 0. -1.
         25    2    1    2    0    0  0.54724833459E+02  0.10303488999E+03 -0.80374490317E+02  0.18893426704E+03  0.12500041046E+03 0.  0.
          2    1    1    2  501    0  0.12519576094E+01 -0.33462888693E+02 -0.87350264756E+02  0.93548923407E+02  0.00000000000E+00 0. -1.
          1    1    1    2  502    0 -0.55976791068E+02 -0.69572001301E+02  0.14134957094E+04  0.14163134487E+04  0.00000000000E+00 0. -1.
         22    1    3    3    0    0 -0.32215348858E+02  0.62971703590E+02 -0.55825446361E+02  0.90109625549E+02  0.00000000000E+00 0. -1.
         22    1    3    3    0    0  0.86940182317E+02  0.40063186404E+02 -0.24549043956E+02  0.98824641489E+02  0.00000000000E+00 0. -1.
</event>
<event>
 7    1  0.6557591E-006  0.1063560E+03  0.7818608E-02  0.1436042E+00
          2   -1    0    0  502    0  0.00000000000E+00  0.00000000000E+00  0.86626434468E+03  0.86626434468E+03  0.00000000000E+00 0. -1.
          1   -1    0    0  501    0 -0.00000000000E+00 -0.00000000000E+00 -0.53135531813E+03  0.53135531813E+03  0.00000000000E+00 0. -1.
         25    2    1    2    0    0  0.71822679603E+02  0.65003391978E+02  0.12008995628E+03  0.19857138318E+03  0.12500023338E+03 0.  0.
          2    1    1    2  501    0  0.21974459318E+02 -0.12326988559E+02 -0.48769494188E+03  0.48834535715E+03  0.00000000000E+00 0. -1.
          1    1    1    2  502    0 -0.93797138922E+02 -0.52676403419E+02  0.70251401215E+03  0.71070292248E+03  0.00000000000E+00 0. -1.
         22    1    3    3    0    0  0.74765505155E+01 -0.13857492410E+02  0.91508176053E+02  0.92852976193E+02  0.00000000000E+00 0. -1.
         22    1    3    3    0    0  0.64346129088E+02  0.78860884388E+02  0.28581780228E+02  0.10571840699E+03  0.00000000000E+00 0. -1.
</event>
<event>
 7    1  0.6557591E-006  0.2147011E+03  0.7818608E-02  0.1296017E+00
          2   -1    0    0  502    0  0.00000000000E+00  0.00000000000E+00  0.13194054375E+04  0.13194054375E+04  0.00000000000E+00 0. -1.
          1   -1    0    0  501    0 -0.00000000000E+00 -0.00000000000E+00 -0.67064479100E+03  0.67064479100E+03  0.00000000000E+00 0. -1.
         25    2    1    2    0    0 -0.21833914407E+03 -0.56206261963E+02  0.31239280751E+02  0.25967662144E+03  0.12499971738E+03 0.  0.
          2    1    1    2  501    0  0.19441633829E+03  0.88491428634E+02 -0.53556258103E+03  0.57658973607E+03  0.00000000000E+00 0. -1.
          1    1    1    2  502    0  0.23922805783E+02 -0.32285166671E+02  0.11530839468E+04  0.11537838710E+04  0.00000000000E+00 0. -1.
         22    1    3    3    0    0 -0.18282629439E+03 -0.49797031080E+02 -0.26760435312E+02  0.19136697501E+03  0.00000000000E+00 0. -1.
         22    1    3    3    0    0 -0.35512849680E+02 -0.64092308835E+01  0.57999716063E+02  0.68309646437E+02  0.00000000000E+00 0. -1.
</event>
<event>
 7    1  0.6557591E-006  0.5039377E+02  0.7818608E-02  0.1502266E+00
          2   -1    0    0  502    0  0.00000000000E+00  0.00000000000E+00  0.11591993766E+04  0.11591993766E+04  0.00000000000E+00 0. -1.
          1   -1    0    0  501    0 -0.00000000000E+00 -0.00000000000E+00 -0.65398854597E+02  0.65398854597E+02  0.00000000000E+00 0. -1.
         25    2    1    2    0    0  0.55076345510E+02  0.47107983748E+02  0.10677395789E+03  0.17966266493E+03  0.12500171647E+03 0.  0.
          2    1    1    2  501    0 -0.22353762547E+02 -0.42366423206E+02 -0.86783620277E+01  0.48681808540E+02  0.00000000000E+00 0. -1.
          1    1    1    2  502    0 -0.32722582963E+02 -0.47415605424E+01  0.99570492615E+03  0.99625375773E+03  0.00000000000E+00 0. -1.
         22    1    3    3    0    0  0.39225110241E+02 -0.10418383285E+02  0.11261706958E+03  0.11970696030E+03  0.00000000000E+00 0. -1.
         22    1    3    3    0    0  0.15851235269E+02  0.57526367033E+02 -0.58431116931E+01  0.59955704631E+02  0.00000000000E+00 0. -1.
</event>
<event>
 7    1  0.6557591E-006  0.1077523E+03  0.7818608E-02  0.1334175E+00
          2   -1    0    0  502    0  0.00000000000E+00  0.00000000000E+00  0.16624068384E+04  0.16624068384E+04  0.00000000000E+00 0. -1.
          1   -1    0    0  501    0 -0.00000000000E+00 -0.00000000000E+00 -0.42984407847E+03  0.42984407847E+03  0.00000000000E+00 0. -1.
         25    2    1    2    0    0  0.24919595020E+02  0.12273439771E+03  0.15288284374E+03  0.23384359696E+03  0.12499978133E+03 0.  0.
          2    1    1    2  501    0 -0.66767661085E+02 -0.84352475733E+02 -0.38137075705E+03  0.39625359943E+03  0.00000000000E+00 0. -1.
          1    1    1    2  502    0  0.41848066065E+02 -0.38381921973E+02  0.14610506733E+04  0.14621537205E+04  0.00000000000E+00 0. -1.
         22    1    3    3    0    0 -0.59855654159E+01  0.45691879435E+02  0.14300663252E+03  0.15024803421E+03  0.00000000000E+00 0.  1.
         22    1    3    3    0    0  0.30905160436E+02  0.77042518271E+02  0.98762112188E+01  0.83595562748E+02  0.00000000000E+00 0.  1.
</event>
<event>
 7    1  0.6557591E-006  0.4673098E+02  0.7818608E-02  0.1548763E+00
          2   -1    0    0  502    0  0.00000000000E+00  0.00000000000E+00  0.68566156940E+02  0.68566156940E+02  0.00000000000E+00 0. -1.
          1   -1    0    0  501    0 -0.00000000000E+00 -0.00000000000E+00 -0.13970309961E+04  0.13970309961E+04  0.00000000000E+00 0. -1.
         25    2    1    2    0    0  0.68706106504E+02  0.22430673904E+02 -0.44664629788E+03  0.46940484018E+03  0.12499729747E+03 0.  0.
          2    1    1    2  501    0 -0.25445115469E+02 -0.61870472185E+01 -0.92945577343E+03  0.92982459003E+03  0.00000000000E+00 0. -1.
          1    1    1    2  502    0 -0.43260991034E+02 -0.16243626686E+02  0.47637232122E+02  0.66367722858E+02  0.00000000000E+00 0. -1.
         22    1    3    3    0    0  0.91958471088E+02  0.10977950428E+02 -0.42687368524E+03  0.43680432570E+03  0.00000000000E+00 0. -1.
         22    1    3    3    0    0 -0.23252364585E+02  0.11452723476E+02 -0.19772612635E+02  0.32600514478E+02  0.00000000000E+00 0. -1.
</event>
<event>
 7    1  0.6557591E-006  0.1960221E+03  0.7818608E-02  0.1218507E+00
          2   -1    0    0  502    0  0.00000000000E+00  0.00000000000E+00  0.81320187644E+03  0.81320187644E+03  0.00000000000E+00 0. -1.
          1   -1    0    0  501    0 -0.00000000000E+00 -0.00000000000E+00 -0.71576209599E+03  0.71576209599E+03  0.00000000000E+00 0. -1.
         25    2    1    2    0    0 -0.54057529811E+02  0.24726023278E+03 -0.27881358283E+02  0.28365962871E+03  0.12500230229E+03 0.  0.
          2    1    1    2  501    0 -0.45559504165E+02 -0.82977807980E+02 -0.54234540828E+03  0.55054475469E+03  0.00000000000E+00 0. -1.
          1    1    1    2  502    0  0.99617033976E+02 -0.16428242480E+03  0.66766654700E+03  0.69475958902E+03  0.00000000000E+00 0. -1.
         22    1    3    3    0    0 -0.94517293192E+02  0.17387112450E+03 -0.27891920560E+02  0.19985656326E+03  0.00000000000E+00 0.  1.
         22    1    3    3    0    0  0.40459763381E+02  0.73389108282E+02  0.10562277691E-01  0.83803065450E+02  0.00000000000E+00 0.  1.
</event>
<event>
 7    1  0.6557591E-006  0.5208716E+02  0.7818608E-02  0.1446641E+00
          2   -1    0    0  502    0  0.00000000000E+00  0.00000000000E+00  0.13137881630E+03  0.13137881630E+03  0.00000000000E+00 0. -1.
          1   -1    0    0  501    0 -0.00000000000E+00 -0.00000000000E+00 -0.55386694978E+03  0.55386694978E+03  0.00000000000E+00 0. -1.
         25    2    1    2    0    0  0.19228147853E+02 -0.87659057385E+02 -0.17654367115E+03  0.23419221176E+03  0.12499796885E+03 0.  0.
          2    1    1    2  501    0 -0.28673883561E+02  0.41070533712E+02 -0.34106111669E+03  0.34471969143E+03  0.00000000000E+00 0. -1.
          1    1    1    2  502    0  0.94457357071E+01  0.46588523673E+02  0.95116654355E+02  0.10633386289E+03  0.00000000000E+00 0. -1.
         22    1    3    3    0    0  0.10496424481E+02 -0.51962639331E+02  0.86315503357E+00  0.53019202650E+02  0.00000000000E+00 0.  1.
         22    1    3    3    0    0  0.87317233729E+01 -0.35696418055E+02 -0.17740682618E+03  0.18117300911E+03  0.00000000000E+00 0.  1.
</event>
<event>
 7    1  0.6557591E-006  0.6279978E+02  0.7818608E-02  0.1412141E+00
          2   -1    0    0  502    0  0.00000000000E+00  0.00000000000E+00  0.14750168083E+04  0.14750168083E+04  0.00000000000E+00 0. -1.
          1   -1    0    0  501    0 -0.00000000000E+00 -0.00000000000E+00 -0.35276376806E+03  0.35276376806E+03  0.00000000000E+00 0. -1.
         25    2    1    2    0    0 -0.66043828705E+00  0.36807506249E+02  0.50578093841E+03  0.52229813101E+03  0.12500300518E+03 0.  0.
          2    1    1    2  501    0  0.51877198924E+02 -0.35801979572E+02 -0.34093155008E+03  0.34670931246E+03  0.00000000000E+00 0. -1.
          1    1    1    2  502    0 -0.51216760637E+02 -0.10055266763E+01  0.95740365186E+03  0.95877313284E+03  0.00000000000E+00 0. -1.
         22    1    3    3    0    0 -0.27096113856E+02  0.71547728626E+02  0.40946076580E+03  0.41654699085E+03  0.00000000000E+00 0. -1.
         22    1    3    3    0    0  0.26435675569E+02 -0.34740222378E+02  0.96320172613E+02  0.10575114016E+03  0.00000000000E+00 0. -1.
</event>
<event>
 7    1  0.6557591E-006  0.4860199E+02  0.7818608E-02  0.1484898E+00
          2   -1    0    0  502    0  0.00000000000E+00  0.00000000000E+00  0.14613480459E+03  0.14613480459E+03  0.00000000000E+00 0. -1.
          1   -1    0    0  501    0 -0.00000000000E+00 -0.00000000000E+00 -0.40863961359E+03  0.40863961359E+03  0.00000000000E+00 0. -1.
         25    2    1    2    0    0  0.34353421680E+00  0.62935930026E+02 -0.13389139818E+03  0.19368116679E+03  0.12499775421E+03 0.  0.
          2    1    1    2  501    0 -0.29953974781E+02 -0.24456083993E+02 -0.23815459551E+03  0.24127360406E+03  0.00000000000E+00 0. -1.
          1    1    1    2  502    0  0.29610440565E+02 -0.38479846032E+02  0.10954118469E+03  0.11981964733E+03  0.00000000000E+00 0. -1.
         22    1    3    3    0    0  0.60002210423E+02  0.22432758806E+02 -0.40877735589E+02  0.75990020333E+02  0.00000000000E+00 0.  1.
         22    1    3    3    0    0 -0.59658676206E+02  0.40503171219E+02 -0.93013662593E+02  0.11769114646E+03  0.00000000000E+00 0.  1.
</event>
<event>
 7    1  0.6557591E-006  0.6350975E+02  0.7818608E-02  0.1503486E+00
          2   -1    0    0  502    0  0.00000000000E+00  0.00000000000E+00  0.70575196351E+03  0.70575196351E+03  0.00000000000E+00 0. -1.
          1   -1    0    0  501    0 -0.00000000000E+00 -0.00000000000E+00 -0.88352667689E+03  0.88352667689E+03  0.00000000000E+00 0. -1.
         25    2    1    2    0    0 -0.10336227654E+02  0.42672146575E+02 -0.40756084892E+03  0.42855448143E+03  0.12500139316E+03 0.  0.
          2    1    1    2  501    0 -0.23501428881E+02  0.11162556917E+02 -0.46364969906E+03  0.46437911589E+03  0.00000000000E+00 0. -1.
          1    1    1    2  502    0  0.33837656535E+02 -0.53834703492E+02  0.69343583460E+03  0.69634504307E+03  0.00000000000E+00 0. -1.
         22    1    3    3    0    0  0.68402498719E+01  0.78530996943E+02 -0.16627192483E+03  0.18401157433E+03  0.00000000000E+00 0. -1.
         22    1    3    3    0    0 -0.17176477526E+02 -0.35858850368E+02 -0.24128892409E+03  0.24454290711E+03  0.00000000000E+00 0. -1.
</event>
<event>
 7    1  0.6557591E-006  0.1003056E+03  0.7818608E-02  0.1303893E+00
          2   -1    0    0  502    0  0.00000000000E+00  0.00000000000E+00  0.13151220589E+04  0.13151220589E+04  0.00000000000E+00 0. -1.
          1   -1    0    0  501    0 -0.00000000000E+00 -0.00000000000E+00 -0.68057006614E+02  0.68057006614E+02  0.00000000000E+00 0. -1.
         25    2    1    2    0    0 -0.71243888809E+02 -0.84270700522E+02  0.96196412379E+03  0.97630818513E+03  0.12500181688E+03 0.  0.
          2    1    1    2  501    0  0.10075999896E+03  0.99303558194E+01 -0.94167423535E+01  0.10168512376E+03  0.00000000000E+00 0. -1.
          1    1    1    2  502    0 -0.29516110152E+02  0.74340344703E+02  0.29451767088E+03  0.30518575666E+03  0.00000000000E+00 0. -1.
         22    1    3    3    0    0 -0.96237631710E+01 -0.39731687907E+02  0.75012299851E+03  0.75123613913E+03  0.00000000000E+00 0.  1.
         22    1    3    3    0    0 -0.61620125638E+02 -0.44539012615E+02  0.21184112528E+03  0.22507204600E+03  0.00000000000E+00 0.  1.
</event>
<event>
 7    1  0.6557591E-006  0.9929972E+02  0.7818608E-02  0.1427664E+00
          2   -1    0    0  502    0  0.00000000000E+00  0.00000000000E+00  0.40454194206E+03  0.40454194206E+03  0.00000000000E+00 0. -1.
          1   -1    0    0  501    0 -0.00000000000E+00 -0.00000000000E+00 -0.18188184508E+04  0.18188184508E+04  0.00000000000E+00 0. -1.
         25    2    1    2    0    0 -0.11859784443E+03 -0.30756448746E+02 -0.23233587545E+03  0.29088642006E+03  0.12499416992E+03 0.  0.
          2    1    1    2  501    0  0.20402834784E+02  0.20256740940E+02 -0.15505746825E+04  0.15508412096E+04  0.00000000000E+00 0. -1.
          1    1    1    2  502    0  0.98195009646E+02  0.10499707805E+02  0.36863404919E+03  0.38163276327E+03  0.00000000000E+00 0. -1.
         22    1    3    3    0    0  0.17987404626E+02 -0.30391099937E+02 -0.27830056063E+02  0.44963070414E+02  0.00000000000E+00 0. -1.
         22    1    3    3    0    0 -0.13658524906E+03 -0.36534880912E+00 -0.20450581938E+03  0.24592334965E+03  0.00000000000E+00 0. -1.
</event>
<event>
 7    1  0.6557591E-006  0.7792375E+02  0.7818608E-02  0.1373139E+00
          2   -1    0    0  502    0  0.00000000000E+00  0.00000000000E+00  0.17335974587E+04  0.17335974587E+04  0.00000000000E+00 0. -1.
          1   -1    0    0  501    0 -0.00000000000E+00 -0.00000000000E+00 -0.23907811167E+03  0.23907811167E+03  0.00000000000E+00 0. -1.
         25    2    1    2    0    0 -0.30924391929E+02  0.44886179054E+02  0.82518985226E+02  0.15937936130E+03  0.12498524233E+03 0.  0.
          2    1    1    2  501    0  0.79009611113E+02 -0.15384359410E+02 -0.19205921931E+03  0.20824490602E+03  0.00000000000E+00 0. -1.
          1    1    1    2  502    0 -0.48085219185E+02 -0.29501819645E+02  0.16040595811E+04  0.16050513030E+04  0.00000000000E+00 0. -1.
         22    1    3    3    0    0 -0.77355980974E+02  0.30991630141E+02  0.71203291732E+02  0.10960993424E+03  0.00000000000E+00 0.  1.
         22    1    3    3    0    0  0.46431589045E+02  0.13894548914E+02  0.11315693494E+02  0.49769427061E+02  0.00000000000E+00 0.  1.
</event>
<event>
 7    1  0.6557591E-006  0.8289632E+02  0.7818608E-02  0.1362679E+00
          2   -1    0    0  502    0  0.00000000000E+00  0.00000000000E+00  0.33407568835E+03  0.33407568835E+03  0.00000000000E+00 0. -1.
          1   -1    0    0  501    0 -0.00000000000E+00 -0.00000000000E+00 -0.17128186542E+04  0.17128186542E+04  0.00000000000E+00 0. -1.
         25    2    1    2    0    0  0.72638280123E+02  0.11705174250E+03 -0.13795698814E+03  0.23159112490E+03  0.12499955356E+03 0.  0.
          2    1    1    2  501    0 -0.22158762574E+02 -0.53429383082E+02 -0.15217436845E+04  0.15228425890E+04  0.00000000000E+00 0. -1.
          1    1    1    2  502    0 -0.50479517549E+02 -0.63622359420E+02  0.28095770676E+03  0.29246062863E+03  0.00000000000E+00 0. -1.
         22    1    3    3    0    0 -0.19545447457E+01  0.54088364392E+02  0.93019729913E+01  0.54917193203E+02  0.00000000000E+00 0. -1.
         22    1    3    3    0    0  0.74592824869E+02  0.62963378110E+02 -0.14725896114E+03  0.17667393169E+03  0.00000000000E+00 0. -1.
</event>
<event>
 7    1  0.6557591E-006  0.6310218E+02  0.7818608E-02  0.1513878E+00
          2   -1    0    0  502    0  0.00000000000E+00  0.00000000000E+00  0.61643454146E+03  0.61643454146E+03  0.00000000000E+00 0. -1.
          1   -1    0    0  501    0 -0.00000000000E+00 -0.00000000000E+00 -0.62359008773E+03  0.62359008773E+03  0.00000000000E+00 0. -1.
         25    2    1    2    0    0  0.67154805802E+02  0.30527298634E+02  0.84028554073E+02  0.16771251046E+03  0.12500001744E+03 0.  0.
          2    1    1    2  501    0 -0.21151809360E+02  0.12167069050E+02 -0.57948286282E+03  0.57999640077E+03  0.00000000000E+00 0. -1.
          1    1    1    2  502    0 -0.46002996443E+02 -0.42694367684E+02  0.48829876248E+03  0.49231571796E+03  0.00000000000E+00 0. -1.
         22    1    3    3    0    0 -0.28799044423E+02  0.34907214269E+01  0.57734571412E+02  0.64613085609E+02  0.00000000000E+00 0. -1.
         22    1    3    3    0    0  0.95953850226E+02  0.27036577207E+02  0.26293982661E+02  0.10309942485E+03  0.00000000000E+00 0. -1.
</event>
<event>
 7    1  0.6557591E-006  0.7242823E+02  0.7818608E-02  0.1364578E+00
          2   -1    0    0  502    0  0.00000000000E+00  0.00000000000E+00  0.10022560369E+04  0.10022560369E+04  0.00000000000E+00 0. -1.
          1   -1    0    0  501    0 -0.00000000000E+00 -0.00000000000E+00 -0.25418536723E+03  0.25418536723E+03  0.00000000000E+00 0. -1.
         25    2    1    2    0    0 -0.44100040971E+02 -0.43778734905E+02  0.35344706313E+03  0.38001489632E+03  0.12500041499E+03 0.  0.
          2    1    1    2  501    0 -0.33432728779E+02  0.55928452805E+02 -0.23401040602E+03  0.24291276070E+03  0.00000000000E+00 0. -1.
          1    1    1    2  502    0  0.77532769750E+02 -0.12149717901E+02  0.62863401257E+03  0.63351374712E+03  0.00000000000E+00 0. -1.
         22    1    3    3    0    0 -0.33561157009E+02 -0.74730040308E+02  0.32938416825E+03  0.33941841506E+03  0.00000000000E+00 0. -1.
         22    1    3    3    0    0 -0.10538883963E+02  0.30951305404E+02  0.24062894882E+02  0.40596481270E+02  0.00000000000E+00 0. -1.
</event>
<event>
 7    1  0.6557591E-006  0.2991133E+02  0.7818608E-02  0.1663995E+00
          2   -1    0    0  502    0  0.00000000000E+00  0.00000000000E+00  0.98735929654E+03  0.98735929654E+03  0.00000000000E+00 0. -1.
          1   -1    0    0  501    0 -0.00000000000E+00 -0.00000000000E+00 -0.47611352481E+02  0.47611352481E+02  0.00000000000E+00 0. -1.
         25    2    1    2    0    0  0.78072100986E+01  0.57458363492E+01  0.13609742068E+03  0.18504986088E+03  0.12500790348E+03 0.  0.
          2    1    1    2  501    0  0.14140319244E+02  0.14911930530E+02 -0.18240192091E+02  0.27477607391E+02  0.00000000000E+00 0. -1.
          1    1    1    2  502    0 -0.21947529342E+02 -0.20657766879E+02  0.82189071548E+03  0.82244318075E+03  0.00000000000E+00 0. -1.
         22    1    3    3    0    0 -0.11939909289E+02 -0.52601130931E+02  0.10009191268E+03  0.11370062178E+03  0.00000000000E+00 0. -1.
         22    1    3    3    0    0  0.19747119387E+02  0.58346967280E+02  0.36005508001E+02  0.71349239108E+02  0.00000000000E+00 0. -1.
</event>
<event>
 7    1  0.6557591E-006  0.1253110E+03  0.7818608E-02  0.1340274E+00
          2   -1    0    0  502    0  0.00000000000E+00  0.00000000000E+00  0.16536440805E+04  0.16536440805E+04  0.00000000000E+00 0. -1.
          1   -1    0    0  501    0 -0.00000000000E+00 -0.00000000000E+00 -0.20386899835E+03  0.20386899835E+03  0.00000000000E+00 0. -1.
         25    2    1    2    0    0  0.13602558697E+03 -0.25889730502E+02  0.54605818547E+03  0.57704250584E+03  0.12500109269E+03 0.  0.
          2    1    1    2  501    0 -0.10815830926E+03  0.62869763697E+02 -0.16705051712E+03  0.20870242528E+03  0.00000000000E+00 0. -1.
          1    1    1    2  502    0 -0.27867277714E+02 -0.36980033195E+02  0.10707674138E+04  0.10717681477E+04  0.00000000000E+00 0. -1.
         22    1    3    3    0    0  0.10877604680E+03  0.38395108121E+02  0.30535347164E+03  0.32641561747E+03  0.00000000000E+00 0. -1.
         22    1    3    3    0    0  0.27249540176E+02 -0.64284838623E+02  0.24070471382E+03  0.25062688837E+03  0.00000000000E+00 0. -1.
</event>
<event>
 7    1  0.6557591E-006  0.6643233E+02  0.7818608E-02  0.1377075E+00
          2   -1    0    0  502    0  0.00000000000E+00  0.00000000000E+00  0.48878122642E+03  0.48878122642E+03  0.00000000000E+00 0. -1.
          1   -1    0    0  501    0 -0.00000000000E+00 -0.00000000000E+00 -0.12456837143E+04  0.12456837143E+04  0.00000000000E+00 0. -1.
         25    2    1    2    0    0  0.11299750748E+03  0.11491673905E+02 -0.22787508600E+03  0.28364158636E+03  0.12499999771E+03 0.  0.
          2    1    1    2  501    0 -0.58545302227E+02  0.26020053235E+02 -0.98650938127E+03  0.98858755551E+03  0.00000000000E+00 0. -1.
          1    1    1    2  502    0 -0.54452205253E+02 -0.37511727140E+02  0.45748197936E+03  0.46223579888E+03  0.00000000000E+00 0. -1.
         22    1    3    3    0    0 -0.81741229869E+01  0.40452796841E+02 -0.35444140354E+02  0.54401582186E+02  0.00000000000E+00 0.  1.
         22    1    3    3    0    0  0.12117163047E+03 -0.28961122936E+02 -0.19243094565E+03  0.22924000417E+03  0.00000000000E+00 0.  1.
</event>
<event>
 7    1  0.6557591E-006  0.7752982E+02  0.7818608E-02  0.1444880E+00
          2   -1    0    0  502    0  0.00000000000E+00  0.00000000000E+00  0.29560837249E+03  0.29560837249E+03  0.00000000000E+00 0. -1.
          1   -1    0    0  501    0 -0.00000000000E+00 -0.00000000000E+00 -0.89153007009E+03  0.89153007009E+03  0.00000000000E+00 0. -1.
         25    2    1    2    0    0  0.31265274563E+02 -0.38362079381E+02 -0.22328934064E+03  0.26063805501E+03  0.12499959818E+03 0.  0.
          2    1    1    2  501    0 -0.56622224228E+02  0.58460615253E+02 -0.64605943972E+03  0.65116550851E+03  0.00000000000E+00 0. -1.
          1    1    1    2  502    0  0.25356949665E+02 -0.20098535872E+02  0.27342708276E+03  0.27533487906E+03  0.00000000000E+00 0. -1.
         22    1    3    3    0    0  0.55000638048E+02 -0.26160809366E+02 -0.22576465925E+03  0.23383571048E+03  0.00000000000E+00 0.  1.
         22    1    3    3    0    0 -0.23735363485E+02 -0.12201270015E+02  0.24753186052E+01  0.26802344523E+02  0.00000000000E+00 0.  1.
</event>
<event>
 7    1  0.6557591E-006  0.7090426E+02  0.7818608E-02  0.1386968E+00
          2   -1    0    0  502    0  0.00000000000E+00  0.00000000000E+00  0.61047809256E+02  0.61047809256E+02  0.00000000000E+00 0. -1.
          1   -1    0    0  501    0 -0.00000000000E+00 -0.00000000000E+00 -0.29870401930E+04  0.29870401930E+04  0.00000000000E+00 0. -1.
         25    2    1    2    0    0 -0.14302234385E+02  0.10844546749E+03 -0.16280100464E+04  0.16364599262E+04  0.12497761963E+03 0.  0.
          2    1    1    2  501    0 -0.16923587748E+02 -0.62699999557E+02 -0.13403328461E+04  0.13419053007E+04  0.00000000000E+00 0. -1.
          1    1    1    2  502    0  0.31225822133E+02 -0.45745467929E+02  0.42350508805E+02  0.69722775332E+02  0.00000000000E+00 0. -1.
         22    1    3    3    0    0  0.54128120300E+01  0.70447536058E+02 -0.31817672949E+03  0.32592726959E+03  0.00000000000E+00 0.  1.
         22    1    3    3    0    0 -0.19715046415E+02  0.37997931427E+02 -0.13098333169E+04  0.13105326566E+04  0.00000000000E+00 0.  1.
</event>
<event>
 7    1  0.6557591E-006  0.7725452E+02  0.7818608E-02  0.1481810E+00
          2   -1    0    0  502    0  0.00000000000E+00  0.00000000000E+00  0.42252776703E+02  0.42252776703E+02  0.00000000000E+00 0. -1.
          1   -1    0    0  501    0 -0.00000000000E+00 -0.00000000000E+00 -0.13250400017E+04  0.13250400017E+04  0.00000000000E+00 0. -1.
         25    2    1    2    0    0  0.39976950519E+02 -0.85299847793E+02 -0.18100336456E+03  0.23929411794E+03  0.12500094516E+03 0.  0.
          2    1    1    2  501    0 -0.13823571611E+02  0.20664139218E+02 -0.10209272237E+04  0.10212298928E+04  0.00000000000E+00 0. -1.
          1    1    1    2  502    0 -0.26153378908E+02  0.64635708575E+02 -0.80856636726E+02  0.10676876769E+03  0.00000000000E+00 0. -1.
         22    1    3    3    0    0 -0.11784535577E+02 -0.98578980961E+01  0.15938443753E+02  0.22137918215E+02  0.00000000000E+00 0.  1.
         22    1    3    3    0    0  0.51761486095E+02 -0.75441949696E+02 -0.19694180831E+03  0.21715619972E+03  0.00000000000E+00 0.  1.
</event>
<event>
 7    1  0.6557591E-006  0.1749029E+03  0.7818608E-02  0.1222802E+00
          2   -1    0    0  502    0  0.00000000000E+00  0.00000000000E+00  0.23588399752E+04  0.23588399752E+04  0.00000000000E+00 0. -1.
          1   -1    0    0  501    0 -0.00000000000E+00 -0.00000000000E+00 -0.50892404746E+03  0.50892404746E+03  0.00000000000E+00 0. -1.
         25    2    1    2    0    0  0.22507806924E+03  0.13376822344E+03  0.78690358981E+02  0.30063128930E+03  0.12503169460E+03 0.  0.
          2    1    1    2  501    0 -0.15631367474E+03 -0.59218249719E+02 -0.37915272677E+03  0.41436403829E+03  0.00000000000E+00 0. -1.
          1    1    1    2  502    0 -0.68764394498E+02 -0.74549973724E+02  0.21503782956E+04  0.21527686951E+04  0.00000000000E+00 0. -1.
         22    1    3    3    0    0  0.19981055986E+03  0.12340456738E+03  0.10978972312E+03  0.25924260912E+03  0.00000000000E+00 0.  1.
         22    1    3    3    0    0  0.25267509378E+02  0.10363656065E+02 -0.31099364136E+02  0.41388680178E+02  0.00000000000E+00 0.  1.
</event>
<event>
 7    1  0.6557591E-006  0.1739842E+03  0.7818608E-02  0.1298088E+00
          2   -1    0    0  502    0  0.00000000000E+00  0.00000000000E+00  0.89656653827E+03  0.89656653827E+03  0.00000000000E+00 0. -1.
          1   -1    0    0  501    0 -0.00000000000E+00 -0.00000000000E+00 -0.80440642710E+03  0.80440642710E+03  0.00000000000E+00 0. -1.
         25    2    1    2    0    0  0.68040738055E+02  0.11394795477E+03  0.15852415538E+02  0.18300175994E+03  0.12499866652E+03 0.  0.
          2    1    1    2  501    0  0.84648369964E+01  0.47902120977E+02 -0.70993784840E+03  0.71160242780E+03  0.00000000000E+00 0. -1.
          1    1    1    2  502    0 -0.76505575051E+02 -0.16185007575E+03  0.78624554403E+03  0.80636877764E+03  0.00000000000E+00 0. -1.
         22    1    3    3    0    0 -0.17850068135E+02  0.84026187562E+02 -0.14501960514E+02  0.87116772135E+02  0.00000000000E+00 0. -1.
         22    1    3    3    0    0  0.85890806190E+02  0.29921767209E+02  0.30354376052E+02  0.95884987805E+02  0.00000000000E+00 0. -1.
</event>
<event>
 7    1  0.6557591E-006  0.2728513E+02  0.7818608E-02  0.1637068E+00
          2   -1    0    0  502    0  0.00000000000E+00  0.00000000000E+00  0.36521553383E+03  0.36521553383E+03  0.00000000000E+00 0. -1.
          1   -1    0    0  501    0 -0.00000000000E+00 -0.00000000000E+00 -0.15946998898E+04  0.15946998898E+04  0.00000000000E+00 0. -1.
         25    2    1    2    0    0  0.39528045146E+01 -0.15662953709E+02  0.29511935148E+02  0.12944670225E+03  0.12499816648E+03 0.  0.
          2    1    1    2  501    0  0.23359245172E+02  0.11920972797E+02 -0.15439559855E+04  0.15441786973E+04  0.00000000000E+00 0. -1.
          1    1    1    2  502    0 -0.27312049686E+02  0.37419809121E+01  0.28495969439E+03  0.28629002412E+03  0.00000000000E+00 0. -1.
         22    1    3    3    0    0 -0.11789962852E+02  0.53664700628E+02  0.13049579355E+02  0.56472956704E+02  0.00000000000E+00 0. -1.
         22    1    3    3    0    0  0.15742767366E+02 -0.69327654337E+02  0.16462355792E+02  0.72973745542E+02  0.00000000000E+00 0. -1.
</event>
<event>
 7    1  0.6557591E-006  0.4894707E+02  0.7818608E-02  0.1455550E+00
          2   -1    0    0  502    0  0.00000000000E+00  0.00000000000E+00  0.56748113984E+03  0.56748113984E+03  0.00000000000E+00 0. -1.
          1   -1    0    0  501    0 -0.00000000000E+00 -0.00000000000E+00 -0.12820069504E+04  0.12820069504E+04  0.00000000000E+00 0. -1.
         25    2    1    2    0    0  0.30406588901E+02 -0.70271142522E+02 -0.40496136744E+03  0.43067562530E+03  0.12500076396E+03 0.  0.
          2    1    1    2  501    0  0.11969949973E+02  0.45840198204E+02 -0.86245854007E+03  0.86375884181E+03  0.00000000000E+00 0. -1.
          1    1    1    2  502    0 -0.42376538874E+02  0.24430944317E+02  0.55289409695E+03  0.55505362311E+03  0.00000000000E+00 0. -1.
         22    1    3    3    0    0  0.44014366115E+02 -0.98411834557E+02 -0.24471428663E+03  0.26740836877E+03  0.00000000000E+00 0.  1.
         22    1    3    3    0    0 -0.13607777214E+02  0.28140692035E+02 -0.16024708081E+03  0.16326725653E+03  0.00000000000E+00 0.  1.
</event>
<event>
 7    1  0.6557591E-006  0.2965787E+03  0.7818608E-02  0.1233990E+00
          2   -1    0    0  502    0  0.00000000000E+00  0.00000000000E+00  0.12827155291E+04  0.12827155291E+04  0.00000000000E+00 0. -1.
          1   -1    0    0  501    0 -0.00000000000E+00 -0.00000000000E+00 -0.80366437315E+03  0.80366437315E+03  0.00000000000E+00 0. -1.
         25    2    1    2    0    0  0.23986864804E+03  0.77141593119E+02  0.67524943432E+02  0.28925468949E+03  0.12498345372E+03 0.  0.
          2    1    1    2  501    0  0.51942970653E+02  0.11815426757E+02 -0.67065437009E+03  0.67276664649E+03  0.00000000000E+00 0. -1.
          1    1    1    2  502    0 -0.29181161869E+03 -0.88957019877E+02  0.10821805826E+04  0.11243585663E+04  0.00000000000E+00 0. -1.
         22    1    3    3    0    0  0.15278464433E+03  0.70355547046E+02 -0.15276818341E+02  0.16889769602E+03  0.00000000000E+00 0. -1.
         22    1    3    3    0    0  0.87084003716E+02  0.67860460729E+01  0.82801761773E+02  0.12035699347E+03  0.00000000000E+00 0. -1.
</event>
<event>
 7    1  0.6557591E-006  0.8241155E+02  0.7818608E-02  0.1491092E+00
          2   -1    0    0  502    0  0.00000000000E+00  0.00000000000E+00  0.18940252708E+04  0.18940252708E+04  0.00000000000E+00 0. -1.
          1   -1    0    0  501    0 -0.00000000000E+00 -0.00000000000E+00 -0.13830838855E+04  0.13830838855E+04  0.00000000000E+00 0. -1.
         25    2    1    2    0    0  0.34904733968E+02 -0.71660736200E+02  0.31933934622E+03  0.35207455440E+03  0.12500108897E+03 0.  0.
          2    1    1    2  501    0  0.19690340512E+02  0.94475999061E+01 -0.13655297858E+04  0.13657044199E+04  0.00000000000E+00 0. -1.
          1    1    1    2  502    0 -0.54595074479E+02  0.62213136294E+02  0.15571318249E+04  0.15593301820E+04  0.00000000000E+00 0. -1.
         22    1    3    3    0    0 -0.78050821437E+00  0.27353288575E+02  0.15160114235E+03  0.15405102385E+03  0.00000000000E+00 0. -1.
         22    1    3    3    0    0  0.35685242182E+02 -0.99014024775E+02  0.16773820387E+03  0.19802353055E+03  0.00000000000E+00 0. -1.
</event>
<event>
 7    1  0.6557591E-006  0.4853127E+02  0.7818608E-02  0.1471847E+00
          2   -1    0    0  502    0  0.00000000000E+00  0.00000000000E+00  0.71199484925E+02  0.71199484925E+02  0.00000000000E+00 0. -1.
          1   -1    0    0  501    0 -0.00000000000E+00 -0.00000000000E+00 -0.15209898075E+04  0.15209898075E+04  0.00000000000E+00 0. -1.
         25    2    1    2    0    0  0.54250506959E+01 -0.47371480260E+01 -0.37537305452E+03  0.39570445571E+03  0.12500085783E+03 0.  0.
          2    1    1    2  501    0  0.35463739504E+02 -0.23375709752E+02 -0.11248980749E+04  0.11256996844E+04  0.00000000000E+00 0. -1.
          1    1    1    2  502    0 -0.40888790200E+02  0.28112857778E+02  0.50480806794E+02  0.70785152335E+02  0.00000000000E+00 0. -1.
         22    1    3    3    0    0 -0.19112380667E+02 -0.46602619212E+02 -0.31119817374E+03  0.31524814123E+03  0.00000000000E+00 0.  1.
         22    1    3    3    0    0  0.24537431363E+02  0.41865471186E+02 -0.64174880788E+02  0.80456314480E+02  0.00000000000E+00 0.  1.
</event>
<event>
 7    1  0.6557591E-006  0.1930712E+03  0.7818608E-02  0.1249573E+00
          2   -1    0    0  502    0  0.00000000000E+00  0.00000000000E+00  0.42345936355E+03  0.42345936355E+03  0.00000000000E+00 0. -1.
          1   -1    0    0  501    0 -0.00000000000E+00 -0.00000000000E+00 -0.21054135076E+04  0.21054135076E+04  0.00000000000E+00 0. -1.
         25    2    1    2    0    0  0.25099275582E+03 -0.73003230731E+02 -0.11271446273E+04  0.11637896611E+04  0.12499811718E+03 0.  0.
          2    1    1    2  501    0 -0.65676062514E+02  0.23885366223E+02 -0.93588989613E+03  0.93849547340E+03  0.00000000000E+00 0. -1.
          1    1    1    2  502    0 -0.18531669331E+03  0.49117864508E+02  0.38108037942E+03  0.42658773660E+03  0.00000000000E+00 0. -1.
         22    1    3    3    0    0 -0.64409121577E+01 -0.10590263963E+02 -0.10775123291E+02  0.16423833967E+02  0.00000000000E+00 0. -1.
         22    1    3    3    0    0  0.25743366798E+03 -0.62412966768E+02 -0.11163695040E+04  0.11473658272E+04  0.00000000000E+00 0. -1.
</event>
<event>
 7    1  0.6557591E-006  0.5004309E+02  0.7818608E-02  0.1540075E+00
          2   -1    0    0  502    0  0.00000000000E+00  0.00000000000E+00  0.66421992265E+03  0.66421992265E+03  0.00000000000E+00 0. -1.
          1   -1    0    0  501    0 -0.00000000000E+00 -0.00000000000E+00 -0.26591304852E+04  0.26591304852E+04  0.00000000000E+00 0. -1.
         25    2    1    2    0    0 -0.37766365376E+02 -0.56535151649E+02  0.20675860725E+02  0.14379133178E+03  0.12500373656E+03 0.  0.
          2    1    1    2  501    0  0.13276606364E+02  0.48205769748E+02 -0.25970445563E+04  0.25975258404E+04  0.00000000000E+00 0. -1.
          1    1    1    2  502    0  0.24489759011E+02  0.83293819010E+01  0.58145813302E+03  0.58203323561E+03  0.00000000000E+00 0. -1.
         22    1    3    3    0    0 -0.28507301446E+02 -0.86775650082E+02  0.46928604212E+02  0.10268872176E+03  0.00000000000E+00 0. -1.
         22    1    3    3    0    0 -0.92590639293E+01  0.30240498433E+02 -0.26252743487E+02  0.41102610025E+02  0.00000000000E+00 0. -1.
</event>
<event>
 7    1  0.6557591E-006  0.9590949E+02  0.7818608E-02  0.1421337E+00
          2   -1    0    0  502    0  0.00000000000E+00  0.00000000000E+00  0.42697668987E+03  0.42697668987E+03  0.00000000000E+00 0. -1.
          1   -1    0    0  501    0 -0.00000000000E+00 -0.00000000000E+00 -0.63355772121E+03  0.63355772121E+03  0.00000000000E+00 0. -1.
         25    2    1    2    0    0 -0.19409837783E+02 -0.68012601637E+02  0.14350664100E+02  0.14433027649E+03  0.12499132517E+03 0.  0.
          2    1    1    2  501    0 -0.23004062011E+02 -0.21138729314E+02 -0.56111520660E+03  0.56198425941E+03  0.00000000000E+00 0. -1.
          1    1    1    2  502    0  0.42413899794E+02  0.89151330951E+02  0.34018351116E+03  0.35421987518E+03  0.00000000000E+00 0. -1.
         22    1    3    3    0    0 -0.43135941564E+02 -0.56564899976E+00  0.48657204614E+02  0.65027324827E+02  0.00000000000E+00 0. -1.
         22    1    3    3    0    0  0.23726103780E+02 -0.67446952637E+02 -0.34306540513E+02  0.79302951664E+02  0.00000000000E+00 0. -1.
</event>
<event>
 7    1  0.6557591E-006  0.1257360E+03  0.7818608E-02  0.1366521E+00
          2   -1    0    0  502    0  0.00000000000E+00  0.00000000000E+00  0.95591928903E+03  0.95591928903E+03  0.00000000000E+00 0. -1.
          1   -1    0    0  501    0 -0.00000000000E+00 -0.00000000000E+00 -0.18316111431E+03  0.18316111431E+03  0.00000000000E+00 0. -1.
         25    2    1    2    0    0  0.76926974674E+02  0.59615815061E+02  0.17198004202E+03  0.23382307184E+03  0.12499715691E+03 0.  0.
          2    1    1    2  501    0 -0.88870625920E+02 -0.94562500066E+02 -0.12402993136E+03  0.17950899265E+03  0.00000000000E+00 0. -1.
          1    1    1    2  502    0  0.11943651246E+02  0.34946685005E+02  0.72480806406E+03  0.72574833884E+03  0.00000000000E+00 0. -1.
         22    1    3    3    0    0  0.10975841493E+03  0.48335388808E+02  0.10976460737E+03  0.16257763834E+03  0.00000000000E+00 0. -1.
         22    1    3    3    0    0 -0.32831440256E+02  0.11280426253E+02  0.62215434651E+02  0.71245433500E+02  0.00000000000E+00 0. -1.
</event>
<event>
 7    1  0.6557591E-006  0.8219853E+02  0.7818608E-02  0.1392022E+00
          2   -1    0    0  502    0  0.00000000000E+00  0.00000000000E+00  0.53682807694E+03  0.53682807694E+03  0.00000000000E+00 0. -1.
          1   -1    0    0  501    0 -0.00000000000E+00 -0.00000000000E+00 -0.12444383959E+03  0.12444383959E+03  0.00000000000E+00 0. -1.
         25    2    1    2    0    0 -0.63303670352E+02 -0.10516378922E+03  0.27108684143E+03  0.32277280387E+03  0.12500971994E+03 0.  0.
          2    1    1    2  501    0  0.29176913549E+02  0.74508113861E+02 -0.79613000724E+02  0.11287595492E+03  0.00000000000E+00 0. -1.
          1    1    1    2  502    0  0.34126756803E+02  0.30655675359E+02  0.22091039664E+03  0.22562315773E+03  0.00000000000E+00 0. -1.
         22    1    3    3    0    0 -0.76316785869E+02 -0.12262017453E+03  0.18911680339E+03  0.23796034193E+03  0.00000000000E+00 0. -1.
         22    1    3    3    0    0  0.13013115517E+02  0.17456385314E+02  0.81970038042E+02  0.84812461940E+02  0.00000000000E+00 0. -1.
</event>
<event>
 7    1  0.6557591E-006  0.5522809E+02  0.7818608E-02  0.1464565E+00
          2   -1    0    0  502    0  0.00000000000E+00  0.00000000000E+00  0.98315373146E+03  0.98315373146E+03  0.00000000000E+00 0. -1.
          1   -1    0    0  501    0 -0.00000000000E+00 -0.00000000000E+00 -0.11319818454E+04  0.11319818454E+04  0.00000000000E+00 0. -1.
         25    2    1    2    0    0 -0.34136597316E+02 -0.66056706900E+02  0.23558844797E+03  0.27686588352E+03  0.12499601929E+03 0.  0.
          2    1    1    2  501    0  0.37640024182E+02  0.11398000408E+02 -0.11099626891E+04  0.11106591993E+04  0.00000000000E+00 0. -1.
          1    1    1    2  502    0 -0.35034268658E+01  0.54658706493E+02  0.72554612724E+03  0.72761049398E+03  0.00000000000E+00 0. -1.
         22    1    3    3    0    0  0.29880704483E+02  0.17333591782E+02  0.29148852727E+02  0.45199176096E+02  0.00000000000E+00 0. -1.
         22    1    3    3    0    0 -0.64017301800E+02 -0.83390298683E+02  0.20643959524E+03  0.23166670742E+03  0.00000000000E+00 0. -1.
</event>
<event>
 7    1  0.8799391E-006  0.7180346E+02  0.7818608E-02  0.1442129E+00
          2   -1    0    0  502    0  0.00000000000E+00  0.00000000000E+00  0.87677632064E+03  0.87677632064E+03  0.00000000000E+00 0. -1.
          1   -1    0    0  501    0 -0.00000000000E+00 -0.00000000000E+00 -0.95668066501E+03  0.95668066501E+03  0.00000000000E+00 0. -1.
         25    2    1    2    0    0  0.86593779767E+02 -0.80898454437E+01 -0.19647584706E+03  0.24857872374E+03  0.12499878050E+03 0.  0.
          2    1    1    2  501    0 -0.23774948902E+02 -0.26576293057E+02 -0.73220590334E+03  0.73307368827E+03  0.00000000000E+00 0. -1.
          1    1    1    2  502    0 -0.62818830865E+02  0.34666138501E+02  0.84877740604E+03  0.85180457364E+03  0.00000000000E+00 0. -1.
         22    1    3    3    0    0  0.43834156499E+02 -0.60973608674E+02 -0.14497974653E+03  0.16327382256E+03  0.00000000000E+00 0.  1.
         22    1    3    3    0    0  0.42759623268E+02  0.52883763230E+02 -0.51496100532E+02  0.85304901181E+02  0.00000000000E+00 0.  1.
</event>
<event>
 7    1  0.6557591E-006  0.6127101E+02  0.7818608E-02  0.1395383E+00
          2   -1    0    0  502    0  0.00000000000E+00  0.00000000000E+00  0.11443649470E+02  0.11443649470E+02  0.00000000000E+00 0. -1.
          1   -1    0    0  501    0 -0.00000000000E+00 -0.00000000000E+00 -0.16310333859E+04  0.16310333859E+04  0.00000000000E+00 0. -1.
         25    2    1    2    0    0 -0.49967090286E+02 -0.11966613835E+02 -0.10018494219E+04  0.10109239807E+04  0.12500048201E+03 0.  0.
          2    1    1    2  501    0  0.30120768312E+02 -0.53356122566E+02 -0.34495661523E+03  0.35035582326E+03  0.00000000000E+00 0. -1.
          1    1    1    2  502    0  0.19846321974E+02  0.65322736401E+02 -0.27278369923E+03  0.28119723141E+03  0.00000000000E+00 0. -1.
         22    1    3    3    0    0 -0.44651925811E+02 -0.19507764713E+02 -0.12701656035E+03  0.13604247119E+03  0.00000000000E+00 0. -1.
         22    1    3    3    0    0 -0.53151644754E+01  0.75411508780E+01 -0.87483286158E+03  0.87488150948E+03  0.00000000000E+00 0. -1.
</event>
<event>
 7    1  0.6557591E-006  0.9536855E+02  0.7818608E-02  0.1317468E+00
          2   -1    0    0  502    0  0.00000000000E+00  0.00000000000E+00  0.50658793865E+03  0.50658793865E+03  0.00000000000E+00 0. -1.
          1   -1    0    0  501    0 -0.00000000000E+00 -0.00000000000E+00 -0.44604276403E+03  0.44604276403E+03  0.00000000000E+00 0. -1.
         25    2    1    2    0    0  0.59872091165E+02  0.15016433914E+03  0.21316844815E+02  0.20545894173E+03  0.12499989126E+03 0.  0.
          2    1    1    2  501    0 -0.44169929145E+02 -0.59852595318E+02 -0.34460616100E+03  0.35254322006E+03  0.00000000000E+00 0. -1.
          1    1    1    2  502    0 -0.15702162019E+02 -0.90311743820E+02  0.38383449080E+03  0.39462854090E+03  0.00000000000E+00 0. -1.
         22    1    3    3    0    0  0.97137732900E+02  0.84605740618E+02  0.10002672253E+02  0.12920496875E+03  0.00000000000E+00 0.  1.
         22    1    3    3    0    0 -0.37265641735E+02  0.65558598519E+02  0.11314172562E+02  0.76253972975E+02  0.00000000000E+00 0.  1.
</event>
<event>
 7    1  0.6557591E-006  0.2237951E+03  0.7818608E-02  0.1228836E+00
          2   -1    0    0  502    0  0.00000000000E+00  0.00000000000E+00  0.18833279207E+03  0.18833279207E+03  0.00000000000E+00 0. -1.
          1   -1    0    0  501    0 -0.00000000000E+00 -0.00000000000E+00 -0.12162541666E+04  0.12162541666E+04  0.00000000000E+00 0. -1.
         25    2    1    2    0    0 -0.26862793763E+03 -0.97079154255E+02 -0.41927697406E+03  0.52249745901E+03  0.12500033052E+03 0.  0.
          2    1    1    2  501    0  0.73426014796E+02  0.12266079031E+02 -0.65915612360E+03  0.66334653962E+03  0.00000000000E+00 0. -1.
          1    1    1    2  502    0  0.19520192283E+03  0.84813075224E+02  0.50511723114E+02  0.21874296006E+03  0.00000000000E+00 0. -1.
         22    1    3    3    0    0 -0.24090043227E+03 -0.65759629868E+02 -0.27133096707E+03  0.36875173339E+03  0.00000000000E+00 0.  1.
         22    1    3    3    0    0 -0.27727505355E+02 -0.31319524387E+02 -0.14794600699E+03  0.15374572562E+03  0.00000000000E+00 0.  1.
</event>
<event>
 7    1  0.6557591E-006  0.6507309E+02  0.7818608E-02  0.1451621E+00
          2   -1    0    0  502    0  0.00000000000E+00  0.00000000000E+00  0.12368093840E+03  0.12368093840E+03  0.00000000000E+00 0. -1.
          1   -1    0    0  501    0 -0.00000000000E+00 -0.00000000000E+00 -0.33300790938E+03  0.33300790938E+03  0.00000000000E+00 0. -1.
         25    2    1    2    0    0 -0.94931272890E+02  0.24983253584E+02 -0.12935988271E+03  0.20492720188E+03  0.12500027713E+03 0.  0.
          2    1    1    2  501    0  0.32702910383E+02 -0.16606510522E+02 -0.15190805885E+03  0.15627320590E+03  0.00000000000E+00 0. -1.
          1    1    1    2  502    0  0.62228362507E+02 -0.83767430619E+01  0.71940970583E+02  0.95488439997E+02  0.00000000000E+00 0. -1.
         22    1    3    3    0    0 -0.11359981909E+03 -0.23754044892E+01 -0.12886222223E+03  0.17180231011E+03  0.00000000000E+00 0.  1.
         22    1    3    3    0    0  0.18668546197E+02  0.27358658073E+02 -0.49766048493E+00  0.33124891768E+02  0.00000000000E+00 0.  1.
</event>
<event>
 7    1  0.6557591E-006  0.7187345E+02  0.7818608E-02  0.1405137E+00
          2   -1    0    0  502    0  0.00000000000E+00  0.00000000000E+00  0.29201253449E+03  0.29201253449E+03  0.00000000000E+00 0. -1.
          1   -1    0    0  501    0 -0.00000000000E+00 -0.00000000000E+00 -0.16783636677E+03  0.16783636677E+03  0.00000000000E+00 0. -1.
         25    2    1    2    0    0  0.61293847398E+02  0.72065464169E+02 -0.58748381424E+02  0.16741272874E+03  0.12500113028E+03 0.  0.
          2    1    1    2  501    0 -0.14674004692E+02 -0.64198820381E+02 -0.31401048055E+02  0.72957801303E+02  0.00000000000E+00 0. -1.
          1    1    1    2  502    0 -0.46619842706E+02 -0.78666437873E+01  0.21432559720E+03  0.21947837122E+03  0.00000000000E+00 0. -1.
         22    1    3    3    0    0  0.95324417246E+02  0.50780880253E+02 -0.16714220347E+02  0.10929230295E+03  0.00000000000E+00 0. -1.
         22    1    3    3    0    0 -0.34030569848E+02  0.21284583916E+02 -0.42034161077E+02  0.58120425791E+02  0.00000000000E+00 0. -1.
</event>
<event>
 7    1  0.6557591E-006  0.1340194E+03  0.7818608E-02  0.1251630E+00
          2   -1    0    0  502    0  0.00000000000E+00  0.00000000000E+00  0.40102374695E+04  0.40102374695E+04  0.00000000000E+00 0. -1.
          1   -1    0    0  501    0 -0.00000000000E+00 -0.00000000000E+00 -0.82741871021E+03  0.82741871021E+03  0.00000000000E+00 0. -1.
         25    2    1    2    0    0 -0.41606706344E+01  0.95929846664E+02  0.22140518209E+03  0.27178117200E+03  0.12499961654E+03 0.  0.
          2    1    1    2  501    0  0.98558632382E+02  0.38022862923E+01 -0.79794072342E+03  0.80401346972E+03  0.00000000000E+00 0. -1.
          1    1    1    2  502    0 -0.94397961748E+02 -0.99732132956E+02  0.37593543006E+04  0.37618615380E+04  0.00000000000E+00 0. -1.
         22    1    3    3    0    0  0.23622144680E+02  0.10277671787E+03  0.94216790070E+02  0.14141380055E+03  0.00000000000E+00 0. -1.
         22    1    3    3    0    0 -0.27782815315E+02 -0.68468712087E+01  0.12718839202E+03  0.13036737145E+03  0.00000000000E+00 0. -1.
</event>
<event>
 7    1  0.6557591E-006  0.3114758E+02  0.7818608E-02  0.1622113E+00
          2   -1    0    0  502    0  0.00000000000E+00  0.00000000000E+00  0.18704835157E+04  0.18704835157E+04  0.00000000000E+00 0. -1.
          1   -1    0    0  501    0 -0.00000000000E+00 -0.00000000000E+00 -0.24911370115E+03  0.24911370115E+03  0.00000000000E+00 0. -1.
         25    2    1    2    0    0  0.35534495351E+02  0.12631578038E+02  0.66394939711E+03  0.67666615473E+03  0.12500410355E+03 0.  0.
          2    1    1    2  501    0 -0.20327433001E+02  0.14643072417E+02 -0.24190518773E+03  0.24319898016E+03  0.00000000000E+00 0. -1.
          1    1    1    2  502    0 -0.15207062351E+02 -0.27274650455E+02  0.11993256051E+04  0.11997320819E+04  0.00000000000E+00 0. -1.
         22    1    3    3    0    0 -0.29323144930E+01  0.41216308488E+02  0.73850364817E+02  0.84624221930E+02  0.00000000000E+00 0.  1.
         22    1    3    3    0    0  0.38466809844E+02 -0.28584730450E+02  0.59009903230E+03  0.59204193280E+03  0.00000000000E+00 0.  1.
</event>
<event>
 7    1  0.6557591E-006  0.4392230E+02  0.7818608E-02  0.1570694E+00
          2   -1    0    0  502    0  0.00000000000E+00  0.00000000000E+00  0.17135535164E+03  0.17135535164E+03  0.00000000000E+00 0. -1.
          1   -1    0    0  501    0 -0.00000000000E+00 -0.00000000000E+00 -0.16966566016E+03  0.16966566016E+03  0.00000000000E+00 0. -1.
         25    2    1    2    0    0  0.65436019367E+02 -0.13338301287E+02  0.46163185128E+02  0.14904965189E+03  0.12499990463E+03 0.  0.
          2    1    1    2  501    0 -0.41216325972E+02  0.12255777831E+02 -0.11213538451E+03  0.12009718596E+03  0.00000000000E+00 0. -1.
          1    1    1    2  502    0 -0.24219693396E+02  0.10825234566E+01  0.67661890861E+02  0.71874173943E+02  0.00000000000E+00 0. -1.
         22    1    3    3    0    0  0.10040696136E+03 -0.15829320285E+02  0.16198531995E+02  0.10292967361E+03  0.00000000000E+00 0. -1.
         22    1    3    3    0    0 -0.34970941995E+02  0.24910189973E+01  0.29964653133E+02  0.46119978285E+02  0.00000000000E+00 0. -1.
</event>
<event>
 7    1  0.6557591E-006  0.1129572E+03  0.7818608E-02  0.1375304E+00
          2   -1    0    0  502    0  0.00000000000E+00  0.00000000000E+00  0.26740958380E+04  0.26740958380E+04  0.00000000000E+00 0. -1.
          1   -1    0    0  501    0 -0.00000000000E+00 -0.00000000000E+00 -0.38710612742E+03  0.38710612742E+03  0.00000000000E+00 0. -1.
         25    2    1    2    0    0  0.67840428048E+02  0.36781866006E+02 -0.29806218168E+03  0.33229708709E+03  0.12500024239E+03 0.  0.
          2    1    1    2  501    0  0.23087321440E+02  0.30471935004E+02 -0.65553946491E+02  0.75887305491E+02  0.00000000000E+00 0. -1.
          1    1    1    2  502    0 -0.90927749488E+02 -0.67253801011E+02  0.26506058387E+04  0.26530175728E+04  0.00000000000E+00 0. -1.
         22    1    3    3    0    0  0.95835749783E+02  0.30287882434E+02 -0.14418237270E+03  0.17575665949E+03  0.00000000000E+00 0. -1.
         22    1    3    3    0    0 -0.27995321735E+02  0.64939835729E+01 -0.15387980898E+03  0.15654042760E+03  0.00000000000E+00 0. -1.
</event>
<event>
 7    1  0.6557591E-006  0.1257194E+03  0.7818608E-02  0.1407666E+00
          2   -1    0    0  502    0  0.00000000000E+00  0.00000000000E+00  0.21638370331E+04  0.21638370331E+04  0.00000000000E+00 0. -1.
          1   -1    0    0  501    0 -0.00000000000E+00 -0.00000000000E+00 -0.50219034887E+03  0.50219034887E+03  0.00000000000E+00 0. -1.
         25    2    1    2    0    0  0.10643310912E+03 -0.42705562275E+02  0.46625464985E+03  0.49615545999E+03  0.12500028083E+03 0.  0.
          2    1    1    2  501    0 -0.12387163460E+03  0.22754193592E+02 -0.47899469335E+03  0.49527553083E+03  0.00000000000E+00 0. -1.
          1    1    1    2  502    0  0.17438525485E+02  0.19951368683E+02  0.16743867277E+04  0.16745963912E+04  0.00000000000E+00 0. -1.
         22    1    3    3    0    0  0.36227567480E+02  0.42019974835E+02  0.10850173356E+03  0.12186361687E+03  0.00000000000E+00 0.  1.
         22    1    3    3    0    0  0.70205541636E+02 -0.84725537110E+02  0.35775291630E+03  0.37429184313E+03  0.00000000000E+00 0.  1.
</event>
<event>
 7    1  0.6557591E-006  0.3003508E+03  0.7818608E-02  0.1186778E+00
          2   -1    0    0  502    0  0.00000000000E+00  0.00000000000E+00  0.10034367861E+04  0.10034367861E+04  0.00000000000E+00 0. -1.
          1   -1    0    0  501    0 -0.00000000000E+00 -0.00000000000E+00 -0.77941637272E+03  0.77941637272E+03  0.00000000000E+00 0. -1.
         25    2    1    2    0    0 -0.18164188607E+03  0.15312275150E+03  0.29340600363E+03  0.39767539609E+03  0.12497314066E+03 0.  0.
          2    1    1    2  501    0  0.19131434365E+03 -0.23965103686E+03 -0.69179255775E+03  0.75671047337E+03  0.00000000000E+00 0. -1.
          1    1    1    2  502    0 -0.96724575782E+01  0.86528285359E+02  0.62240696753E+03  0.62846728939E+03  0.00000000000E+00 0. -1.
         22    1    3    3    0    0 -0.15150171598E+03  0.17461252398E+03  0.24685393324E+03  0.33819989331E+03  0.00000000000E+00 0.  1.
         22    1    3    3    0    0 -0.30140170086E+02 -0.21489772474E+02  0.46552070388E+02  0.59475502782E+02  0.00000000000E+00 0.  1.
</event>
<event>
 7    1  0.6557591E-006  0.6515840E+02  0.7818608E-02  0.1393666E+00
          2   -1    0    0  502    0  0.00000000000E+00  0.00000000000E+00  0.18532238293E+04  0.18532238293E+04  0.00000000000E+00 0. -1.
          1   -1    0    0  501    0 -0.00000000000E+00 -0.00000000000E+00 -0.59229286476E+03  0.59229286476E+03  0.00000000000E+00 0. -1.
         25    2    1    2    0    0 -0.10667141457E+03 -0.52455433099E+02  0.45256007051E+03  0.48432084579E+03  0.12500280438E+03 0.  0.
          2    1    1    2  501    0  0.47311679473E+02  0.31994613272E+02 -0.57428348624E+03  0.57711660248E+03  0.00000000000E+00 0. -1.
          1    1    1    2  502    0  0.59359735099E+02  0.20460819826E+02  0.13826543802E+04  0.13840792458E+04  0.00000000000E+00 0. -1.
         22    1    3    3    0    0 -0.12456895853E+03 -0.63729831463E+02  0.43460689008E+03  0.45657646211E+03  0.00000000000E+00 0. -1.
         22    1    3    3    0    0  0.17897543960E+02  0.11274398365E+02  0.17953180423E+02  0.27744383677E+02  0.00000000000E+00 0. -1.
</event>
<event>
 7    1  0.6557591E-006  0.1509426E+03  0.7818608E-02  0.1287121E+00
          2   -1    0    0  502    0  0.00000000000E+00  0.00000000000E+00  0.67817284610E+03  0.67817284610E+03  0.00000000000E+00 0. -1.
          1   -1    0    0  501    0 -0.00000000000E+00 -0.00000000000E+00 -0.20065510418E+03  0.20065510418E+03  0.00000000000E+00 0. -1.
         25    2    1    2    0    0 -0.59056843633E+02  0.93556268343E+02  0.39278482154E+02  0.17149016664E+03  0.12500236785E+03 0.  0.
          2    1    1    2  501    0 -0.61390522436E+02  0.94162986875E+01 -0.11562519714E+03  0.13125033006E+03  0.00000000000E+00 0. -1.
          1    1    1    2  502    0  0.12044736607E+03 -0.10297256703E+03  0.55386445690E+03  0.57608745358E+03  0.00000000000E+00 0. -1.
         22    1    3    3    0    0 -0.41506270538E+02  0.92146842993E+01  0.68413413199E+02  0.80548594067E+02  0.00000000000E+00 0.  1.
         22    1    3    3    0    0 -0.17550573096E+02  0.84341584044E+02 -0.29134931045E+02  0.90941572573E+02  0.00000000000E+00 0.  1.
</event>
<event>
 7    1  0.6557591E-006  0.7617366E+02  0.7818608E-02  0.1340572E+00
          2   -1    0    0  502    0  0.00000000000E+00  0.00000000000E+00  0.14969224648E+04  0.14969224648E+04  0.00000000000E+00 0. -1.
          1   -1    0    0  501    0 -0.00000000000E+00 -0.00000000000E+00 -0.61993335300E+02  0.61993335300E+02  0.00000000000E+00 0. -1.
         25    2    1    2    0    0  0.25943643963E+02  0.31032561212E+02  0.10755613947E+03  0.16979242275E+03  0.12500020467E+03 0.  0.
          2    1    1    2  501    0 -0.66911552274E+02  0.35992114414E+02  0.18898001997E+02  0.78292545029E+02  0.00000000000E+00 0. -1.
          1    1    1    2  502    0  0.40967908311E+02 -0.67024675626E+02  0.13084749880E+04  0.13108308323E+04  0.00000000000E+00 0. -1.
         22    1    3    3    0    0  0.71256389270E+02  0.65970451698E+01  0.32061128569E+02  0.78414985697E+02  0.00000000000E+00 0. -1.
         22    1    3    3    0    0 -0.45312745307E+02  0.24435516042E+02  0.75495010905E+02  0.91377437057E+02  0.00000000000E+00 0. -1.
</event>
<event>
 7    1  0.6557591E-006  0.8264353E+02  0.7818608E-02  0.1487058E+00
          2   -1    0    0  502    0  0.00000000000E+00  0.00000000000E+00  0.45213921222E+03  0.45213921222E+03  0.00000000000E+00 0. -1.
          1   -1    0    0  501    0 -0.00000000000E+00 -0.00000000000E+00 -0.21716476723E+03  0.21716476723E+03  0.00000000000E+00 0. -1.
         25    2    1    2    0    0  0.85933081765E+01 -0.65255452456E+02  0.16005142706E+03  0.21348014837E+03  0.12500078170E+03 0.  0.
          2    1    1    2  501    0 -0.25977229982E+02  0.79381589556E+02 -0.18077961001E+03  0.19914196101E+03  0.00000000000E+00 0. -1.
          1    1    1    2  502    0  0.17383921805E+02 -0.14126137100E+02  0.25570262794E+03  0.25668187007E+03  0.00000000000E+00 0. -1.
         22    1    3    3    0    0  0.61410804456E+02 -0.22212191085E+02  0.11354800861E+03  0.13098785668E+03  0.00000000000E+00 0. -1.
         22    1    3    3    0    0 -0.52817496279E+02 -0.43043261371E+02  0.46503418443E+02  0.82492291698E+02  0.00000000000E+00 0. -1.
</event>
<event>
 7    1  0.6557591E-006  0.1078952E+03  0.7818608E-02  0.1393325E+00
          2   -1    0    0  502    0  0.00000000000E+00  0.00000000000E+00  0.59241398032E+03  0.59241398032E+03  0.00000000000E+00 0. -1.
          1   -1    0    0  501    0 -0.00000000000E+00 -0.00000000000E+00 -0.74773480153E+03  0.74773480153E+03  0.00000000000E+00 0. -1.
         25    2    1    2    0    0 -0.10923141202E+02  0.13542629256E+03 -0.39212638924E+03  0.43341319044E+03  0.12499717111E+03 0.  0.
          2    1    1    2  501    0  0.19975970409E+02 -0.28233876521E+02 -0.32899069422E+03  0.33080366996E+03  0.00000000000E+00 0. -1.
          1    1    1    2  502    0 -0.90528292070E+01 -0.10719241604E+03  0.56579626224E+03  0.57593192144E+03  0.00000000000E+00 0. -1.
         22    1    3    3    0    0 -0.38727941242E+02 -0.63930871725E+01 -0.67751237947E+02  0.78300416600E+02  0.00000000000E+00 0. -1.
         22    1    3    3    0    0  0.27804800039E+02  0.14181937973E+03 -0.32437515129E+03  0.35511277384E+03  0.00000000000E+00 0. -1.
</event>
<event>
 7    1  0.6557591E-006  0.6617418E+02  0.7818608E-02  0.1426953E+00
          2   -1    0    0  502    0  0.00000000000E+00  0.00000000000E+00  0.97053167653E+03  0.97053167653E+03  0.00000000000E+00 0. -1.
          1   -1    0    0  501    0 -0.00000000000E+00 -0.00000000000E+00 -0.47715018907E+02  0.47715018907E+02  0.00000000000E+00 0. -1.
         25    2    1    2    0    0  0.27913422032E+02 -0.55458728958E+02  0.34832151824E+03  0.37524380174E+03  0.12500080370E+03 0.  0.
          2    1    1    2  501    0  0.34253913787E+02  0.26613104896E+02 -0.17704225718E+02  0.46851121333E+02  0.00000000000E+00 0. -1.
          1    1    1    2  502    0 -0.62167335819E+02  0.28845624062E+02  0.59219936510E+03  0.59615177236E+03  0.00000000000E+00 0. -1.
         22    1    3    3    0    0  0.51358261544E+02  0.19679189617E+02  0.92799162124E+02  0.10787319419E+03  0.00000000000E+00 0. -1.
         22    1    3    3    0    0 -0.23444839512E+02 -0.75137918575E+02  0.25552235612E+03  0.26737060755E+03  0.00000000000E+00 0. -1.
</event>
<event>
 7    1  0.6557591E-006  0.7330530E+02  0.7818608E-02  0.1359931E+00
          2   -1    0    0  502    0  0.00000000000E+00  0.00000000000E+00  0.22507884456E+03  0.22507884456E+03  0.00000000000E+00 0. -1.
          1   -1    0    0  501    0 -0.00000000000E+00 -0.00000000000E+00 -0.18365311269E+03  0.18365311269E+03  0.00000000000E+00 0. -1.
         25    2    1    2    0    0  0.17683463845E+02 -0.57264382470E+01 -0.20788491145E+02  0.12806855013E+03  0.12499558065E+03 0.  0.
          2    1    1    2  501    0 -0.36929194506E+02  0.76460228200E+02 -0.82532579849E+02  0.11841266250E+03  0.00000000000E+00 0. -1.
          1    1    1    2  502    0  0.19245730661E+02 -0.70733789953E+02  0.14474680287E+03  0.16225074462E+03  0.00000000000E+00 0. -1.
         22    1    3    3    0    0 -0.14044193253E+02  0.18752288039E+02  0.45173817396E+02  0.50887733777E+02  0.00000000000E+00 0. -1.
         22    1    3    3    0    0  0.31727657098E+02 -0.24478726286E+02 -0.65962308541E+02  0.77180816357E+02  0.00000000000E+00 0. -1.
</event>
<event>
 7    1  0.6557591E-006  0.1259608E+03  0.7818608E-02  0.1353126E+00
          2   -1    0    0  502    0  0.00000000000E+00  0.00000000000E+00  0.37176499417E+04  0.37176499417E+04  0.00000000000E+00 0. -1.
          1   -1    0    0  501    0 -0.00000000000E+00 -0.00000000000E+00 -0.64601729374E+02  0.64601729374E+02  0.00000000000E+00 0. -1.
         25    2    1    2    0    0  0.11772742193E+02 -0.16159015011E+03  0.52979029289E+03  0.56793774604E+03  0.12500221944E+03 0.  0.
          2    1    1    2  501    0  0.10534864466E+02  0.39891074024E+02 -0.34713633843E+02  0.53919546833E+02  0.00000000000E+00 0. -1.
          1    1    1    2  502    0 -0.22307606659E+02  0.12169907609E+03  0.31579715533E+04  0.31603943782E+04  0.00000000000E+00 0. -1.
         22    1    3    3    0    0  0.55181597304E+01 -0.57300765084E+00 -0.61585544615E+01  0.82889213794E+01  0.00000000000E+00 0. -1.
         22    1    3    3    0    0  0.62545824629E+01 -0.16101714246E+03  0.53594884735E+03  0.55964882466E+03  0.00000000000E+00 0. -1.
</event>
<event>
 7    1  0.6557591E-006  0.5039965E+02  0.7818608E-02  0.1515610E+00
          2   -1    0    0  502    0  0.00000000000E+00  0.00000000000E+00  0.22535033701E+04  0.22535033701E+04  0.00000000000E+00 0. -1.
          1   -1    0    0  501    0 -0.00000000000E+00 -0.00000000000E+00 -0.20337498810E+03  0.20337498810E+03  0.00000000000E+00 0. -1.
         25    2    1    2    0    0  0.98086718094E+01 -0.22915101338E+02  0.95665872244E+03  0.96511199722E+03  0.12499577614E+03 0.  0.
          2    1    1    2  501    0 -0.74327244527E+00 -0.30188297760E+02 -0.19743858809E+03  0.19973452842E+03  0.00000000000E+00 0. -1.
          1    1    1    2  502    0 -0.90653993641E+01  0.53103399098E+02  0.12909082477E+04  0.12920318326E+04  0.00000000000E+00 0. -1.
         22    1    3    3    0    0 -0.43810047312E+02 -0.25494230281E+02  0.19222187230E+03  0.19879266640E+03  0.00000000000E+00 0. -1.
         22    1    3    3    0    0  0.53618719121E+02  0.25791289432E+01  0.76443685014E+03  0.76631933082E+03  0.00000000000E+00 0. -1.
</event>
<event>
 7    1  0.6557591E-006  0.5647982E+02  0.7818608E-02  0.1443560E+00
          2   -1    0    0  502    0  0.00000000000E+00  0.00000000000E+00  0.18925028731E+04  0.18925028731E+04  0.00000000000E+00 0. -1.
          1   -1    0    0  501    0 -0.00000000000E+00 -0.00000000000E+00 -0.44079335615E+02  0.44079335615E+02  0.00000000000E+00 0. -1.
         25    2    1    2    0    0  0.40460425140E+02 -0.50502081665E+02  0.14237654475E+03  0.20020897777E+03  0.12500019213E+03 0.  0.
          2    1    1    2  501    0  0.15531838238E+02  0.42077874548E+02  0.19554020708E+02  0.48930003590E+02  0.00000000000E+00 0. -1.
          1    1    1    2  502    0 -0.55992263378E+02  0.84242071169E+01  0.16864929720E+04  0.16874432273E+04  0.00000000000E+00 0. -1.
         22    1    3    3    0    0  0.19759567643E+02 -0.79573248961E+02  0.14263376098E+03  0.16451970166E+03  0.00000000000E+00 0.  1.
         22    1    3    3    0    0  0.20700857497E+02  0.29071167296E+02 -0.25721623503E+00  0.35689276110E+02  0.00000000000E+00 0.  1.
</event>
<event>
 7    1  0.6557591E-006  0.6388253E+02  0.7818608E-02  0.1474073E+00
          2   -1    0    0  502    0  0.00000000000E+00  0.00000000000E+00  0.19747533011E+04  0.19747533011E+04  0.00000000000E+00 0. -1.
          1   -1    0    0  501    0 -0.00000000000E+00 -0.00000000000E+00 -0.36136809408E+03  0.36136809408E+03  0.00000000000E+00 0. -1.
         25    2    1    2    0    0 -0.26328282051E+02 -0.86127650542E+02  0.65928456663E+02  0.16757808025E+03  0.12499880383E+03 0.  0.
          2    1    1    2  501    0  0.22284717892E+02  0.22628722997E+02 -0.30918486338E+03  0.31081175573E+03  0.00000000000E+00 0. -1.
          1    1    1    2  502    0  0.40435641597E+01  0.63498927545E+02  0.18566416138E+04  0.18577315592E+04  0.00000000000E+00 0. -1.
         22    1    3    3    0    0  0.36132692909E+02 -0.77070024625E+02  0.14895960871E+02  0.86413250389E+02  0.00000000000E+00 0.  1.
         22    1    3    3    0    0 -0.62460974960E+02 -0.90576259171E+01  0.51032495792E+02  0.81164829865E+02  0.00000000000E+00 0.  1.
</event>
<event>
 7    1  0.6557591E-006  0.1302944E+03  0.7818608E-02  0.1396743E+00
          2   -1    0    0  502    0  0.00000000000E+00  0.00000000000E+00  0.13978000500E+04  0.13978000500E+04  0.00000000000E+00 0. -1.
          1   -1    0    0  501    0 -0.00000000000E+00 -0.00000000000E+00 -0.13885982817E+03  0.13885982817E+03  0.00000000000E+00 0. -1.
         25    2    1    2    0    0  0.14815355411E+03 -0.33015517169E+02  0.50376413950E+03  0.54077987499E+03  0.12500025989E+03 0.  0.
          2    1    1    2  501    0 -0.27835098671E+02 -0.13911900066E+01 -0.11419586042E+03  0.11754753364E+03  0.00000000000E+00 0. -1.
          1    1    1    2  502    0 -0.12031845544E+03  0.34406707175E+02  0.86937194271E+03  0.87833246951E+03  0.00000000000E+00 0. -1.
         22    1    3    3    0    0  0.16402145882E+03 -0.30621292077E+02  0.49527338030E+03  0.52262455331E+03  0.00000000000E+00 0. -1.
         22    1    3    3    0    0 -0.15867904705E+02 -0.23942250918E+01  0.84907591970E+01  0.18155321679E+02  0.00000000000E+00 0. -1.
</event>
<event>
 7    1  0.6557591E-006  0.3904065E+02  0.7818608E-02  0.1520722E+00
          2   -1    0    0  502    0  0.00000000000E+00  0.00000000000E+00  0.22763367279E+04  0.22763367279E+04  0.00000000000E+00 0. -1.
          1   -1    0    0  501    0 -0.00000000000E+00 -0.00000000000E+00 -0.43277510042E+02  0.43277510042E+02  0.00000000000E+00 0. -1.
         25    2    1    2    0    0 -0.38887552535E+02  0.19595830392E+02  0.61719508273E+03  0.63122941297E+03  0.12499825331E+03 0.  0.
          2    1    1    2  501    0  0.64400656383E+01 -0.38732721582E+02 -0.25351108921E+02  0.46737317960E+02  0.00000000000E+00 0. -1.
          1    1    1    2  502    0  0.32447486897E+02  0.19136891190E+02  0.16412152440E+04  0.16416475070E+04  0.00000000000E+00 0. -1.
         22    1    3    3    0    0 -0.65212624595E+02  0.66427679339E+01  0.15746226964E+03  0.17056136472E+03  0.00000000000E+00 0. -1.
         22    1    3    3    0    0  0.26325072060E+02  0.12953062458E+02  0.45973281309E+03  0.46066804825E+03  0.00000000000E+00 0. -1.
</event>
<event>
 7    1  0.6557591E-006  0.5692878E+02  0.7818608E-02  0.1511710E+00
          2   -1    0    0  502    0  0.00000000000E+00  0.00000000000E+00  0.22594598792E+04  0.22594598792E+04  0.00000000000E+00 0. -1.
          1   -1    0    0  501    0 -0.00000000000E+00 -0.00000000000E+00 -0.10837282289E+02  0.10837282289E+02  0.00000000000E+00 0. -1.
         25    2    1    2    0    0  0.14728151274E+02 -0.42824228098E+02  0.93349785772E+03  0.94291813565E+03  0.12500210881E+03 0.  0.
          2    1    1    2  501    0  0.74811468453E+01  0.58950873260E+02  0.14198846977E+03  0.15392172869E+03  0.00000000000E+00 0. -1.
          1    1    1    2  502    0 -0.22209298119E+02 -0.16126645162E+02  0.11731362694E+04  0.11734572971E+04  0.00000000000E+00 0. -1.
         22    1    3    3    0    0 -0.91685229829E+01 -0.14572067700E+02  0.86409977417E+03  0.86427126916E+03  0.00000000000E+00 0. -1.
         22    1    3    3    0    0  0.23896674257E+02 -0.28252160399E+02  0.69398083548E+02  0.78646866485E+02  0.00000000000E+00 0. -1.
</event>
<event>
 7    1  0.6557591E-006  0.6208592E+02  0.7818608E-02  0.1468754E+00
          2   -1    0    0  502    0  0.00000000000E+00  0.00000000000E+00  0.35847320310E+03  0.35847320310E+03  0.00000000000E+00 0. -1.
          1   -1    0    0  501    0 -0.00000000000E+00 -0.00000000000E+00 -0.63858321376E+03  0.63858321376E+03  0.00000000000E+00 0. -1.
         25    2    1    2    0    0 -0.39476006505E+02  0.31995397239E+02  0.48333206415E+02  0.14332904768E+03  0.12500022613E+03 0.  0.
          2    1    1    2  501    0  0.18915788001E+02  0.28186177731E+02 -0.58673767196E+03  0.58771877913E+03  0.00000000000E+00 0. -1.
          1    1    1    2  502    0  0.20560218505E+02 -0.60181574970E+02  0.25829445489E+03  0.26600859004E+03  0.00000000000E+00 0. -1.
         22    1    3    3    0    0 -0.78529616183E+02  0.14398998093E+02  0.14884177330E+01  0.79852659012E+02  0.00000000000E+00 0. -1.
         22    1    3    3    0    0  0.39053609678E+02  0.17596399146E+02  0.46844788682E+02  0.63476388669E+02  0.00000000000E+00 0. -1.
</event>
<event>
 7    1  0.6557591E-006  0.1417507E+03  0.7818608E-02  0.1409659E+00
          2   -1    0    0  502    0  0.00000000000E+00  0.00000000000E+00  0.96509711610E+03  0.96509711610E+03  0.00000000000E+00 0. -1.
          1   -1    0    0  501    0 -0.00000000000E+00 -0.00000000000E+00 -0.32800296022E+03  0.32800296022E+03  0.00000000000E+00 0. -1.
         25    2    1    2    0    0  0.31007406442E+02 -0.13561885194E+03  0.72215300883E+02  0.20048373197E+03  0.12499897938E+03 0.  0.
          2    1    1    2  501    0 -0.53825239541E+02  0.13178157560E+03 -0.24449286957E+03  0.28291395043E+03  0.00000000000E+00 0. -1.
          1    1    1    2  502    0  0.22817833099E+02  0.38372763439E+01  0.80937172456E+03  0.80970239392E+03  0.00000000000E+00 0. -1.
         22    1    3    3    0    0  0.33750794125E+02 -0.12439699377E+03  0.15737984904E+01  0.12890385954E+03  0.00000000000E+00 0.  1.
         22    1    3    3    0    0 -0.27433876832E+01 -0.11221858179E+02  0.70641502393E+02  0.71579872431E+02  0.00000000000E+00 0.  1.
</event>
<event>
 7    1  0.6557591E-006  0.6774776E+02  0.7818608E-02  0.1395866E+00
          2   -1    0    0  502    0  0.00000000000E+00  0.00000000000E+00  0.45493371713E+02  0.45493371713E+02  0.00000000000E+00 0. -1.
          1   -1    0    0  501    0 -0.00000000000E+00 -0.00000000000E+00 -0.92231261862E+03  0.92231261862E+03  0.00000000000E+00 0. -1.
         25    2    1    2    0    0 -0.17689694718E+02  0.67330732805E+01 -0.19591716646E+03  0.23316821529E+03  0.12500248371E+03 0.  0.
          2    1    1    2  501    0  0.69182948278E+02 -0.22914349158E+02 -0.67657493272E+03  0.68048878559E+03  0.00000000000E+00 0. -1.
          1    1    1    2  502    0 -0.51493253560E+02  0.16181275878E+02 -0.43271477268E+01  0.54148989452E+02  0.00000000000E+00 0. -1.
         22    1    3    3    0    0 -0.71062135763E+02  0.37421920687E+01 -0.92013592437E+02  0.11631995673E+03  0.00000000000E+00 0. -1.
         22    1    3    3    0    0  0.53372441045E+02  0.29908812118E+01 -0.10390357403E+03  0.11684825856E+03  0.00000000000E+00 0. -1.
</event>
<event>
 7    1  0.6557591E-006  0.6147848E+02  0.7818608E-02  0.1465097E+00
          2   -1    0    0  502    0  0.00000000000E+00  0.00000000000E+00  0.10584456868E+04  0.10584456868E+04  0.00000000000E+00 0. -1.
          1   -1    0    0  501    0 -0.00000000000E+00 -0.00000000000E+00 -0.14002857640E+02  0.14002857640E+02  0.00000000000E+00 0. -1.
         25    2    1    2    0    0 -0.49363019531E+02  0.32258051586E+02  0.51363269800E+03  0.53190313525E+03  0.12500042900E+03 0.  0.
          2    1    1    2  501    0  0.66909914925E+02 -0.17499635897E+01  0.34769762905E+03  0.35408140355E+03  0.00000000000E+00 0. -1.
          1    1    1    2  502    0 -0.17546895394E+02 -0.30508087996E+02  0.18311250212E+03  0.18646400565E+03  0.00000000000E+00 0. -1.
         22    1    3    3    0    0 -0.83080874142E+01  0.35543256432E+02  0.32087832323E+02  0.48600168492E+02  0.00000000000E+00 0.  1.
         22    1    3    3    0    0 -0.41054932117E+02 -0.32852048458E+01  0.48154486568E+03  0.48330296676E+03  0.00000000000E+00 0.  1.
</event>
<event>
 7    1  0.6557591E-006  0.8239711E+02  0.7818608E-02  0.1351692E+00
          2   -1    0    0  502    0  0.00000000000E+00  0.00000000000E+00  0.14449036955E+03  0.14449036955E+03  0.00000000000E+00 0. -1.
          1   -1    0    0  501    0 -0.00000000000E+00 -0.00000000000E+00 -0.42763426437E+03  0.42763426437E+03  0.00000000000E+00 0. -1.
         25    2    1    2    0    0 -0.10371266853E+03  0.66965551062E+02 -0.83201754194E+02  0.19439107213E+03  0.12499861752E+03 0.  0.
          2    1    1    2  501    0  0.25703685278E+02 -0.58443385350E+02 -0.26699020738E+03  0.27451790390E+03  0.00000000000E+00 0. -1.
          1    1    1    2  502    0  0.78008983253E+02 -0.85221657119E+01  0.67048066755E+02  0.10321565788E+03  0.00000000000E+00 0. -1.
         22    1    3    3    0    0 -0.14534997479E+02  0.71270659701E+02 -0.57121421511E+00  0.72739943440E+02  0.00000000000E+00 0.  1.
         22    1    3    3    0    0 -0.89177671053E+02 -0.43051086399E+01 -0.82630539979E+02  0.12165112869E+03  0.00000000000E+00 0.  1.
</event>
<event>
 7    1  0.6557591E-006  0.3651681E+02  0.7818608E-02  0.1562387E+00
          2   -1    0    0  502    0  0.00000000000E+00  0.00000000000E+00  0.21143718355E+04  0.21143718355E+04  0.00000000000E+00 0. -1.
          1   -1    0    0  501    0 -0.00000000000E+00 -0.00000000000E+00 -0.20014633073E+02  0.20014633073E+02  0.00000000000E+00 0. -1.
         25    2    1    2    0    0  0.29065136797E+02 -0.45744000642E+02  0.59014526807E+03  0.60566752590E+03  0.12499767491E+03 0.  0.
          2    1    1    2  501    0 -0.32707274888E+02  0.15237469161E+02  0.14815572453E+02  0.39005736554E+02  0.00000000000E+00 0. -1.
          1    1    1    2  502    0  0.36421380908E+01  0.30506531482E+02  0.14893963619E+04  0.14897132061E+04  0.00000000000E+00 0. -1.
         22    1    3    3    0    0  0.48496537903E+02  0.24403296031E+02  0.14953496682E+03  0.15908532725E+03  0.00000000000E+00 0. -1.
         22    1    3    3    0    0 -0.19431401106E+02 -0.70147296674E+02  0.44061030125E+03  0.44658219865E+03  0.00000000000E+00 0. -1.
</event>
<event>
 7    1  0.6557591E-006  0.8691348E+02  0.7818608E-02  0.1390989E+00
          2   -1    0    0  502    0  0.00000000000E+00  0.00000000000E+00  0.26950976247E+04  0.26950976247E+04  0.00000000000E+00 0. -1.
          1   -1    0    0  501    0 -0.00000000000E+00 -0.00000000000E+00 -0.16667084633E+04  0.16667084633E+04  0.00000000000E+00 0. -1.
         25    2    1    2    0    0  0.32406054125E+02 -0.34206479250E+02  0.58230846833E+03  0.59743491242E+03  0.12500034690E+03 0.  0.
          2    1    1    2  501    0 -0.39894671607E+02  0.77307005425E+02 -0.16577773619E+04  0.16600583543E+04  0.00000000000E+00 0. -1.
          1    1    1    2  502    0  0.74886174824E+01 -0.43100526176E+02  0.21038580549E+04  0.21043128213E+04  0.00000000000E+00 0. -1.
         22    1    3    3    0    0  0.48429706364E+02 -0.36975046685E+02  0.57717575940E+03  0.58038301817E+03  0.00000000000E+00 0. -1.
         22    1    3    3    0    0 -0.16023652239E+02  0.27685674349E+01  0.51327089284E+01  0.17051894255E+02  0.00000000000E+00 0. -1.
</event>
<event>
 7    1  0.6557591E-006  0.7158148E+02  0.7818608E-02  0.1404807E+00
          2   -1    0    0  502    0  0.00000000000E+00  0.00000000000E+00  0.46336892525E+03  0.46336892525E+03  0.00000000000E+00 0. -1.
          1   -1    0    0  501    0 -0.00000000000E+00 -0.00000000000E+00 -0.11169270128E+04  0.11169270128E+04  0.00000000000E+00 0. -1.
         25    2    1    2    0    0  0.63963265211E+02  0.28321464762E+02 -0.33974408468E+03  0.36870796627E+03  0.12500446654E+03 0.  0.
          2    1    1    2  501    0 -0.33878995509E+02 -0.65202638699E+02 -0.75966167643E+03  0.76320707090E+03  0.00000000000E+00 0. -1.
          1    1    1    2  502    0 -0.30084269701E+02  0.36881173936E+02  0.44584767354E+03  0.44838090089E+03  0.00000000000E+00 0. -1.
         22    1    3    3    0    0  0.11587256360E+02  0.49824554429E+02 -0.28635273169E+03  0.29088595305E+03  0.00000000000E+00 0.  1.
         22    1    3    3    0    0  0.52376008850E+02 -0.21503089667E+02 -0.53391352990E+02  0.77822013225E+02  0.00000000000E+00 0.  1.
</event>
<event>
 7    1  0.6557591E-006  0.1076319E+03  0.7818608E-02  0.1372729E+00
          2   -1    0    0  502    0  0.00000000000E+00  0.00000000000E+00  0.25572116126E+04  0.25572116126E+04  0.00000000000E+00 0. -1.
          1   -1    0    0  501    0 -0.00000000000E+00 -0.00000000000E+00 -0.56607600595E+03  0.56607600595E+03  0.00000000000E+00 0. -1.
         25    2    1    2    0    0  0.13526696075E+03  0.54096900663E+02  0.25455144854E+03  0.31880192857E+03  0.12495841059E+03 0.  0.
          2    1    1    2  501    0 -0.94482960209E+02 -0.50083128064E+02 -0.52840943042E+03  0.53912139231E+03  0.00000000000E+00 0. -1.
          1    1    1    2  502    0 -0.40784000542E+02 -0.40137725989E+01  0.22649935886E+04  0.22653642977E+04  0.00000000000E+00 0. -1.
         22    1    3    3    0    0  0.40934887187E+02 -0.38555666937E+02  0.50066052007E+02  0.75291526784E+02  0.00000000000E+00 0. -1.
         22    1    3    3    0    0  0.94332073564E+02  0.92652567600E+02  0.20448539653E+03  0.24351040179E+03  0.00000000000E+00 0. -1.
</event>
<event>
 7    1  0.6557591E-006  0.1651139E+03  0.7818608E-02  0.1335900E+00
          2   -1    0    0  502    0  0.00000000000E+00  0.00000000000E+00  0.12321972757E+04  0.12321972757E+04  0.00000000000E+00 0. -1.
          1   -1    0    0  501    0 -0.00000000000E+00 -0.00000000000E+00 -0.10832748899E+03  0.10832748899E+03  0.00000000000E+00 0. -1.
         25    2    1    2    0    0 -0.48028747760E+02 -0.12905721456E+03  0.27441400304E+03  0.33149747614E+03  0.12500002552E+03 0.  0.
          2    1    1    2  501    0 -0.21656520615E+01 -0.36439105547E+02 -0.67052668875E+02  0.76344998953E+02  0.00000000000E+00 0. -1.
          1    1    1    2  502    0  0.50194399821E+02  0.16549632011E+03  0.91650845251E+03  0.93268228956E+03  0.00000000000E+00 0. -1.
         22    1    3    3    0    0 -0.26731608923E+02 -0.12885979601E+03  0.12814514210E+03  0.18368615459E+03  0.00000000000E+00 0. -1.
         22    1    3    3    0    0 -0.21297138837E+02 -0.19741854591E+00  0.14626886094E+03  0.14781132155E+03  0.00000000000E+00 0. -1.
</event>
<event>
 7    1  0.6557591E-006  0.1284922E+03  0.7818608E-02  0.1278238E+00
          2   -1    0    0  502    0  0.00000000000E+00  0.00000000000E+00  0.11706804241E+04  0.11706804241E+04  0.00000000000E+00 0. -1.
          1   -1    0    0  501    0 -0.00000000000E+00 -0.00000000000E+00 -0.42175296319E+03  0.42175296319E+03  0.00000000000E+00 0. -1.
         25    2    1    2    0    0 -0.15259129031E+03  0.63196058114E+02  0.64475602647E+03  0.67721083535E+03  0.12500535272E+03 0.  0.
          2    1    1    2  501    0  0.81676887585E+02 -0.98836272084E+02 -0.39215852168E+03  0.41258699540E+03  0.00000000000E+00 0. -1.
          1    1    1    2  502    0  0.70914402728E+02  0.35640213969E+02  0.49632995611E+03  0.50263555654E+03  0.00000000000E+00 0. -1.
         22    1    3    3    0    0  0.20507007096E+02  0.19243927344E+02  0.10347232370E+03  0.10722587305E+03  0.00000000000E+00 0. -1.
         22    1    3    3    0    0 -0.17309829741E+03  0.43952130771E+02  0.54128370277E+03  0.56998496230E+03  0.00000000000E+00 0. -1.
</event>
<event>
 7    1  0.6557591E-006  0.5728416E+02  0.7818608E-02  0.1491560E+00
          2   -1    0    0  502    0  0.00000000000E+00  0.00000000000E+00  0.16419732425E+04  0.16419732425E+04  0.00000000000E+00 0. -1.
          1   -1    0    0  501    0 -0.00000000000E+00 -0.00000000000E+00 -0.69074736807E+03  0.69074736807E+03  0.00000000000E+00 0. -1.
         25    2    1    2    0    0 -0.28233101314E+02  0.84889547183E+01  0.35197595384E+03  0.37467457087E+03  0.12499916644E+03 0.  0.
          2    1    1    2  501    0  0.57294475627E+02  0.31821794802E+01 -0.67799411966E+03  0.68041811374E+03  0.00000000000E+00 0. -1.
          1    1    1    2  502    0 -0.29061374313E+02 -0.11671134199E+02  0.12772440403E+04  0.12776279260E+04  0.00000000000E+00 0. -1.
         22    1    3    3    0    0  0.47812404072E+02  0.12269125655E+02  0.17903008851E+03  0.18571033902E+03  0.00000000000E+00 0.  1.
         22    1    3    3    0    0 -0.76045505386E+02 -0.37801709369E+01  0.17294586533E+03  0.18896423185E+03  0.00000000000E+00 0.  1.
</event>
<event>
 7    1  0.6557591E-006  0.4257163E+02  0.7818608E-02  0.1541677E+00
          2   -1    0    0  502    0  0.00000000000E+00  0.00000000000E+00  0.47686933319E+03  0.47686933319E+03  0.00000000000E+00 0. -1.
          1   -1    0    0  501    0 -0.00000000000E+00 -0.00000000000E+00 -0.68953421423E+03  0.68953421423E+03  0.00000000000E+00 0. -1.
         25    2    1    2    0    0 -0.68028727188E+02  0.17258770707E+02  0.17663787282E+03  0.22748942809E+03  0.12499891554E+03 0.  0.
          2    1    1    2  501    0  0.37988213053E+02 -0.19020920736E+02 -0.66260230340E+03  0.66396288468E+03  0.00000000000E+00 0. -1.
          1    1    1    2  502    0  0.30040514135E+02  0.17621500292E+01  0.27329954954E+03  0.27495123466E+03  0.00000000000E+00 0. -1.
         22    1    3    3    0    0 -0.67877978999E+02 -0.38595245524E+02  0.61059405104E+02  0.99122469510E+02  0.00000000000E+00 0. -1.
         22    1    3    3    0    0 -0.15074818886E+00  0.55854016231E+02  0.11557846772E+03  0.12836695858E+03  0.00000000000E+00 0. -1.
</event>
<event>
 7    1  0.6557591E-006  0.7487536E+02  0.7818608E-02  0.1472985E+00
          2   -1    0    0  502    0  0.00000000000E+00  0.00000000000E+00  0.15666642079E+04  0.15666642079E+04  0.00000000000E+00 0. -1.
          1   -1    0    0  501    0 -0.00000000000E+00 -0.00000000000E+00 -0.16153800966E+02  0.16153800966E+02  0.00000000000E+00 0. -1.
         25    2    1    2    0    0  0.68493880264E+02  0.18235308604E+02  0.12946719205E+04  0.13026224481E+04  0.12500368939E+03 0.  0.
          2    1    1    2  501    0  0.42860408394E+01  0.26969315401E+02  0.45330086933E+02  0.52920042523E+02  0.00000000000E+00 0. -1.
          1    1    1    2  502    0 -0.72779921104E+02 -0.45204624005E+02  0.21050839950E+03  0.22727551827E+03  0.00000000000E+00 0. -1.
         22    1    3    3    0    0  0.97013842082E+02 -0.16205421556E+02  0.83157767387E+03  0.83737430635E+03  0.00000000000E+00 0.  1.
         22    1    3    3    0    0 -0.28519961818E+02  0.34440730160E+02  0.46309424662E+03  0.46524814171E+03  0.00000000000E+00 0.  1.
</event>
<event>
 7    1  0.6557591E-006  0.4111693E+02  0.7818608E-02  0.1510552E+00
          2   -1    0    0  502    0  0.00000000000E+00  0.00000000000E+00  0.94936379886E+03  0.94936379886E+03  0.00000000000E+00 0. -1.
          1   -1    0    0  501    0 -0.00000000000E+00 -0.00000000000E+00 -0.23199262482E+03  0.23199262482E+03  0.00000000000E+00 0. -1.
         25    2    1    2    0    0  0.47594372061E+02 -0.60845077540E+02  0.35837016655E+03  0.38732574555E+03  0.12499883672E+03 0.  0.
          2    1    1    2  501    0 -0.19973545137E+02  0.32679936578E+02 -0.21514676329E+03  0.21852928983E+03  0.00000000000E+00 0. -1.
          1    1    1    2  502    0 -0.27620826925E+02  0.28165140961E+02  0.57414777077E+03  0.57550138830E+03  0.00000000000E+00 0. -1.
         22    1    3    3    0    0  0.60814475582E+02  0.39483363167E+00  0.28230475451E+03  0.28878111218E+03  0.00000000000E+00 0. -1.
         22    1    3    3    0    0 -0.13220103521E+02 -0.61239911172E+02  0.76065412044E+02  0.98544633374E+02  0.00000000000E+00 0. -1.
</event>
<event>
 7    1  0.6557591E-006  0.5819138E+02  0.7818608E-02  0.1473040E+00
          2   -1    0    0  502    0  0.00000000000E+00  0.00000000000E+00  0.21234498812E+03  0.21234498812E+03  0.00000000000E+00 0. -1.
          1   -1    0    0  501    0 -0.00000000000E+00 -0.00000000000E+00 -0.47505707673E+03  0.47505707673E+03  0.00000000000E+00 0. -1.
         25    2    1    2    0    0 -0.20422033388E+02  0.40261984631E+02 -0.21583250092E+02  0.13464309321E+03  0.12499935604E+03 0.  0.
          2    1    1    2  501    0  0.52744490543E+02 -0.26518017355E+02 -0.39272997632E+03  0.39714231810E+03  0.00000000000E+00 0. -1.
          1    1    1    2  502    0 -0.32322457155E+02 -0.13743967277E+02  0.15160113781E+03  0.15561665354E+03  0.00000000000E+00 0. -1.
         22    1    3    3    0    0 -0.68184483605E+02  0.34598835485E+01  0.56020839903E+01  0.68501663803E+02  0.00000000000E+00 0.  1.
         22    1    3    3    0    0  0.47762450218E+02  0.36802101083E+02 -0.27185334082E+02  0.66141429408E+02  0.00000000000E+00 0.  1.
</event>
<event>
 7    1  0.6557591E-006  0.6437688E+02  0.7818608E-02  0.1477405E+00
          2   -1    0    0  502    0  0.00000000000E+00  0.00000000000E+00  0.15166769353E+04  0.15166769353E+04  0.00000000000E+00 0. -1.
          1   -1    0    0  501    0 -0.00000000000E+00 -0.00000000000E+00 -0.39212393107E+03  0.39212393107E+03  0.00000000000E+00 0. -1.
         25    2    1    2    0    0 -0.17003201840E+02 -0.67767084443E+02  0.48675385072E+03  0.50738189333E+03  0.12500235149E+03 0.  0.
          2    1    1    2  501    0 -0.13399880357E+02  0.62975760253E+02 -0.37886098491E+03  0.38429305102E+03  0.00000000000E+00 0. -1.
          1    1    1    2  502    0  0.30403082197E+02  0.47913241894E+01  0.10166601384E+04  0.10171259220E+04  0.00000000000E+00 0. -1.
         22    1    3    3    0    0  0.22371357492E+02 -0.56127809060E+02  0.89346827124E+02  0.10785946460E+03  0.00000000000E+00 0. -1.
         22    1    3    3    0    0 -0.39374559332E+02 -0.11639275383E+02  0.39740702360E+03  0.39952242873E+03  0.00000000000E+00 0. -1.
</event>
<event>
 7    1  0.6557591E-006  0.5328369E+02  0.7818608E-02  0.1498728E+00
          2   -1    0    0  502    0  0.00000000000E+00  0.00000000000E+00  0.13488749365E+04  0.13488749365E+04  0.00000000000E+00 0. -1.
          1   -1    0    0  501    0 -0.00000000000E+00 -0.00000000000E+00 -0.89182555490E+03  0.89182555490E+03  0.00000000000E+00 0. -1.
         25    2    1    2    0    0 -0.25358661395E+02  0.28604191513E+01  0.14053007060E+03  0.18980928453E+03  0.12501047974E+03 0.  0.
          2    1    1    2  501    0  0.50773245910E+02  0.16650133481E+02 -0.86614567211E+03  0.86779229932E+03  0.00000000000E+00 0. -1.
          1    1    1    2  502    0 -0.25414584515E+02 -0.19510552632E+02  0.11826649831E+04  0.11830989075E+04  0.00000000000E+00 0. -1.
         22    1    3    3    0    0  0.17435242652E+01  0.20778475906E+02 -0.18267815133E+02  0.27721796615E+02  0.00000000000E+00 0.  1.
         22    1    3    3    0    0 -0.27102185660E+02 -0.17918056755E+02  0.15879788574E+03  0.16208748792E+03  0.00000000000E+00 0.  1.
</event>
<event>
 7    1  0.6557591E-006  0.9868209E+02  0.7818608E-02  0.1418114E+00
          2   -1    0    0  502    0  0.00000000000E+00  0.00000000000E+00  0.72597115674E+03  0.72597115674E+03  0.00000000000E+00 0. -1.
          1   -1    0    0  501    0 -0.00000000000E+00 -0.00000000000E+00 -0.59615350684E+03  0.59615350684E+03  0.00000000000E+00 0. -1.
         25    2    1    2    0    0  0.16980399430E+02  0.93389784227E+02  0.21528079630E+03  0.26642373085E+03  0.12500318932E+03 0.  0.
          2    1    1    2  501    0  0.30687936382E+02 -0.52038356857E+01 -0.56497043559E+03  0.56582720192E+03  0.00000000000E+00 0. -1.
          1    1    1    2  502    0 -0.47668335812E+02 -0.88185948541E+02  0.47950728919E+03  0.48987373082E+03  0.00000000000E+00 0. -1.
         22    1    3    3    0    0 -0.52154048417E+02  0.36151805309E+02  0.61519128051E+02  0.88383261478E+02  0.00000000000E+00 0.  1.
         22    1    3    3    0    0  0.69134447847E+02  0.57237978918E+02  0.15376166825E+03  0.17804046937E+03  0.00000000000E+00 0.  1.
</event>
<event>
 7    1  0.6557591E-006  0.1086308E+03  0.7818608E-02  0.1313075E+00
          2   -1    0    0  502    0  0.00000000000E+00  0.00000000000E+00  0.38252742537E+03  0.38252742537E+03  0.00000000000E+00 0. -1.
          1   -1    0    0  501    0 -0.00000000000E+00 -0.00000000000E+00 -0.71282390357E+03  0.71282390357E+03  0.00000000000E+00 0. -1.
         25    2    1    2    0    0 -0.44723915000E+02 -0.62482259818E+02 -0.99512338026E+01  0.14706252412E+03  0.12499639027E+03 0.  0.
          2    1    1    2  501    0  0.43571007716E+02 -0.52126092067E+02 -0.62194538346E+03  0.62564496497E+03  0.00000000000E+00 0. -1.
          1    1    1    2  502    0  0.11529072844E+01  0.11460835189E+03  0.30160013906E+03  0.32264383986E+03  0.00000000000E+00 0. -1.
         22    1    3    3    0    0  0.31866325512E+02 -0.49994880910E+02  0.21867118043E+02  0.63191151836E+02  0.00000000000E+00 0.  1.
         22    1    3    3    0    0 -0.76590240513E+02 -0.12487378908E+02 -0.31818351846E+02  0.83871372279E+02  0.00000000000E+00 0.  1.
</event>
<event>
 7    1  0.6557591E-006  0.6567463E+02  0.7818608E-02  0.1445134E+00
          2   -1    0    0  502    0  0.00000000000E+00  0.00000000000E+00  0.72751825554E+03  0.72751825554E+03  0.00000000000E+00 0. -1.
          1   -1    0    0  501    0 -0.00000000000E+00 -0.00000000000E+00 -0.10602439494E+04  0.10602439494E+04  0.00000000000E+00 0. -1.
         25    2    1    2    0    0  0.38811400187E+01 -0.33953415059E+02 -0.71634443047E+02  0.14807005783E+03  0.12500140381E+03 0.  0.
          2    1    1    2  501    0 -0.33869710939E+02  0.57495196775E+02 -0.94869165323E+03  0.95103559759E+03  0.00000000000E+00 0. -1.
          1    1    1    2  502    0  0.29988570920E+02 -0.23541781716E+02  0.68760040238E+03  0.68865654955E+03  0.00000000000E+00 0. -1.
         22    1    3    3    0    0  0.52453703675E+01  0.46540717028E+02 -0.13414729008E+02  0.48718653575E+02  0.00000000000E+00 0. -1.
         22    1    3    3    0    0 -0.13642303489E+01 -0.80494132087E+02 -0.58219714039E+02  0.99351404256E+02  0.00000000000E+00 0. -1.
</event>
<event>
 7    1  0.6557591E-006  0.1436767E+03  0.7818608E-02  0.1300557E+00
          2   -1    0    0  502    0  0.00000000000E+00  0.00000000000E+00  0.36702964056E+03  0.36702964056E+03  0.00000000000E+00 0. -1.
          1   -1    0    0  501    0 -0.00000000000E+00 -0.00000000000E+00 -0.18456803473E+04  0.18456803473E+04  0.00000000000E+00 0. -1.
         25    2    1    2    0    0 -0.90761474720E+02  0.98262556546E+02 -0.67587538776E+03  0.70023262123E+03  0.12500003496E+03 0.  0.
          2    1    1    2  501    0 -0.41169419967E+02 -0.40253904784E+02 -0.11422377832E+04  0.11436880918E+04  0.00000000000E+00 0. -1.
          1    1    1    2  502    0  0.13193089469E+03 -0.58008651762E+02  0.33946246419E+03  0.36878927485E+03  0.00000000000E+00 0. -1.
         22    1    3    3    0    0 -0.17181899023E+02  0.85381587010E+02 -0.19467419254E+03  0.21326808082E+03  0.00000000000E+00 0. -1.
         22    1    3    3    0    0 -0.73579575697E+02  0.12880969536E+02 -0.48120119522E+03  0.48696454041E+03  0.00000000000E+00 0. -1.
</event>
<event>
 7    1  0.6557591E-006  0.1308623E+03  0.7818608E-02  0.1312736E+00
          2   -1    0    0  502    0  0.00000000000E+00  0.00000000000E+00  0.27817714089E+03  0.27817714089E+03  0.00000000000E+00 0. -1.
          1   -1    0    0  501    0 -0.00000000000E+00 -0.00000000000E+00 -0.20085076836E+03  0.20085076836E+03  0.00000000000E+00 0. -1.
         25    2    1    2    0    0  0.17058690333E+03  0.23043823359E+02  0.36869989291E+00  0.21273311466E+03  0.12499733098E+03 0.  0.
          2    1    1    2  501    0 -0.11402195828E+03 -0.22341160349E+02 -0.50619868078E+02  0.12673794010E+03  0.00000000000E+00 0. -1.
          1    1    1    2  502    0 -0.56564945047E+02 -0.70266300998E+00  0.12757754071E+03  0.13955685450E+03  0.00000000000E+00 0. -1.
         22    1    3    3    0    0  0.81960364714E+02  0.66950291037E+02 -0.28684939787E+02  0.10964793033E+03  0.00000000000E+00 0.  1.
         22    1    3    3    0    0  0.88626538614E+02 -0.43906467678E+02  0.29053639680E+02  0.10308518433E+03  0.00000000000E+00 0.  1.
</event>
<event>
 7    1  0.6557591E-006  0.8058566E+02  0.7818608E-02  0.1333481E+00
          2   -1    0    0  502    0  0.00000000000E+00  0.00000000000E+00  0.11407172009E+04  0.11407172009E+04  0.00000000000E+00 0. -1.
          1   -1    0    0  501    0 -0.00000000000E+00 -0.00000000000E+00 -0.25738408819E+03  0.25738408819E+03  0.00000000000E+00 0. -1.
         25    2    1    2    0    0 -0.47915161232E+02  0.54906459798E+02 -0.90616224861E+02  0.17072419260E+03  0.12499947091E+03 0.  0.
          2    1    1    2  501    0 -0.27040581733E+02 -0.84498431834E+02 -0.10950246952E+03  0.14093249758E+03  0.00000000000E+00 0. -1.
          1    1    1    2  502    0  0.74955742965E+02  0.29591972036E+02  0.10834518071E+04  0.10864445989E+04  0.00000000000E+00 0. -1.
         22    1    3    3    0    0 -0.15216347335E+02  0.35875527745E+02 -0.11783841040E+03  0.12411479236E+03  0.00000000000E+00 0. -1.
         22    1    3    3    0    0 -0.32698813897E+02  0.19030932053E+02  0.27222185538E+02  0.46609400238E+02  0.00000000000E+00 0. -1.
</event>
<event>
 7    1  0.6557591E-006  0.1038224E+03  0.7818608E-02  0.1326011E+00
          2   -1    0    0  502    0  0.00000000000E+00  0.00000000000E+00  0.20992838300E+04  0.20992838300E+04  0.00000000000E+00 0. -1.
          1   -1    0    0  501    0 -0.00000000000E+00 -0.00000000000E+00 -0.46465930541E+02  0.46465930541E+02  0.00000000000E+00 0. -1.
         25    2    1    2    0    0 -0.82231904862E+02  0.10242776937E+03  0.46431178920E+03  0.49846095791E+03  0.12499741939E+03 0.  0.
          2    1    1    2  501    0 -0.12023589042E+02 -0.62169230275E+02  0.84160306512E+01  0.63878082770E+02  0.00000000000E+00 0. -1.
          1    1    1    2  502    0  0.94255493903E+02 -0.40258539096E+02  0.15800900796E+04  0.15834107199E+04  0.00000000000E+00 0. -1.
         22    1    3    3    0    0 -0.50546759371E+02 -0.16694691870E+02  0.92191924613E+02  0.10645674513E+03  0.00000000000E+00 0. -1.
         22    1    3    3    0    0 -0.31685145490E+02  0.11912246124E+03  0.37211986459E+03  0.39200421278E+03  0.00000000000E+00 0. -1.
</event>
<event>
 7    1  0.6557591E-006  0.1326169E+03  0.7818608E-02  0.1225245E+00
          2   -1    0    0  502    0  0.00000000000E+00  0.00000000000E+00  0.21817860612E+03  0.21817860612E+03  0.00000000000E+00 0. -1.
          1   -1    0    0  501    0 -0.00000000000E+00 -0.00000000000E+00 -0.11212373018E+04  0.11212373018E+04  0.00000000000E+00 0. -1.
         25    2    1    2    0    0  0.39197704404E+02 -0.51966472578E+02 -0.17863788265E+03  0.22753770110E+03  0.12499975201E+03 0.  0.
          2    1    1    2  501    0  0.10115867884E+03  0.85756385361E+02 -0.88561353642E+03  0.89548789597E+03  0.00000000000E+00 0. -1.
          1    1    1    2  502    0 -0.14035638324E+03 -0.33789912783E+02  0.16119272343E+03  0.21639031080E+03  0.00000000000E+00 0. -1.
         22    1    3    3    0    0  0.54232031280E+02 -0.56071673335E+02 -0.19185220316E+03  0.20710483728E+03  0.00000000000E+00 0. -1.
         22    1    3    3    0    0 -0.15034326876E+02  0.41052007563E+01  0.13214320503E+02  0.20432863828E+02  0.00000000000E+00 0. -1.
</event>
<event>
 7    1  0.6557591E-006  0.9886181E+02  0.7818608E-02  0.1309216E+00
          2   -1    0    0  502    0  0.00000000000E+00  0.00000000000E+00  0.53485820588E+03  0.53485820588E+03  0.00000000000E+00 0. -1.
          1   -1    0    0  501    0 -0.00000000000E+00 -0.00000000000E+00 -0.49113861272E+03  0.49113861272E+03  0.00000000000E+00 0. -1.
         25    2    1    2    0    0 -0.41632018180E+01 -0.14171568839E+03  0.12335793339E+03  0.22572094192E+03  0.12502837801E+03 0.  0.
          2    1    1    2  501    0  0.50833846234E+02  0.58243182248E+02 -0.43010402581E+03  0.43699636293E+03  0.00000000000E+00 0. -1.
          1    1    1    2  502    0 -0.46670644416E+02  0.83472506140E+02  0.35046568558E+03  0.36327951374E+03  0.00000000000E+00 0. -1.
         22    1    3    3    0    0  0.56588020285E+02 -0.40036081050E+02  0.33162914877E+02  0.76843156812E+02  0.00000000000E+00 0.  1.
         22    1    3    3    0    0 -0.60751222103E+02 -0.10167960734E+03  0.90195018509E+02  0.14887778511E+03  0.00000000000E+00 0.  1.
</event>
<event>
 7    1  0.6557591E-006  0.8915755E+02  0.7818608E-02  0.1413776E+00
          2   -1    0    0  502    0  0.00000000000E+00  0.00000000000E+00  0.71060417284E+03  0.71060417284E+03  0.00000000000E+00 0. -1.
          1   -1    0    0  501    0 -0.00000000000E+00 -0.00000000000E+00 -0.11663870963E+04  0.11663870963E+04  0.00000000000E+00 0. -1.
         25    2    1    2    0    0 -0.66623233198E+02  0.71166874987E+02 -0.78577027085E+02  0.17692663817E+03  0.12500122724E+03 0.  0.
          2    1    1    2  501    0  0.32939140548E+02 -0.82771733939E+02 -0.10362430008E+04  0.10400652401E+04  0.00000000000E+00 0. -1.
          1    1    1    2  502    0  0.33684092650E+02  0.11604858952E+02  0.65903710446E+03  0.65999939084E+03  0.00000000000E+00 0. -1.
         22    1    3    3    0    0 -0.33234095707E+02  0.39807904972E+02  0.29416812609E+02  0.59619822876E+02  0.00000000000E+00 0.  1.
         22    1    3    3    0    0 -0.33389137491E+02  0.31358970015E+02 -0.10799383969E+03  0.11730681530E+03  0.00000000000E+00 0.  1.
</event>
<event>
 7    1  0.6557591E-006  0.7520917E+02  0.7818608E-02  0.1355105E+00
          2   -1    0    0  502    0  0.00000000000E+00  0.00000000000E+00  0.41333821569E+03  0.41333821569E+03  0.00000000000E+00 0. -1.
          1   -1    0    0  501    0 -0.00000000000E+00 -0.00000000000E+00 -0.29067845160E+03  0.29067845160E+03  0.00000000000E+00 0. -1.
         25    2    1    2    0    0  0.11544927841E+03  0.37889065987E+02  0.14698757751E+02  0.17494013673E+03  0.12499552294E+03 0.  0.
          2    1    1    2  501    0 -0.43379277575E+02 -0.52302636882E+02 -0.20064514373E+03  0.21183909283E+03  0.00000000000E+00 0. -1.
          1    1    1    2  502    0 -0.72070000832E+02  0.14413570894E+02  0.30860615007E+03  0.31723743774E+03  0.00000000000E+00 0. -1.
         22    1    3    3    0    0  0.40662392004E+02 -0.16715161433E+02 -0.46462362605E+02  0.63965442889E+02  0.00000000000E+00 0.  1.
         22    1    3    3    0    0  0.74786886403E+02  0.54604227421E+02  0.61161120356E+02  0.11097469384E+03  0.00000000000E+00 0.  1.
</event>
<event>
 7    1  0.6557591E-006  0.1352775E+03  0.7818608E-02  0.1281019E+00
          2   -1    0    0  502    0  0.00000000000E+00  0.00000000000E+00  0.40066024343E+04  0.40066024343E+04  0.00000000000E+00 0. -1.
          1   -1    0    0  501    0 -0.00000000000E+00 -0.00000000000E+00 -0.47782771298E+03  0.47782771298E+03  0.00000000000E+00 0. -1.
         25    2    1    2    0    0 -0.10569604738E+02 -0.16697493862E+03 -0.81200004118E+02  0.22407785244E+03  0.12500038646E+03 0.  0.
          2    1    1    2  501    0 -0.47943921887E+02  0.12263492440E+03 -0.31150196692E+03  0.33818843819E+03  0.00000000000E+00 0. -1.
          1    1    1    2  502    0  0.58513526625E+02  0.44340014215E+02  0.39214766924E+04  0.39221638567E+04  0.00000000000E+00 0. -1.
         22    1    3    3    0    0  0.33625736377E+02 -0.38228476160E+02  0.19749468921E+02  0.54609047410E+02  0.00000000000E+00 0.  1.
         22    1    3    3    0    0 -0.44195341114E+02 -0.12874646246E+03 -0.10094947304E+03  0.16946880503E+03  0.00000000000E+00 0.  1.
</event>
<event>
 7    1  0.6557591E-006  0.3481353E+02  0.7818608E-02  0.1577667E+00
          2   -1    0    0  502    0  0.00000000000E+00  0.00000000000E+00  0.83859396292E+03  0.83859396292E+03  0.00000000000E+00 0. -1.
          1   -1    0    0  501    0 -0.00000000000E+00 -0.00000000000E+00 -0.16835815010E+03  0.16835815010E+03  0.00000000000E+00 0. -1.
         25    2    1    2    0    0  0.40759034364E+01  0.39361177837E+02  0.18459815560E+03  0.22642261631E+03  0.12499922727E+03 0.  0.
          2    1    1    2  501    0  0.23358569251E+02 -0.17669064218E+02 -0.14550251732E+03  0.14842102659E+03  0.00000000000E+00 0. -1.
          1    1    1    2  502    0 -0.27434472688E+02 -0.21692113618E+02  0.63114017454E+03  0.63210847012E+03  0.00000000000E+00 0. -1.
         22    1    3    3    0    0  0.86184195363E+01 -0.22111375871E+02  0.15717674738E+03  0.15895823356E+03  0.00000000000E+00 0. -1.
         22    1    3    3    0    0 -0.45425160998E+01  0.61472553707E+02  0.27421408218E+02  0.67464382754E+02  0.00000000000E+00 0. -1.
</event>
<event>
 7    1  0.6557591E-006  0.3133475E+02  0.7818608E-02  0.1648970E+00
          2   -1    0    0  502    0  0.00000000000E+00  0.00000000000E+00  0.18455245279E+03  0.18455245279E+03  0.00000000000E+00 0. -1.
          1   -1    0    0  501    0 -0.00000000000E+00 -0.00000000000E+00 -0.78234503870E+02  0.78234503870E+02  0.00000000000E+00 0. -1.
         25    2    1    2    0    0 -0.39539258442E+02  0.33608192610E+02  0.11469295518E+03  0.17740541528E+03  0.12500137534E+03 0.  0.
          2    1    1    2  501    0  0.22785561900E+02 -0.20391846016E+02 -0.38060465588E+02  0.48822210681E+02  0.00000000000E+00 0. -1.
          1    1    1    2  502    0  0.16753696542E+02 -0.13216346594E+02  0.29685459334E+02  0.36559330696E+02  0.00000000000E+00 0. -1.
         22    1    3    3    0    0 -0.53909179645E+02  0.35816643840E+02  0.30232797701E+01  0.64793300938E+02  0.00000000000E+00 0.  1.
         22    1    3    3    0    0  0.14369921202E+02 -0.22084512304E+01  0.11166967541E+03  0.11261211435E+03  0.00000000000E+00 0.  1.
</event>
<event>
 7    1  0.6557591E-006  0.5984669E+02  0.7818608E-02  0.1470936E+00
          2   -1    0    0  502    0  0.00000000000E+00  0.00000000000E+00  0.43615784625E+03  0.43615784625E+03  0.00000000000E+00 0. -1.
          1   -1    0    0  501    0 -0.00000000000E+00 -0.00000000000E+00 -0.15192352909E+03  0.15192352909E+03  0.00000000000E+00 0. -1.
         25    2    1    2    0    0 -0.58669852567E+02  0.64523619790E+02 -0.33825722540E+02  0.15612266557E+03  0.12499863234E+03 0.  0.
          2    1    1    2  501    0  0.42102613287E+02 -0.34069437476E+02 -0.43051597984E+02  0.69186680109E+02  0.00000000000E+00 0. -1.
          1    1    1    2  502    0  0.16567239280E+02 -0.30454182315E+02  0.36111163769E+03  0.36277202967E+03  0.00000000000E+00 0. -1.
         22    1    3    3    0    0 -0.47293837730E+02 -0.54755163460E+01 -0.63399798290E+02  0.79285703565E+02  0.00000000000E+00 0.  1.
         22    1    3    3    0    0 -0.11376014837E+02  0.69999136136E+02  0.29574075750E+02  0.76836962003E+02  0.00000000000E+00 0.  1.
</event>
<event>
 7    1  0.6557591E-006  0.7828971E+02  0.7818608E-02  0.1420298E+00
          2   -1    0    0  502    0  0.00000000000E+00  0.00000000000E+00  0.65455643786E+03  0.65455643786E+03  0.00000000000E+00 0. -1.
          1   -1    0    0  501    0 -0.00000000000E+00 -0.00000000000E+00 -0.18915196965E+03  0.18915196965E+03  0.00000000000E+00 0. -1.
         25    2    1    2    0    0 -0.80296824466E+02 -0.20815056632E+02  0.26141229381E+03  0.30139622229E+03  0.12498979501E+03 0.  0.
          2    1    1    2  501    0  0.21607141504E+02 -0.31960814958E+02 -0.16270524611E+03  0.16721650447E+03  0.00000000000E+00 0. -1.
          1    1    1    2  502    0  0.58689682962E+02  0.52775871590E+02  0.36669742051E+03  0.37509568075E+03  0.00000000000E+00 0. -1.
         22    1    3    3    0    0  0.76563153090E+01  0.27545529589E+02  0.14453370945E+03  0.14733420693E+03  0.00000000000E+00 0. -1.
         22    1    3    3    0    0 -0.87953139775E+02 -0.48360586221E+02  0.11687858436E+03  0.15406201536E+03  0.00000000000E+00 0. -1.
</event>
<event>
 7    1  0.6557591E-006  0.1249691E+03  0.7818608E-02  0.1402271E+00
          2   -1    0    0  502    0  0.00000000000E+00  0.00000000000E+00  0.19445719705E+04  0.19445719705E+04  0.00000000000E+00 0. -1.
          1   -1    0    0  501    0 -0.00000000000E+00 -0.00000000000E+00 -0.81003812074E+03  0.81003812074E+03  0.00000000000E+00 0. -1.
         25    2    1    2    0    0  0.92358442788E+02  0.11770864595E+03  0.45509283117E+03  0.49509558725E+03  0.12499899299E+03 0.  0.
          2    1    1    2  501    0 -0.18342941601E+02 -0.20905949076E+02 -0.78726451377E+03  0.78775563270E+03  0.00000000000E+00 0. -1.
          1    1    1    2  502    0 -0.74015501187E+02 -0.96802696877E+02  0.14667055324E+04  0.14717588713E+04  0.00000000000E+00 0. -1.
         22    1    3    3    0    0  0.27026633423E+02 -0.21110316665E+02  0.14659121301E+03  0.15054922157E+03  0.00000000000E+00 0.  1.
         22    1    3    3    0    0  0.65331809365E+02  0.13881896262E+03  0.30850161816E+03  0.34454636568E+03  0.00000000000E+00 0.  1.
</event>
<event>
 7    1  0.6557591E-006  0.7111267E+02  0.7818608E-02  0.1457423E+00
          2   -1    0    0  502    0  0.00000000000E+00  0.00000000000E+00  0.22999353098E+04  0.22999353098E+04  0.00000000000E+00 0. -1.
          1   -1    0    0  501    0 -0.00000000000E+00 -0.00000000000E+00 -0.82623461563E+02  0.82623461563E+02  0.00000000000E+00 0. -1.
         25    2    1    2    0    0 -0.80605986749E+02  0.35563866591E+02  0.12786392888E+04  0.12877524584E+04  0.12500339751E+03 0.  0.
          2    1    1    2  501    0  0.51363356672E+02 -0.48965227546E+02 -0.61628236005E+02  0.93988442855E+02  0.00000000000E+00 0. -1.
          1    1    1    2  502    0  0.29242630077E+02  0.13401360955E+02  0.10003007954E+04  0.10008178701E+04  0.00000000000E+00 0. -1.
         22    1    3    3    0    0 -0.35060211540E+02  0.76311312843E+00  0.75482312007E+02  0.83230884898E+02  0.00000000000E+00 0. -1.
         22    1    3    3    0    0 -0.45545775209E+02  0.34800753463E+02  0.12031569768E+04  0.12045215735E+04  0.00000000000E+00 0. -1.
</event>
<event>
 7    1  0.6557591E-006  0.3889416E+02  0.7818608E-02  0.1534724E+00
          2   -1    0    0  502    0  0.00000000000E+00  0.00000000000E+00  0.12034841117E+04  0.12034841117E+04  0.00000000000E+00 0. -1.
          1   -1    0    0  501    0 -0.00000000000E+00 -0.00000000000E+00 -0.40384069626E+03  0.40384069626E+03  0.00000000000E+00 0. -1.
         25    2    1    2    0    0  0.17660015862E+02 -0.68773639276E+01  0.87190579281E+02  0.15357992512E+03  0.12500168795E+03 0.  0.
          2    1    1    2  501    0 -0.29815229720E+02 -0.25374090559E+02 -0.36933693826E+03  0.37140620129E+03  0.00000000000E+00 0. -1.
          1    1    1    2  502    0  0.12155213858E+02  0.32251454486E+02  0.10817897744E+04  0.10823386815E+04  0.00000000000E+00 0. -1.
         22    1    3    3    0    0 -0.17278598060E+01  0.55891134438E+02  0.61285959296E+02  0.82962480768E+02  0.00000000000E+00 0. -1.
         22    1    3    3    0    0  0.19387875668E+02 -0.62768498366E+02  0.25904619985E+02  0.70617444350E+02  0.00000000000E+00 0. -1.
</event>
<event>
 7    1  0.6557591E-006  0.8555318E+02  0.7818608E-02  0.1372863E+00
          2   -1    0    0  502    0  0.00000000000E+00  0.00000000000E+00  0.15235515302E+03  0.15235515302E+03  0.00000000000E+00 0. -1.
          1   -1    0    0  501    0 -0.00000000000E+00 -0.00000000000E+00 -0.20363800491E+04  0.20363800491E+04  0.00000000000E+00 0. -1.
         25    2    1    2    0    0 -0.57471072716E+02 -0.12077886445E+03 -0.26884870209E+03  0.32526169588E+03  0.12500035158E+03 0.  0.
          2    1    1    2  501    0  0.26683859506E+02  0.79494609694E+02 -0.17329262257E+04  0.17349538107E+04  0.00000000000E+00 0. -1.
          1    1    1    2  502    0  0.30787213210E+02  0.41284254759E+02  0.11775003171E+03  0.12851969560E+03  0.00000000000E+00 0. -1.
         22    1    3    3    0    0 -0.67329969423E+01  0.15726590403E+02  0.25142129152E+01  0.17291042771E+02  0.00000000000E+00 0. -1.
         22    1    3    3    0    0 -0.50738075774E+02 -0.13650545486E+03 -0.27136291501E+03  0.30797065311E+03  0.00000000000E+00 0. -1.
</event>
<event>
 7    1  0.6557591E-006  0.1507484E+03  0.7818608E-02  0.1234315E+00
          2   -1    0    0  502    0  0.00000000000E+00  0.00000000000E+00  0.18536000098E+04  0.18536000098E+04  0.00000000000E+00 0. -1.
          1   -1    0    0  501    0 -0.00000000000E+00 -0.00000000000E+00 -0.19459843204E+03  0.19459843204E+03  0.00000000000E+00 0. -1.
         25    2    1    2    0    0  0.43838229660E+02  0.16533664254E+03  0.31826471008E+03  0.38232773497E+03  0.12499630196E+03 0.  0.
          2    1    1    2  501    0 -0.10149960133E+03 -0.24665821987E+02 -0.14148902094E+03  0.17586845906E+03  0.00000000000E+00 0. -1.
          1    1    1    2  502    0  0.57661371666E+02 -0.14067082056E+03  0.14822258886E+04  0.14900022478E+04  0.00000000000E+00 0. -1.
         22    1    3    3    0    0  0.18164526134E+01  0.12773010529E+03  0.29472778324E+03  0.32122071152E+03  0.00000000000E+00 0.  1.
         22    1    3    3    0    0  0.42021777047E+02  0.37606537256E+02  0.23536926838E+02  0.61107023455E+02  0.00000000000E+00 0.  1.
</event>
<event>
 7    1  0.6557591E-006  0.7172185E+02  0.7818608E-02  0.1403512E+00
          2   -1    0    0  502    0  0.00000000000E+00  0.00000000000E+00  0.89236353581E+03  0.89236353581E+03  0.00000000000E+00 0. -1.
          1   -1    0    0  501    0 -0.00000000000E+00 -0.00000000000E+00 -0.75647981725E+03  0.75647981725E+03  0.00000000000E+00 0. -1.
         25    2    1    2    0    0 -0.71157041049E+02 -0.72913972562E+02  0.90736199963E+02  0.18503638499E+03  0.12500253557E+03 0.  0.
          2    1    1    2  501    0  0.47945240323E+01  0.47748316549E+02 -0.70684522997E+03  0.70847234831E+03  0.00000000000E+00 0. -1.
          1    1    1    2  502    0  0.66362517017E+02  0.25165656012E+02  0.75199274857E+03  0.75533461976E+03  0.00000000000E+00 0. -1.
         22    1    3    3    0    0 -0.14512554351E+02 -0.83056743373E+02  0.86068375964E+01  0.84753256616E+02  0.00000000000E+00 0. -1.
         22    1    3    3    0    0 -0.56644486699E+02  0.10142770812E+02  0.82129362367E+02  0.10028312837E+03  0.00000000000E+00 0. -1.
</event>
<event>
 7    1  0.6557591E-006  0.1215252E+03  0.7818608E-02  0.1335188E+00
          2   -1    0    0  502    0  0.00000000000E+00  0.00000000000E+00  0.67900492144E+03  0.67900492144E+03  0.00000000000E+00 0. -1.
          1   -1    0    0  501    0 -0.00000000000E+00 -0.00000000000E+00 -0.24856579408E+03  0.24856579408E+03  0.00000000000E+00 0. -1.
         25    2    1    2    0    0 -0.35596035684E+02 -0.10364044910E+03  0.18410571911E+03  0.24805130466E+03  0.12500445388E+03 0.  0.
          2    1    1    2  501    0 -0.49025709302E+02  0.93274690223E+01 -0.20487037777E+03  0.21086107640E+03  0.00000000000E+00 0. -1.
          1    1    1    2  502    0  0.84621744986E+02  0.94312980079E+02  0.45120378603E+03  0.46865833446E+03  0.00000000000E+00 0. -1.
         22    1    3    3    0    0 -0.61017683915E+02 -0.10463349966E+03  0.90912051759E+02  0.15144744355E+03  0.00000000000E+00 0. -1.
         22    1    3    3    0    0  0.25421648231E+02  0.99305056034E+00  0.93193667351E+02  0.96603861116E+02  0.00000000000E+00 0. -1.
</event>
<event>
 7    1  0.6557591E-006  0.1853724E+03  0.7818608E-02  0.1199024E+00
          2   -1    0    0  502    0  0.00000000000E+00  0.00000000000E+00  0.17251590522E+04  0.17251590522E+04  0.00000000000E+00 0. -1.
          1   -1    0    0  501    0 -0.00000000000E+00 -0.00000000000E+00 -0.41419935639E+03  0.41419935639E+03  0.00000000000E+00 0. -1.
         25    2    1    2    0    0  0.21843642444E+03 -0.15430704573E+03 -0.34901056480E+02  0.29726660295E+03  0.12499685435E+03 0.  0.
          2    1    1    2  501    0 -0.16409680621E+03  0.43624069969E+02 -0.21634926319E+03  0.27502331714E+03  0.00000000000E+00 0. -1.
          1    1    1    2  502    0 -0.54339618233E+02  0.11068297576E+03  0.15622100155E+04  0.15670684885E+04  0.00000000000E+00 0. -1.
         22    1    3    3    0    0  0.11966462211E+03 -0.75132330286E+02  0.44138475940E+02  0.14802936836E+03  0.00000000000E+00 0.  1.
         22    1    3    3    0    0  0.98771802332E+02 -0.79174715445E+02 -0.79039532419E+02  0.14923723459E+03  0.00000000000E+00 0.  1.
</event>
<event>
 7    1  0.6557591E-006  0.6662351E+02  0.7818608E-02  0.1412984E+00
          2   -1    0    0  502    0  0.00000000000E+00  0.00000000000E+00  0.11477196679E+04  0.11477196679E+04  0.00000000000E+00 0. -1.
          1   -1    0    0  501    0 -0.00000000000E+00 -0.00000000000E+00 -0.71267484547E+03  0.71267484547E+03  0.00000000000E+00 0. -1.
         25    2    1    2    0    0  0.21333423146E+02  0.95258007282E+02  0.83493954012E+03  0.84986951996E+03  0.12499984962E+03 0.  0.
          2    1    1    2  501    0  0.89368167810E+01 -0.47131271418E+02 -0.70173703105E+03  0.70337478217E+03  0.00000000000E+00 0. -1.
          1    1    1    2  502    0 -0.30270239927E+02 -0.48126735864E+02  0.30184231338E+03  0.30715021126E+03  0.00000000000E+00 0. -1.
         22    1    3    3    0    0 -0.59256737096E+01  0.25327022627E+02  0.23773550134E+02  0.35238521111E+02  0.00000000000E+00 0.  1.
         22    1    3    3    0    0  0.27259096855E+02  0.69930984655E+02  0.81116598998E+03  0.81463099885E+03  0.00000000000E+00 0.  1.
</event>
<event>
 7    1  0.6557591E-006  0.1252592E+03  0.7818608E-02  0.1273281E+00
          2   -1    0    0  502    0  0.00000000000E+00  0.00000000000E+00  0.62605693773E+03  0.62605693773E+03  0.00000000000E+00 0. -1.
          1   -1    0    0  501    0 -0.00000000000E+00 -0.00000000000E+00 -0.96534035578E+03  0.96534035578E+03  0.00000000000E+00 0. -1.
         25    2    1    2    0    0  0.65383195525E+00  0.20664913129E+03 -0.55984364600E+02  0.24791975485E+03  0.12500265919E+03 0.  0.
          2    1    1    2  501    0  0.32102941025E+01 -0.12136224099E+03 -0.80537146187E+03  0.81447055878E+03  0.00000000000E+00 0. -1.
          1    1    1    2  502    0 -0.38641260578E+01 -0.85286890303E+02  0.52207240843E+03  0.52900697988E+03  0.00000000000E+00 0. -1.
         22    1    3    3    0    0 -0.61644355063E+02  0.11829142118E+03 -0.32260020734E+02  0.13723554851E+03  0.00000000000E+00 0. -1.
         22    1    3    3    0    0  0.62298187018E+02  0.88357710109E+02 -0.23724343866E+02  0.11068420634E+03  0.00000000000E+00 0. -1.
</event>
<event>
 7    1  0.6557591E-006  0.5179591E+02  0.7818608E-02  0.1473803E+00
          2   -1    0    0  502    0  0.00000000000E+00  0.00000000000E+00  0.27544052747E+03  0.27544052747E+03  0.00000000000E+00 0. -1.
          1   -1    0    0  501    0 -0.00000000000E+00 -0.00000000000E+00 -0.11605063843E+04  0.11605063843E+04  0.00000000000E+00 0. -1.
         25    2    1    2    0    0  0.10986762246E+02 -0.50302935579E+02 -0.70795489324E+03  0.72074695973E+03  0.12499981929E+03 0.  0.
          2    1    1    2  501    0 -0.38706274557E+02  0.64858025825E+01 -0.44278141615E+03  0.44451729304E+03  0.00000000000E+00 0. -1.
          1    1    1    2  502    0  0.27719512311E+02  0.43817132996E+02  0.26567045257E+03  0.27068265899E+03  0.00000000000E+00 0. -1.
         22    1    3    3    0    0  0.55445488528E+02  0.10401479837E+02 -0.22491265727E+03  0.23187948676E+03  0.00000000000E+00 0.  1.
         22    1    3    3    0    0 -0.44458726281E+02 -0.60704415415E+02 -0.48304223597E+03  0.48886747297E+03  0.00000000000E+00 0.  1.
</event>
<event>
 7    1  0.6557591E-006  0.6034019E+02  0.7818608E-02  0.1425772E+00
          2   -1    0    0  502    0  0.00000000000E+00  0.00000000000E+00  0.62428987486E+03  0.62428987486E+03  0.00000000000E+00 0. -1.
          1   -1    0    0  501    0 -0.00000000000E+00 -0.00000000000E+00 -0.30317721570E+03  0.30317721570E+03  0.00000000000E+00 0. -1.
         25    2    1    2    0    0  0.30861882770E+02  0.66402791927E+01 -0.16872744196E+03  0.21234468426E+03  0.12499906458E+03 0.  0.
          2    1    1    2  501    0 -0.73677611918E+02 -0.28341237072E+02 -0.97710477875E+02  0.12561430533E+03  0.00000000000E+00 0. -1.
          1    1    1    2  502    0  0.42815729149E+02  0.21700957879E+02  0.58755057900E+03  0.58950810098E+03  0.00000000000E+00 0. -1.
         22    1    3    3    0    0  0.43762363297E+01  0.58696000730E+02 -0.12875282083E+03  0.14156857285E+03  0.00000000000E+00 0.  1.
         22    1    3    3    0    0  0.26485646440E+02 -0.52055721537E+02 -0.39974621132E+02  0.70776111413E+02  0.00000000000E+00 0.  1.
</event>
<event>
 7    1  0.6557591E-006  0.1385317E+03  0.7818608E-02  0.1299809E+00
          2   -1    0    0  502    0  0.00000000000E+00  0.00000000000E+00  0.21125255942E+04  0.21125255942E+04  0.00000000000E+00 0. -1.
          1   -1    0    0  501    0 -0.00000000000E+00 -0.00000000000E+00 -0.18105213105E+03  0.18105213105E+03  0.00000000000E+00 0. -1.
         25    2    1    2    0    0 -0.26944556664E+01  0.88765604781E+02  0.22921787386E+03  0.27577699544E+03  0.12500209932E+03 0.  0.
          2    1    1    2  501    0  0.30487978774E+02 -0.14208682907E+03 -0.12370936240E+03  0.19084598552E+03  0.00000000000E+00 0. -1.
          1    1    1    2  502    0 -0.27793523107E+02  0.53321224293E+02  0.18259649517E+04  0.18269547443E+04  0.00000000000E+00 0. -1.
         22    1    3    3    0    0  0.55230881829E+02  0.57416231600E+02  0.16765326742E+03  0.18561975120E+03  0.00000000000E+00 0.  1.
         22    1    3    3    0    0 -0.57925337495E+02  0.31349373180E+02  0.61564606435E+02  0.90157244236E+02  0.00000000000E+00 0.  1.
</event>
<event>
 7    1  0.6557591E-006  0.1383837E+03  0.7818608E-02  0.1323510E+00
          2   -1    0    0  502    0  0.00000000000E+00  0.00000000000E+00  0.32950450570E+03  0.32950450570E+03  0.00000000000E+00 0. -1.
          1   -1    0    0  501    0 -0.00000000000E+00 -0.00000000000E+00 -0.17939199121E+04  0.17939199121E+04  0.00000000000E+00 0. -1.
         25    2    1    2    0    0 -0.10338595079E+03 -0.15293757016E+03  0.34630923445E+02  0.22561384040E+03  0.12499499563E+03 0.  0.
          2    1    1    2  501    0  0.68562314462E+02  0.11907677892E+03 -0.16926444086E+04  0.16982123436E+04  0.00000000000E+00 0. -1.
          1    1    1    2  502    0  0.34823636328E+02  0.33860791242E+02  0.19359807873E+03  0.19959823376E+03  0.00000000000E+00 0. -1.
         22    1    3    3    0    0  0.80848177516E+01  0.13559110921E+02 -0.12075323575E+02  0.19875291356E+02  0.00000000000E+00 0.  1.
         22    1    3    3    0    0 -0.11147076854E+03 -0.16649668108E+03  0.46706247020E+02  0.20573854904E+03  0.00000000000E+00 0.  1.
</event>
<event>
 7    1  0.6557591E-006  0.6099791E+02  0.7818608E-02  0.1547928E+00
          2   -1    0    0  502    0  0.00000000000E+00  0.00000000000E+00  0.16133743876E+04  0.16133743876E+04  0.00000000000E+00 0. -1.
          1   -1    0    0  501    0 -0.00000000000E+00 -0.00000000000E+00 -0.11506807119E+04  0.11506807119E+04  0.00000000000E+00 0. -1.
         25    2    1    2    0    0  0.51145758422E+01 -0.47746054832E+02  0.15485002218E+03  0.20471605801E+03  0.12499716156E+03 0.  0.
          2    1    1    2  501    0 -0.23313937286E+02  0.56441018611E+02 -0.11248485120E+04  0.11265049059E+04  0.00000000000E+00 0. -1.
          1    1    1    2  502    0  0.18199361444E+02 -0.86949637786E+01  0.14326921654E+04  0.14328341355E+04  0.00000000000E+00 0. -1.
         22    1    3    3    0    0  0.25597375323E+02 -0.15868794758E+02  0.16316708133E+03  0.16592329764E+03  0.00000000000E+00 0. -1.
         22    1    3    3    0    0 -0.20482799480E+02 -0.31877260074E+02 -0.83170591451E+01  0.38792760371E+02  0.00000000000E+00 0. -1.
</event>
<event>
 7    1  0.6557591E-006  0.4467536E+02  0.7818608E-02  0.1485006E+00
          2   -1    0    0  502    0  0.00000000000E+00  0.00000000000E+00  0.36030002151E+03  0.36030002151E+03  0.00000000000E+00 0. -1.
          1   -1    0    0  501    0 -0.00000000000E+00 -0.00000000000E+00 -0.72016464425E+02  0.72016464425E+02  0.00000000000E+00 0. -1.
         25    2    1    2    0    0 -0.33545537396E+01  0.64733552014E+02  0.24504355156E+03  0.28261668618E+03  0.12499665338E+03 0.  0.
          2    1    1    2  501    0  0.28485113873E+02 -0.30914103572E+02 -0.38969934999E+02  0.57321369016E+02  0.00000000000E+00 0. -1.
          1    1    1    2  502    0 -0.25130560133E+02 -0.33819448442E+02  0.82209940528E+02  0.92378430747E+02  0.00000000000E+00 0. -1.
         22    1    3    3    0    0  0.15097926548E+02  0.84399398866E+02  0.24042646992E+03  0.25525691637E+03  0.00000000000E+00 0. -1.
         22    1    3    3    0    0 -0.18452480287E+02 -0.19665846851E+02  0.46170816393E+01  0.27359769809E+02  0.00000000000E+00 0. -1.
</event>
<event>
 7    1  0.6557591E-006  0.6158375E+02  0.7818608E-02  0.1399580E+00
          2   -1    0    0  502    0  0.00000000000E+00  0.00000000000E+00  0.16102510854E+04  0.16102510854E+04  0.00000000000E+00 0. -1.
          1   -1    0    0  501    0 -0.00000000000E+00 -0.00000000000E+00 -0.43205370718E+02  0.43205370718E+02  0.00000000000E+00 0. -1.
         25    2    1    2    0    0 -0.22358703234E+02  0.18089702829E+02  0.71740772341E+03  0.72878512166E+03  0.12500705178E+03 0.  0.
          2    1    1    2  501    0 -0.15545617777E+02 -0.61529208093E+02 -0.90021059282E+01  0.64097953102E+02  0.00000000000E+00 0. -1.
          1    1    1    2  502    0  0.37904321012E+02  0.43439505264E+02  0.85864009719E+03  0.86057338134E+03  0.00000000000E+00 0. -1.
         22    1    3    3    0    0 -0.17194686158E+02 -0.53349692445E+02  0.28056312471E+03  0.28610752151E+03  0.00000000000E+00 0.  1.
         22    1    3    3    0    0 -0.51640170759E+01  0.71439395274E+02  0.43684459870E+03  0.44267760016E+03  0.00000000000E+00 0.  1.
</event>
<event>
 7    1  0.6557591E-006  0.4306482E+02  0.7818608E-02  0.1566986E+00
          2   -1    0    0  502    0  0.00000000000E+00  0.00000000000E+00  0.45030150814E+03  0.45030150814E+03  0.00000000000E+00 0. -1.
          1   -1    0    0  501    0 -0.00000000000E+00 -0.00000000000E+00 -0.57215439163E+02  0.57215439163E+02  0.00000000000E+00 0. -1.
         25    2    1    2    0    0 -0.30837531041E+02 -0.61713376628E+01  0.19549467903E+03  0.23416145502E+03  0.12499751500E+03 0.  0.
          2    1    1    2  501    0  0.40608839775E+02 -0.17173947197E+02 -0.24084071169E+02  0.50240071798E+02  0.00000000000E+00 0. -1.
          1    1    1    2  502    0 -0.97713087348E+01  0.23345284860E+02  0.22167546111E+03  0.22311542049E+03  0.00000000000E+00 0. -1.
         22    1    3    3    0    0  0.35530385235E+02  0.35209114367E+02  0.64926104078E+02  0.81960289166E+02  0.00000000000E+00 0. -1.
         22    1    3    3    0    0 -0.66367916276E+02 -0.41380452030E+02  0.13056857496E+03  0.15220116585E+03  0.00000000000E+00 0. -1.
</event>
<event>
 7    1  0.6557591E-006  0.8794596E+02  0.7818608E-02  0.1327493E+00
          2   -1    0    0  502    0  0.00000000000E+00  0.00000000000E+00  0.19992979539E+04  0.19992979539E+04  0.00000000000E+00 0. -1.
          1   -1    0    0  501    0 -0.00000000000E+00 -0.00000000000E+00 -0.36165084193E+03  0.36165084193E+03  0.00000000000E+00 0. -1.
         25    2    1    2    0    0 -0.27033253911E+01 -0.58923670715E+02  0.13127981541E+04  0.13200535335E+04  0.12499212335E+03 0.  0.
          2    1    1    2  501    0  0.75315051552E+02  0.45850457289E+02 -0.35055478168E+03  0.36147375615E+03  0.00000000000E+00 0. -1.
          1    1    1    2  502    0 -0.72611726161E+02  0.13073213425E+02  0.67540373955E+03  0.67942150620E+03  0.00000000000E+00 0. -1.
         22    1    3    3    0    0 -0.48833573166E+01  0.33995752504E+02  0.16718835999E+03  0.17067954208E+03  0.00000000000E+00 0.  1.
         22    1    3    3    0    0  0.21800319256E+01 -0.92919423218E+02  0.11456097941E+04  0.11493739914E+04  0.00000000000E+00 0.  1.
</event>
<event>
 7    1  0.6557591E-006  0.1011809E+03  0.7818608E-02  0.1467422E+00
          2   -1    0    0  502    0  0.00000000000E+00  0.00000000000E+00  0.11579653159E+04  0.11579653159E+04  0.00000000000E+00 0. -1.
          1   -1    0    0  501    0 -0.00000000000E+00 -0.00000000000E+00 -0.10228235843E+04  0.10228235843E+04  0.00000000000E+00 0. -1.
         25    2    1    2    0    0  0.17118037023E+02 -0.80608896973E+02  0.49104237514E+02  0.15759222994E+03  0.12503304897E+03 0.  0.
          2    1    1    2  501    0 -0.41634064032E+01 -0.20612988287E+02 -0.96599628915E+03  0.96622516004E+03  0.00000000000E+00 0. -1.
          1    1    1    2  502    0 -0.12954630619E+02  0.10122188526E+03  0.10520337832E+04  0.10569715103E+04  0.00000000000E+00 0. -1.
         22    1    3    3    0    0 -0.76210623647E+01  0.24301863907E+02  0.42568824586E+02  0.49606108571E+02  0.00000000000E+00 0. -1.
         22    1    3    3    0    0  0.24739099387E+02 -0.10491076088E+03  0.65354129287E+01  0.10798612137E+03  0.00000000000E+00 0. -1.
</event>
<event>
 7    1  0.6557591E-006  0.7587572E+02  0.7818608E-02  0.1347550E+00
          2   -1    0    0  502    0  0.00000000000E+00  0.00000000000E+00  0.18343465289E+04  0.18343465289E+04  0.00000000000E+00 0. -1.
          1   -1    0    0  501    0 -0.00000000000E+00 -0.00000000000E+00 -0.68367617535E+02  0.68367617535E+02  0.00000000000E+00 0. -1.
         25    2    1    2    0    0  0.25259978739E+02 -0.14728071615E+02  0.36785024397E+03  0.38960735770E+03  0.12500043427E+03 0.  0.
          2    1    1    2  501    0 -0.51140809802E+02 -0.56597289395E+02 -0.30728310475E+02  0.82236638178E+02  0.00000000000E+00 0. -1.
          1    1    1    2  502    0  0.25880831063E+02  0.71325361010E+02  0.14288569779E+04  0.14308701506E+04  0.00000000000E+00 0. -1.
         22    1    3    3    0    0 -0.39036087489E+01 -0.61013837280E+02  0.27607406311E+03  0.28276282433E+03  0.00000000000E+00 0.  1.
         22    1    3    3    0    0  0.29163587488E+02  0.46285765665E+02  0.91776180857E+02  0.10684453337E+03  0.00000000000E+00 0.  1.
</event>
<event>
 7    1  0.6557591E-006  0.1924958E+03  0.7818608E-02  0.1385967E+00
          2   -1    0    0  502    0  0.00000000000E+00  0.00000000000E+00  0.57180050637E+03  0.57180050637E+03  0.00000000000E+00 0. -1.
          1   -1    0    0  501    0 -0.00000000000E+00 -0.00000000000E+00 -0.12932695295E+03  0.12932695295E+03  0.00000000000E+00 0. -1.
         25    2    1    2    0    0 -0.16436426132E+03  0.64817703638E+02  0.43239543213E+03  0.48353629331E+03  0.12499836846E+03 0.  0.
          2    1    1    2  501    0  0.18493118096E+03 -0.64823835206E+02  0.34889033978E+01  0.19599449928E+03  0.00000000000E+00 0. -1.
          1    1    1    2  502    0 -0.20566919636E+02  0.61315683479E-02  0.65892178903E+01  0.21596666718E+02  0.00000000000E+00 0. -1.
         22    1    3    3    0    0 -0.16208006291E+03  0.43400619756E+02  0.25765228655E+03  0.30747074878E+03  0.00000000000E+00 0. -1.
         22    1    3    3    0    0 -0.22841984068E+01  0.21417083882E+02  0.17474314558E+03  0.17606554454E+03  0.00000000000E+00 0. -1.
</event>
<event>
 7    1  0.6557591E-006  0.1236560E+03  0.7818608E-02  0.1345365E+00
          2   -1    0    0  502    0  0.00000000000E+00  0.00000000000E+00  0.22800683249E+04  0.22800683249E+04  0.00000000000E+00 0. -1.
          1   -1    0    0  501    0 -0.00000000000E+00 -0.00000000000E+00 -0.16543113723E+04  0.16543113723E+04  0.00000000000E+00 0. -1.
         25    2    1    2    0    0 -0.16522219629E+02 -0.99747955217E+02  0.11617950935E+04  0.11728630133E+04  0.12496867833E+03 0.  0.
          2    1    1    2  501    0 -0.22704592836E+02  0.12161159591E+03 -0.16460020780E+04  0.16506446376E+04  0.00000000000E+00 0. -1.
          1    1    1    2  502    0  0.39226812465E+02 -0.21863640694E+02  0.11099639371E+04  0.11108720463E+04  0.00000000000E+00 0. -1.
         22    1    3    3    0    0 -0.54167958856E+02 -0.15821394964E+02  0.68197430083E+03  0.68430507181E+03  0.00000000000E+00 0. -1.
         22    1    3    3    0    0  0.37645739227E+02 -0.83926560253E+02  0.47982079262E+03  0.48855794153E+03  0.00000000000E+00 0. -1.
</event>
<event>
 7    1  0.6557591E-006  0.6342590E+02  0.7818608E-02  0.1496887E+00
          2   -1    0    0  502    0  0.00000000000E+00  0.00000000000E+00  0.26930612093E+04  0.26930612093E+04  0.00000000000E+00 0. -1.
          1   -1    0    0  501    0 -0.00000000000E+00 -0.00000000000E+00 -0.22781413838E+02  0.22781413838E+02  0.00000000000E+00 0. -1.
         25    2    1    2    0    0  0.23387444489E+02  0.67729994967E+02  0.12203413160E+04  0.12288174485E+04  0.12500027785E+03 0.  0.
          2    1    1    2  501    0 -0.26799225243E+02 -0.49922114223E+01 -0.74682410560E+01  0.28264735501E+02  0.00000000000E+00 0. -1.
          1    1    1    2  502    0  0.34117807537E+01 -0.62737783545E+02  0.14574067206E+04  0.14587604392E+04  0.00000000000E+00 0. -1.
         22    1    3    3    0    0 -0.17259288858E+02  0.59394929243E+02  0.10958379381E+04  0.10975820823E+04  0.00000000000E+00 0. -1.
         22    1    3    3    0    0  0.40646733347E+02  0.83350657244E+01  0.12450337781E+03  0.13123536619E+03  0.00000000000E+00 0. -1.
</event>
<event>
 7    1  0.6557591E-006  0.1289268E+03  0.7818608E-02  0.1291230E+00
          2   -1    0    0  502    0  0.00000000000E+00  0.00000000000E+00  0.17850438581E+04  0.17850438581E+04  0.00000000000E+00 0. -1.
          1   -1    0    0  501    0 -0.00000000000E+00 -0.00000000000E+00 -0.42775542458E+03  0.42775542458E+03  0.00000000000E+00 0. -1.
         25    2    1    2    0    0 -0.16965908836E+03  0.83950654797E+02  0.74883940743E+03  0.78244340043E+03  0.12500119222E+03 0.  0.
          2    1    1    2  501    0  0.12451371987E+03 -0.30498705640E+02 -0.39971402455E+03  0.41976795840E+03  0.00000000000E+00 0. -1.
          1    1    1    2  502    0  0.45145368491E+02 -0.53451949157E+02  0.10081630506E+04  0.10105879238E+04  0.00000000000E+00 0. -1.
         22    1    3    3    0    0 -0.17084497012E+03  0.67695898648E+02  0.74258630974E+03  0.76498703644E+03  0.00000000000E+00 0. -1.
         22    1    3    3    0    0  0.11858817653E+01  0.16254756149E+02  0.62530976874E+01  0.17456363988E+02  0.00000000000E+00 0. -1.
</event>
<event>
 7    1  0.6557591E-006  0.8764643E+02  0.7818608E-02  0.1477334E+00
          2   -1    0    0  502    0  0.00000000000E+00  0.00000000000E+00  0.11214056781E+04  0.11214056781E+04  0.00000000000E+00 0. -1.
          1   -1    0    0  501    0 -0.00000000000E+00 -0.00000000000E+00 -0.28529041252E+03  0.28529041252E+03  0.00000000000E+00 0. -1.
         25    2    1    2    0    0  0.15022374473E+02 -0.88828060313E+02  0.30289467945E+03  0.33983284919E+03  0.12500033008E+03 0.  0.
          2    1    1    2  501    0  0.75460947099E+01  0.87329466244E+02 -0.25945666664E+03  0.27386336207E+03  0.00000000000E+00 0. -1.
          1    1    1    2  502    0 -0.22568469183E+02  0.14985940687E+01  0.79267725282E+03  0.79299987940E+03  0.00000000000E+00 0. -1.
         22    1    3    3    0    0  0.50797853526E+02 -0.55537263802E+02  0.73177102171E+02  0.10497474875E+03  0.00000000000E+00 0. -1.
         22    1    3    3    0    0 -0.35775479053E+02 -0.33290796511E+02  0.22971757728E+03  0.23485810044E+03  0.00000000000E+00 0. -1.
</event>
<event>
 7    1  0.6557591E-006  0.1448638E+03  0.7818608E-02  0.1373733E+00
          2   -1    0    0  502    0  0.00000000000E+00  0.00000000000E+00  0.34442833917E+03  0.34442833917E+03  0.00000000000E+00 0. -1.
          1   -1    0    0  501    0 -0.00000000000E+00 -0.00000000000E+00 -0.61283719249E+03  0.61283719249E+03  0.00000000000E+00 0. -1.
         25    2    1    2    0    0  0.10418502166E+03 -0.13016150194E+03  0.82571112414E+02  0.22414170505E+03  0.12499992005E+03 0.  0.
          2    1    1    2  501    0 -0.10304617519E+03  0.99985484661E+02 -0.53126592554E+03  0.55032635318E+03  0.00000000000E+00 0. -1.
          1    1    1    2  502    0 -0.11388464697E+01  0.30176017277E+02  0.18028595981E+03  0.18279747343E+03  0.00000000000E+00 0. -1.
         22    1    3    3    0    0 -0.86782707393E+01 -0.23300252477E+02  0.62699904943E+02  0.67449923858E+02  0.00000000000E+00 0.  1.
         22    1    3    3    0    0  0.11286329240E+03 -0.10686124946E+03  0.19871207471E+02  0.15669178120E+03  0.00000000000E+00 0.  1.
</event>
<event>
 7    1  0.6557591E-006  0.3695999E+02  0.7818608E-02  0.1594539E+00
          2   -1    0    0  502    0  0.00000000000E+00  0.00000000000E+00  0.88033351435E+03  0.88033351435E+03  0.00000000000E+00 0. -1.
          1   -1    0    0  501    0 -0.00000000000E+00 -0.00000000000E+00 -0.77560586043E+02  0.77560586043E+02  0.00000000000E+00 0. -1.
         25    2    1    2    0    0  0.17954048387E+02 -0.26346522405E+01  0.57207470148E+02  0.13866259239E+03  0.12500132256E+03 0.  0.
          2    1    1    2  501    0 -0.36742144753E+02 -0.13673748301E+02 -0.26143556563E+02  0.47121567710E+02  0.00000000000E+00 0. -1.
          1    1    1    2  502    0  0.18788096367E+02  0.16308400541E+02  0.77170901472E+03  0.77210994029E+03  0.00000000000E+00 0. -1.
         22    1    3    3    0    0 -0.38327887485E+02  0.38809807680E+02  0.36980306005E+02  0.65899705336E+02  0.00000000000E+00 0.  1.
         22    1    3    3    0    0  0.56281935872E+02 -0.41444459920E+02  0.20227164143E+02  0.72762887056E+02  0.00000000000E+00 0.  1.
</event>
<event>
 7    1  0.6557591E-006  0.1252456E+03  0.7818608E-02  0.1264557E+00
          2   -1    0    0  502    0  0.00000000000E+00  0.00000000000E+00  0.13885507910E+04  0.13885507910E+04  0.00000000000E+00 0. -1.
          1   -1    0    0  501    0 -0.00000000000E+00 -0.00000000000E+00 -0.32442594460E+03  0.32442594460E+03  0.00000000000E+00 0. -1.
         25    2    1    2    0    0 -0.11528028778E+03  0.16181216425E+03  0.57879034234E+02  0.24175655775E+03  0.12499411730E+03 0.  0.
          2    1    1    2  501    0  0.36280406117E+02 -0.11290596743E+03 -0.21548415285E+03  0.24596228467E+03  0.00000000000E+00 0. -1.
          1    1    1    2  502    0  0.78999881660E+02 -0.48906196823E+02  0.12217299650E+04  0.12252578932E+04  0.00000000000E+00 0. -1.
         22    1    3    3    0    0 -0.12135911628E+03  0.11731133817E+03  0.85314710348E+02  0.18912584426E+03  0.00000000000E+00 0.  1.
         22    1    3    3    0    0  0.60788284992E+01  0.44500826081E+02 -0.27435676114E+02  0.52630713483E+02  0.00000000000E+00 0.  1.
</event>
<event>
 7    1  0.6557591E-006  0.1262810E+03  0.7818608E-02  0.1388172E+00
          2   -1    0    0  502    0  0.00000000000E+00  0.00000000000E+00  0.85857769640E+03  0.85857769640E+03  0.00000000000E+00 0. -1.
          1   -1    0    0  501    0 -0.00000000000E+00 -0.00000000000E+00 -0.87865349556E+03  0.87865349556E+03  0.00000000000E+00 0. -1.
         25    2    1    2    0    0  0.96031261032E+02 -0.50458352720E+02 -0.15755529998E+02  0.16625681616E+03  0.12500017496E+03 0.  0.
          2    1    1    2  501    0  0.21827087965E+01 -0.30720785255E+02 -0.78216050257E+03  0.78276662081E+03  0.00000000000E+00 0. -1.
          1    1    1    2  502    0 -0.98213969828E+02  0.81179137975E+02  0.77784023341E+03  0.78820775499E+03  0.00000000000E+00 0. -1.
         22    1    3    3    0    0  0.90539694388E+02 -0.10836294278E+02  0.38390437694E+02  0.98937794801E+02  0.00000000000E+00 0.  1.
         22    1    3    3    0    0  0.54915666435E+01 -0.39622058441E+02 -0.54145967692E+02  0.67319021359E+02  0.00000000000E+00 0.  1.
</event>
<event>
 7    1  0.6557591E-006  0.1209146E+03  0.7818608E-02  0.1442722E+00
          2   -1    0    0  502    0  0.00000000000E+00  0.00000000000E+00  0.14298604526E+04  0.14298604526E+04  0.00000000000E+00 0. -1.
          1   -1    0    0  501    0 -0.00000000000E+00 -0.00000000000E+00 -0.14864017166E+03  0.14864017166E+03  0.00000000000E+00 0. -1.
         25    2    1    2    0    0  0.10578802417E+03  0.87811232145E+02  0.10027186015E+04  0.10197897379E+04  0.12499838897E+03 0.  0.
          2    1    1    2  501    0 -0.99750289181E+02 -0.67612253164E+02 -0.11385721530E+03  0.16578601402E+03  0.00000000000E+00 0. -1.
          1    1    1    2  502    0 -0.60377349924E+01 -0.20198978981E+02  0.39235889473E+03  0.39292487230E+03  0.00000000000E+00 0. -1.
         22    1    3    3    0    0  0.78443133049E+02  0.98407553788E+02  0.95852532076E+03  0.96675134461E+03  0.00000000000E+00 0. -1.
         22    1    3    3    0    0  0.27344891125E+02 -0.10596321643E+02  0.44193280706E+02  0.53038393288E+02  0.00000000000E+00 0. -1.
</event>
<event>
 7    1  0.6557591E-006  0.1700341E+03  0.7818608E-02  0.1233860E+00
          2   -1    0    0  502    0  0.00000000000E+00  0.00000000000E+00  0.61689548854E+03  0.61689548854E+03  0.00000000000E+00 0. -1.
          1   -1    0    0  501    0 -0.00000000000E+00 -0.00000000000E+00 -0.24054220732E+03  0.24054220732E+03  0.00000000000E+00 0. -1.
         25    2    1    2    0    0 -0.12662209837E+02  0.12143166210E+03  0.20035630952E+03  0.26584546548E+03  0.12500072253E+03 0.  0.
          2    1    1    2  501    0  0.10136799102E+03 -0.14949576524E+03 -0.16101602299E+03  0.24197233951E+03  0.00000000000E+00 0. -1.
          1    1    1    2  502    0 -0.88705781187E+02  0.28064103143E+02  0.33701299469E+03  0.34961989087E+03  0.00000000000E+00 0. -1.
         22    1    3    3    0    0 -0.19712224559E+02 -0.15927654036E+02  0.33296875239E+01  0.25560688159E+02  0.00000000000E+00 0.  1.
         22    1    3    3    0    0  0.70500147216E+01  0.13735931614E+03  0.19702662200E+03  0.24028477732E+03  0.00000000000E+00 0.  1.
</event>
<event>
 7    1  0.6557591E-006  0.1488272E+03  0.7818608E-02  0.1361724E+00
          2   -1    0    0  502    0  0.00000000000E+00  0.00000000000E+00  0.64222810722E+03  0.64222810722E+03  0.00000000000E+00 0. -1.
          1   -1    0    0  501    0 -0.00000000000E+00 -0.00000000000E+00 -0.20437253029E+03  0.20437253029E+03  0.00000000000E+00 0. -1.
         25    2    1    2    0    0  0.90669520846E+02  0.97062611774E+02  0.22896537452E+03  0.29273280298E+03  0.12500095439E+03 0.  0.
          2    1    1    2  501    0 -0.10004247237E+01  0.32461243356E+02 -0.15445987348E+03  0.15783721261E+03  0.00000000000E+00 0. -1.
          1    1    1    2  502    0 -0.89669096123E+02 -0.12952385513E+03  0.36335007589E+03  0.39603062192E+03  0.00000000000E+00 0. -1.
         22    1    3    3    0    0  0.10629693994E+03  0.79016149624E+02  0.11229601734E+03  0.17364615415E+03  0.00000000000E+00 0.  1.
         22    1    3    3    0    0 -0.15627419096E+02  0.18046462150E+02  0.11666935718E+03  0.11908664883E+03  0.00000000000E+00 0.  1.
</event>
<event>
 7    1  0.6557591E-006  0.6383677E+02  0.7818608E-02  0.1442362E+00
          2   -1    0    0  502    0  0.00000000000E+00  0.00000000000E+00  0.11081994792E+04  0.11081994792E+04  0.00000000000E+00 0. -1.
          1   -1    0    0  501    0 -0.00000000000E+00 -0.00000000000E+00 -0.57565346996E+03  0.57565346996E+03  0.00000000000E+00 0. -1.
         25    2    1    2    0    0 -0.33689986213E+02 -0.77292649498E-01  0.29654967644E+03  0.32357600659E+03  0.12499880118E+03 0.  0.
          2    1    1    2  501    0  0.54007745427E+02 -0.34423743926E+02 -0.55981116781E+03  0.56346284200E+03  0.00000000000E+00 0. -1.
          1    1    1    2  502    0 -0.20317759215E+02  0.34501036576E+02  0.79580750058E+03  0.79681410055E+03  0.00000000000E+00 0. -1.
         22    1    3    3    0    0  0.11807429637E+02 -0.22747482346E+02  0.25928195823E+03  0.26054557608E+03  0.00000000000E+00 0. -1.
         22    1    3    3    0    0 -0.45497415850E+02  0.22670189696E+02  0.37267718211E+02  0.63030430512E+02  0.00000000000E+00 0. -1.
</event>
<event>
 7    1  0.6557591E-006  0.1529527E+03  0.7818608E-02  0.1212790E+00
          2   -1    0    0  502    0  0.00000000000E+00  0.00000000000E+00  0.15176369545E+04  0.15176369545E+04  0.00000000000E+00 0. -1.
          1   -1    0    0  501    0 -0.00000000000E+00 -0.00000000000E+00 -0.99597466495E+03  0.99597466495E+03  0.00000000000E+00 0. -1.
         25    2    1    2    0    0 -0.18973245819E+02 -0.28096641224E+02 -0.11859755985E+03  0.17561457861E+03  0.12500277482E+03 0.  0.
          2    1    1    2  501    0  0.15408186174E+03 -0.43598389759E+02 -0.83733381848E+03  0.85250804294E+03  0.00000000000E+00 0. -1.
          1    1    1    2  502    0 -0.13510861592E+03  0.71695030983E+02  0.14775936678E+04  0.14854889979E+04  0.00000000000E+00 0. -1.
         22    1    3    3    0    0  0.23204690964E+02  0.36783560712E+02 -0.75255313426E+02  0.86918641385E+02  0.00000000000E+00 0. -1.
         22    1    3    3    0    0 -0.42177936783E+02 -0.64880201936E+02 -0.43342246423E+02  0.88695937221E+02  0.00000000000E+00 0. -1.
</event>
<event>
 7    1  0.6557591E-006  0.8501977E+02  0.7818608E-02  0.1447341E+00
          2   -1    0    0  502    0  0.00000000000E+00  0.00000000000E+00  0.36273631892E+03  0.36273631892E+03  0.00000000000E+00 0. -1.
          1   -1    0    0  501    0 -0.00000000000E+00 -0.00000000000E+00 -0.13162479662E+03  0.13162479662E+03  0.00000000000E+00 0. -1.
         25    2    1    2    0    0  0.50813040656E+02 -0.28152107321E+02  0.25732295037E+03  0.29191613851E+03  0.12500169953E+03 0.  0.
          2    1    1    2  501    0 -0.72880684567E+02  0.46925447040E+02 -0.94518655083E+02  0.12824729206E+03  0.00000000000E+00 0. -1.
          1    1    1    2  502    0  0.22067643911E+02 -0.18773339719E+02  0.68307227014E+02  0.74197684966E+02  0.00000000000E+00 0. -1.
         22    1    3    3    0    0 -0.17944040500E+02 -0.44105847593E+02  0.18431792228E+03  0.19036914365E+03  0.00000000000E+00 0. -1.
         22    1    3    3    0    0  0.68757081155E+02  0.15953740272E+02  0.73005028090E+02  0.10154699485E+03  0.00000000000E+00 0. -1.
</event>
<event>
 7    1  0.6557591E-006  0.5161586E+02  0.7818608E-02  0.1461520E+00
          2   -1    0    0  502    0  0.00000000000E+00  0.00000000000E+00  0.12185348250E+04  0.12185348250E+04  0.00000000000E+00 0. -1.
          1   -1    0    0  501    0 -0.00000000000E+00 -0.00000000000E+00 -0.66726066896E+03  0.66726066896E+03  0.00000000000E+00 0. -1.
         25    2    1    2    0    0  0.67417058341E+02  0.62073304707E+02  0.87752516338E+02  0.17814403861E+03  0.12504654916E+03 0.  0.
          2    1    1    2  501    0 -0.23403061921E+02 -0.36094145211E+02 -0.62071853360E+03  0.62220735176E+03  0.00000000000E+00 0. -1.
          1    1    1    2  502    0 -0.44013996419E+02 -0.25979159496E+02  0.10842401733E+04  0.10854441035E+04  0.00000000000E+00 0. -1.
         22    1    3    3    0    0  0.53139862369E+02  0.66960116681E+02 -0.35940064710E+01  0.85559447644E+02  0.00000000000E+00 0.  1.
         22    1    3    3    0    0  0.14277195972E+02 -0.48868119744E+01  0.91346522809E+02  0.92584590971E+02  0.00000000000E+00 0.  1.
</event>
<event>
 7    1  0.6557591E-006  0.1746822E+03  0.7818608E-02  0.1185053E+00
          2   -1    0    0  502    0  0.00000000000E+00  0.00000000000E+00  0.10666836262E+04  0.10666836262E+04  0.00000000000E+00 0. -1.
          1   -1    0    0  501    0 -0.00000000000E+00 -0.00000000000E+00 -0.44484469495E+03  0.44484469495E+03  0.00000000000E+00 0. -1.
         25    2    1    2    0    0 -0.15476705103E+02 -0.17368192355E+03  0.18146735639E+03  0.28099902657E+03  0.12500045011E+03 0.  0.
          2    1    1    2  501    0  0.14944620996E+03  0.10060474238E+03 -0.36701544130E+03  0.40884693715E+03  0.00000000000E+00 0. -1.
          1    1    1    2  502    0 -0.13396950485E+03  0.73077181169E+02  0.80738701612E+03  0.82168235739E+03  0.00000000000E+00 0. -1.
         22    1    3    3    0    0 -0.46358012253E+02 -0.17552751867E+03  0.13997022414E+03  0.22923926094E+03  0.00000000000E+00 0.  1.
         22    1    3    3    0    0  0.30881307150E+02  0.18455951206E+01  0.41497132250E+02  0.51759765625E+02  0.00000000000E+00 0.  1.
</event>
<event>
 7    1  0.6557591E-006  0.1305845E+03  0.7818608E-02  0.1304533E+00
          2   -1    0    0  502    0  0.00000000000E+00  0.00000000000E+00  0.12888789317E+04  0.12888789317E+04  0.00000000000E+00 0. -1.
          1   -1    0    0  501    0 -0.00000000000E+00 -0.00000000000E+00 -0.62465898693E+03  0.62465898693E+03  0.00000000000E+00 0. -1.
         25    2    1    2    0    0  0.77765730204E+02  0.67026778402E+02 -0.30534781854E+03  0.34554859488E+03  0.12500577313E+03 0.  0.
          2    1    1    2  501    0 -0.10777179732E+03 -0.12022867757E+03 -0.27662615132E+03  0.32029942679E+03  0.00000000000E+00 0. -1.
          1    1    1    2  502    0  0.30006067118E+02  0.53201899164E+02  0.12461939146E+04  0.12476898969E+04  0.00000000000E+00 0. -1.
         22    1    3    3    0    0  0.17724760668E+02  0.20512156962E+02  0.36495110073E+01  0.27353878236E+02  0.00000000000E+00 0. -1.
         22    1    3    3    0    0  0.60040969537E+02  0.46514621441E+02 -0.30899732955E+03  0.31819471664E+03  0.00000000000E+00 0. -1.
</event>
<event>
 7    1  0.6557591E-006  0.4742863E+02  0.7818608E-02  0.1478431E+00
          2   -1    0    0  502    0  0.00000000000E+00  0.00000000000E+00  0.76925216442E+03  0.76925216442E+03  0.00000000000E+00 0. -1.
          1   -1    0    0  501    0 -0.00000000000E+00 -0.00000000000E+00 -0.82017461144E+03  0.82017461144E+03  0.00000000000E+00 0. -1.
         25    2    1    2    0    0 -0.10098093347E+02 -0.46976976485E+01  0.31718246918E+03  0.34111871267E+03  0.12503286578E+03 0.  0.
          2    1    1    2  501    0  0.11285640610E+02  0.46154846816E+02 -0.80652863374E+03  0.80792702184E+03  0.00000000000E+00 0. -1.
          1    1    1    2  502    0 -0.11875472633E+01 -0.41457149168E+02  0.43842371754E+03  0.44038104136E+03  0.00000000000E+00 0. -1.
         22    1    3    3    0    0 -0.27557062923E+02 -0.57489598105E+02  0.11567273277E+03  0.13207810838E+03  0.00000000000E+00 0. -1.
         22    1    3    3    0    0  0.17458969576E+02  0.52791900456E+02  0.20150973641E+03  0.20904060429E+03  0.00000000000E+00 0. -1.
</event>
<event>
 7    1  0.6557591E-006  0.6669461E+02  0.7818608E-02  0.1424435E+00
          2   -1    0    0  502    0  0.00000000000E+00  0.00000000000E+00  0.35084123836E+03  0.35084123836E+03  0.00000000000E+00 0. -1.
          1   -1    0    0  501    0 -0.00000000000E+00 -0.00000000000E+00 -0.57640122673E+03  0.57640122673E+03  0.00000000000E+00 0. -1.
         25    2    1    2    0    0 -0.10069859302E+03 -0.28361516212E+01 -0.29202497057E+03  0.33324464465E+03  0.12500063743E+03 0.  0.
          2    1    1    2  501    0  0.37417252250E+02  0.22908659144E+02 -0.25856311461E+03  0.26225892105E+03  0.00000000000E+00 0. -1.
          1    1    1    2  502    0  0.63281340772E+02 -0.20072507522E+02  0.32502809682E+03  0.33173889939E+03  0.00000000000E+00 0. -1.
         22    1    3    3    0    0 -0.44775245219E+02 -0.48481563429E+02 -0.22592500495E+03  0.23536650662E+03  0.00000000000E+00 0.  1.
         22    1    3    3    0    0 -0.55923347802E+02  0.45645411808E+02 -0.66099965621E+02  0.97878138027E+02  0.00000000000E+00 0.  1.
</event>
<event>
 7    1  0.6557591E-006  0.1666394E+03  0.7818608E-02  0.1211601E+00
          2   -1    0    0  502    0  0.00000000000E+00  0.00000000000E+00  0.16264543567E+04  0.16264543567E+04  0.00000000000E+00 0. -1.
          1   -1    0    0  501    0 -0.00000000000E+00 -0.00000000000E+00 -0.20922221999E+04  0.20922221999E+04  0.00000000000E+00 0. -1.
         25    2    1    2    0    0 -0.14605752802E+03 -0.13951906787E+03  0.70353364262E+03  0.74254547513E+03  0.12496329282E+03 0.  0.
          2    1    1    2  501    0 -0.16218049441E+02  0.11869788502E+03 -0.20635575626E+04  0.20670321785E+04  0.00000000000E+00 0. -1.
          1    1    1    2  502    0  0.16227557746E+03  0.20821182847E+02  0.89425607666E+03  0.90909890294E+03  0.00000000000E+00 0. -1.
         22    1    3    3    0    0 -0.37836131658E+02 -0.10984950189E+03  0.25554394494E+03  0.28071550317E+03  0.00000000000E+00 0. -1.
         22    1    3    3    0    0 -0.10822139636E+03 -0.29669565974E+02  0.44798969768E+03  0.46182997196E+03  0.00000000000E+00 0. -1.
</event>
<event>
 7    1  0.6557591E-006  0.6080952E+02  0.7818608E-02  0.1464211E+00
          2   -1    0    0  502    0  0.00000000000E+00  0.00000000000E+00  0.28076010355E+03  0.28076010355E+03  0.00000000000E+00 0. -1.
          1   -1    0    0  501    0 -0.00000000000E+00 -0.00000000000E+00 -0.24556980648E+04  0.24556980648E+04  0.00000000000E+00 0. -1.
         25    2    1    2    0    0 -0.28403007666E+02 -0.32648252999E+02 -0.20252252471E+03  0.24189299095E+03  0.12499682711E+03 0.  0.
          2    1    1    2  501    0 -0.31013028642E+02  0.17903166120E+02 -0.22297558589E+04  0.22300433901E+04  0.00000000000E+00 0. -1.
          1    1    1    2  502    0  0.59416036308E+02  0.14745086879E+02  0.25734042239E+03  0.26452178730E+03  0.00000000000E+00 0. -1.
         22    1    3    3    0    0 -0.70566502379E+02 -0.42777930102E+02 -0.94309877453E+02  0.12531534442E+03  0.00000000000E+00 0.  1.
         22    1    3    3    0    0  0.42163494713E+02  0.10129677103E+02 -0.10821264725E+03  0.11657764653E+03  0.00000000000E+00 0.  1.
</event>
<event>
 7    1  0.6557591E-006  0.1116975E+03  0.7818608E-02  0.1292222E+00
          2   -1    0    0  502    0  0.00000000000E+00  0.00000000000E+00  0.16091092987E+03  0.16091092987E+03  0.00000000000E+00 0. -1.
          1   -1    0    0  501    0 -0.00000000000E+00 -0.00000000000E+00 -0.11107834573E+04  0.11107834573E+04  0.00000000000E+00 0. -1.
         25    2    1    2    0    0  0.10244173898E+03 -0.11574710275E+02 -0.20482737330E+03  0.26116596433E+03  0.12500049707E+03 0.  0.
          2    1    1    2  501    0 -0.26691915554E+02 -0.75429688089E+02 -0.85048605867E+03  0.85424155377E+03  0.00000000000E+00 0. -1.
          1    1    1    2  502    0 -0.75749823422E+02  0.87004398364E+02  0.10544090456E+03  0.15628686905E+03  0.00000000000E+00 0. -1.
         22    1    3    3    0    0  0.74213428380E+02  0.38062978471E+02 -0.52662906948E+02  0.98639774180E+02  0.00000000000E+00 0. -1.
         22    1    3    3    0    0  0.28228310595E+02 -0.49637688747E+02 -0.15216446635E+03  0.16252619015E+03  0.00000000000E+00 0. -1.
</event>
<event>
 7    1  0.6557591E-006  0.2282526E+03  0.7818608E-02  0.1163860E+00
          2   -1    0    0  502    0  0.00000000000E+00  0.00000000000E+00  0.17480152407E+04  0.17480152407E+04  0.00000000000E+00 0. -1.
          1   -1    0    0  501    0 -0.00000000000E+00 -0.00000000000E+00 -0.37737872248E+03  0.37737872248E+03  0.00000000000E+00 0. -1.
         25    2    1    2    0    0 -0.11260448149E+03 -0.62482264933E+02  0.93955438393E+03  0.95654117653E+03  0.12499911743E+03 0.  0.
          2    1    1    2  501    0  0.10017513053E+03  0.21050581365E+03 -0.32408045656E+03  0.39921910861E+03  0.00000000000E+00 0. -1.
          1    1    1    2  502    0  0.12429350957E+02 -0.14802354872E+03  0.75516259084E+03  0.76963367802E+03  0.00000000000E+00 0. -1.
         22    1    3    3    0    0 -0.67593262240E+02  0.20642478189E+02  0.22710285637E+03  0.23784589208E+03  0.00000000000E+00 0. -1.
         22    1    3    3    0    0 -0.45011219250E+02 -0.83124743123E+02  0.71245152756E+03  0.71869528445E+03  0.00000000000E+00 0. -1.
</event>
<event>
 7    1  0.6557591E-006  0.1120804E+03  0.7818608E-02  0.1387893E+00
          2   -1    0    0  502    0  0.00000000000E+00  0.00000000000E+00  0.21195538886E+03  0.21195538886E+03  0.00000000000E+00 0. -1.
          1   -1    0    0  501    0 -0.00000000000E+00 -0.00000000000E+00 -0.85027718916E+03  0.85027718916E+03  0.00000000000E+00 0. -1.
         25    2    1    2    0    0 -0.83650399867E+02 -0.55785452332E+02 -0.28292842172E+02  0.16289356640E+03  0.12499769184E+03 0.  0.
          2    1    1    2  501    0  0.98421942840E+01 -0.33356568535E+02 -0.73105616187E+03  0.73188294232E+03  0.00000000000E+00 0. -1.
          1    1    1    2  502    0  0.73808205583E+02  0.89142020868E+02  0.12102720375E+03  0.16745606930E+03  0.00000000000E+00 0. -1.
         22    1    3    3    0    0 -0.97091470512E+02 -0.45813472478E+01 -0.45372196315E+02  0.10726778914E+03  0.00000000000E+00 0.  1.
         22    1    3    3    0    0  0.13441070645E+02 -0.51204105085E+02  0.17079354142E+02  0.55625777257E+02  0.00000000000E+00 0.  1.
</event>
<event>
 7    1  0.6557591E-006  0.1278334E+03  0.7818608E-02  0.1303342E+00
          2   -1    0    0  502    0  0.00000000000E+00  0.00000000000E+00  0.16170935418E+04  0.16170935418E+04  0.00000000000E+00 0. -1.
          1   -1    0    0  501    0 -0.00000000000E+00 -0.00000000000E+00 -0.13102828239E+04  0.13102828239E+04  0.00000000000E+00 0. -1.
         25    2    1    2    0    0 -0.51613850565E+02  0.44113705607E+02  0.37581995582E+03  0.40184081477E+03  0.12500157050E+03 0.  0.
          2    1    1    2  501    0  0.11179189097E+03 -0.63023789641E+02 -0.12932845698E+04  0.12996362581E+04  0.00000000000E+00 0. -1.
          1    1    1    2  502    0 -0.60178040407E+02  0.18910084034E+02  0.12242753319E+04  0.12258992928E+04  0.00000000000E+00 0. -1.
         22    1    3    3    0    0 -0.88627267327E+02  0.43095972896E+02  0.32020454583E+03  0.33502687439E+03  0.00000000000E+00 0.  1.
         22    1    3    3    0    0  0.37013416763E+02  0.10177327112E+01  0.55615409994E+02  0.66813940380E+02  0.00000000000E+00 0.  1.
</event>
<event>
 7    1  0.6557591E-006  0.8745983E+02  0.7818608E-02  0.1435017E+00
          2   -1    0    0  502    0  0.00000000000E+00  0.00000000000E+00  0.87176239868E+03  0.87176239868E+03  0.00000000000E+00 0. -1.
          1   -1    0    0  501    0 -0.00000000000E+00 -0.00000000000E+00 -0.78291643961E+02  0.78291643961E+02  0.00000000000E+00 0. -1.
         25    2    1    2    0    0  0.77237371301E+02  0.81214204190E+02  0.15809924886E+03  0.23061095721E+03  0.12499873041E+03 0.  0.
          2    1    1    2  501    0 -0.88244529934E+01 -0.29588886886E+02 -0.33235761550E+02  0.45365064130E+02  0.00000000000E+00 0. -1.
          1    1    1    2  502    0 -0.68412918307E+02 -0.51625317304E+02  0.66860726741E+03  0.67407802131E+03  0.00000000000E+00 0. -1.
         22    1    3    3    0    0  0.36009071090E+02  0.63977108786E+02  0.78218309027E+01  0.73830242368E+02  0.00000000000E+00 0. -1.
         22    1    3    3    0    0  0.41228300211E+02  0.17237095403E+02  0.15027741796E+03  0.15678071484E+03  0.00000000000E+00 0. -1.
</event>
<event>
 7    1  0.6557591E-006  0.5190230E+02  0.7818608E-02  0.1468893E+00
          2   -1    0    0  502    0  0.00000000000E+00  0.00000000000E+00  0.15413980200E+04  0.15413980200E+04  0.00000000000E+00 0. -1.
          1   -1    0    0  501    0 -0.00000000000E+00 -0.00000000000E+00 -0.15203551425E+03  0.15203551425E+03  0.00000000000E+00 0. -1.
         25    2    1    2    0    0  0.26482477769E+02  0.36595240693E+02  0.69215926074E+03  0.70480520874E+03  0.12500162703E+03 0.  0.
          2    1    1    2  501    0  0.11530232321E+02 -0.50756067070E+02 -0.14055801744E+03  0.14988555924E+03  0.00000000000E+00 0. -1.
          1    1    1    2  502    0 -0.38012710090E+02  0.14160826376E+02  0.83776126249E+03  0.83874276632E+03  0.00000000000E+00 0. -1.
         22    1    3    3    0    0 -0.99628865116E+01 -0.43221102358E+02  0.19695843473E+03  0.20189093048E+03  0.00000000000E+00 0.  1.
         22    1    3    3    0    0  0.36445364280E+02  0.79816343052E+02  0.49520082601E+03  0.50291427826E+03  0.00000000000E+00 0.  1.
</event>
<event>
 7    1  0.6557591E-006  0.4470939E+02  0.7818608E-02  0.1574601E+00
          2   -1    0    0  502    0  0.00000000000E+00  0.00000000000E+00  0.10684725604E+04  0.10684725604E+04  0.00000000000E+00 0. -1.
          1   -1    0    0  501    0 -0.00000000000E+00 -0.00000000000E+00 -0.13423394808E+02  0.13423394808E+02  0.00000000000E+00 0. -1.
         25    2    1    2    0    0  0.54666709851E+02  0.27177504694E+02  0.54113312179E+03  0.55872825152E+03  0.12500055050E+03 0.  0.
          2    1    1    2  501    0 -0.31431595215E+02 -0.27820627274E+02  0.98107059920E+02  0.10670954824E+03  0.00000000000E+00 0. -1.
          1    1    1    2  502    0 -0.23235114635E+02  0.64312258069E+00  0.41580898391E+03  0.41645815547E+03  0.00000000000E+00 0. -1.
         22    1    3    3    0    0  0.50058529143E+02  0.33896544843E+02  0.95540374417E+02  0.11306102439E+03  0.00000000000E+00 0. -1.
         22    1    3    3    0    0  0.46081807080E+01 -0.67190401493E+01  0.44559274737E+03  0.44566722713E+03  0.00000000000E+00 0. -1.
</event>
<event>
 7    1  0.7463150E-006  0.9916592E+02  0.7818608E-02  0.1329223E+00
          2   -1    0    0  502    0  0.00000000000E+00  0.00000000000E+00  0.21942375124E+04  0.21942375124E+04  0.00000000000E+00 0. -1.
          1   -1    0    0  501    0 -0.00000000000E+00 -0.00000000000E+00 -0.24844759432E+04  0.24844759432E+04  0.00000000000E+00 0. -1.
         25    2    1    2    0    0  0.10732443378E+03  0.10572201453E+03 -0.12257834182E+04  0.12413159370E+04  0.12499835447E+03 0.  0.
          2    1    1    2  501    0 -0.52528227223E+02 -0.71809938538E+02 -0.12488685042E+04  0.12520337147E+04  0.00000000000E+00 0. -1.
          1    1    1    2  502    0 -0.54796206560E+02 -0.33912075990E+02  0.21844134917E+04  0.21853638040E+04  0.00000000000E+00 0. -1.
         22    1    3    3    0    0 -0.14949118145E+02  0.27283218580E+01 -0.39488233921E+03  0.39517462177E+03  0.00000000000E+00 0. -1.
         22    1    3    3    0    0  0.12227355193E+03  0.10299369267E+03 -0.83090107901E+03  0.84614131522E+03  0.00000000000E+00 0. -1.
</event>
<event>
 7    1  0.6557591E-006  0.1238476E+03  0.7818608E-02  0.1256391E+00
          2   -1    0    0  502    0  0.00000000000E+00  0.00000000000E+00  0.14112082246E+04  0.14112082246E+04  0.00000000000E+00 0. -1.
          1   -1    0    0  501    0 -0.00000000000E+00 -0.00000000000E+00 -0.55318291916E+03  0.55318291916E+03  0.00000000000E+00 0. -1.
         25    2    1    2    0    0 -0.98653032875E+01 -0.21378290263E+03  0.32990188531E+02  0.25002826022E+03  0.12500129880E+03 0.  0.
          2    1    1    2  501    0  0.32483079588E+02  0.11452062878E+03 -0.43460645832E+03  0.45061391289E+03  0.00000000000E+00 0. -1.
          1    1    1    2  502    0 -0.22617776301E+02  0.99262273856E+02  0.12596415752E+04  0.12637489706E+04  0.00000000000E+00 0. -1.
         22    1    3    3    0    0 -0.41190365787E+02 -0.41389278770E+02  0.45991714788E+02  0.74330050854E+02  0.00000000000E+00 0. -1.
         22    1    3    3    0    0  0.31325062500E+02 -0.17239362386E+03 -0.13001526257E+02  0.17569820936E+03  0.00000000000E+00 0. -1.
</event>
<event>
 7    1  0.6557591E-006  0.8934400E+02  0.7818608E-02  0.1387897E+00
          2   -1    0    0  502    0  0.00000000000E+00  0.00000000000E+00  0.37388953632E+02  0.37388953632E+02  0.00000000000E+00 0. -1.
          1   -1    0    0  501    0 -0.00000000000E+00 -0.00000000000E+00 -0.17218213201E+04  0.17218213201E+04  0.00000000000E+00 0. -1.
         25    2    1    2    0    0  0.61250573907E+02 -0.86197658494E+02 -0.55648354933E+03  0.58006972552E+03  0.12500110665E+03 0.  0.
          2    1    1    2  501    0 -0.17623195740E+02  0.86306050046E+02 -0.11319111213E+04  0.11353334743E+04  0.00000000000E+00 0. -1.
          1    1    1    2  502    0 -0.43627378167E+02 -0.10839155244E+00  0.39623041312E+01  0.43807073955E+02  0.00000000000E+00 0. -1.
         22    1    3    3    0    0 -0.38512895838E+02 -0.27940440021E+02 -0.14026664624E+03  0.14811699221E+03  0.00000000000E+00 0.  1.
         22    1    3    3    0    0  0.99763469746E+02 -0.58257218473E+02 -0.41621690309E+03  0.43195273331E+03  0.00000000000E+00 0.  1.
</event>
<event>
 7    1  0.6557591E-006  0.5904980E+02  0.7818608E-02  0.1424459E+00
          2   -1    0    0  502    0  0.00000000000E+00  0.00000000000E+00  0.18759858479E+04  0.18759858479E+04  0.00000000000E+00 0. -1.
          1   -1    0    0  501    0 -0.00000000000E+00 -0.00000000000E+00 -0.32709167518E+03  0.32709167518E+03  0.00000000000E+00 0. -1.
         25    2    1    2    0    0  0.85022318030E+02  0.56991051803E+02  0.10821484363E+03  0.19445628952E+03  0.12500408635E+03 0.  0.
          2    1    1    2  501    0 -0.28855964326E+02 -0.40273597701E+02 -0.28130773938E+03  0.28563731126E+03  0.00000000000E+00 0. -1.
          1    1    1    2  502    0 -0.56166353703E+02 -0.16717454102E+02  0.17219870684E+04  0.17229839223E+04  0.00000000000E+00 0. -1.
         22    1    3    3    0    0  0.17866147294E+02 -0.15324357817E+02 -0.21219308015E+02  0.31690601040E+02  0.00000000000E+00 0.  1.
         22    1    3    3    0    0  0.67156170735E+02  0.72315409619E+02  0.12943415164E+03  0.16276568848E+03  0.00000000000E+00 0.  1.
</event>
<event>
 7    1  0.6557591E-006  0.1263198E+03  0.7818608E-02  0.1390829E+00
          2   -1    0    0  502    0  0.00000000000E+00  0.00000000000E+00  0.86996427520E+03  0.86996427520E+03  0.00000000000E+00 0. -1.
          1   -1    0    0  501    0 -0.00000000000E+00 -0.00000000000E+00 -0.75405755233E+03  0.75405755233E+03  0.00000000000E+00 0. -1.
         25    2    1    2    0    0 -0.10051655957E+03  0.48658274368E+02  0.14417778806E+03  0.22109458191E+03  0.12499749264E+03 0.  0.
          2    1    1    2  501    0 -0.24594127032E+02 -0.17419087313E+02 -0.70922804648E+03  0.70986809874E+03  0.00000000000E+00 0. -1.
          1    1    1    2  502    0  0.12511068660E+03 -0.31239187056E+02  0.68095698129E+03  0.69305914688E+03  0.00000000000E+00 0. -1.
         22    1    3    3    0    0 -0.10266664391E+03  0.60834811297E+02  0.55592409830E+02  0.13165040853E+03  0.00000000000E+00 0.  1.
         22    1    3    3    0    0  0.21500843353E+01 -0.12176536929E+02  0.88585378230E+02  0.89444173373E+02  0.00000000000E+00 0.  1.
</event>
<event>
 7    1  0.6557591E-006  0.3616211E+02  0.7818608E-02  0.1613371E+00
          2   -1    0    0  502    0  0.00000000000E+00  0.00000000000E+00  0.20285216663E+04  0.20285216663E+04  0.00000000000E+00 0. -1.
          1   -1    0    0  501    0 -0.00000000000E+00 -0.00000000000E+00 -0.25458498000E+02  0.25458498000E+02  0.00000000000E+00 0. -1.
         25    2    1    2    0    0 -0.72585164926E+01  0.19807721186E+02  0.44820699841E+03  0.46578480643E+03  0.12498376132E+03 0.  0.
          2    1    1    2  501    0 -0.87179767172E+01 -0.35957449858E+02  0.40470770613E+01  0.37219889187E+02  0.00000000000E+00 0. -1.
          1    1    1    2  502    0  0.15976493210E+02  0.16149728672E+02  0.15508090928E+04  0.15509754687E+04  0.00000000000E+00 0. -1.
         22    1    3    3    0    0 -0.33153004331E+02 -0.30339464703E+02  0.34705948969E+03  0.34995698907E+03  0.00000000000E+00 0.  1.
         22    1    3    3    0    0  0.25894487839E+02  0.50147185889E+02  0.10114750872E+03  0.11582781735E+03  0.00000000000E+00 0.  1.
</event>
<event>
 7    1  0.6557591E-006  0.5324774E+02  0.7818608E-02  0.1542359E+00
          2   -1    0    0  502    0  0.00000000000E+00  0.00000000000E+00  0.29241088350E+03  0.29241088350E+03  0.00000000000E+00 0. -1.
          1   -1    0    0  501    0 -0.00000000000E+00 -0.00000000000E+00 -0.14464683039E+03  0.14464683039E+03  0.00000000000E+00 0. -1.
         25    2    1    2    0    0  0.67018831803E+01  0.70016771735E+02  0.16670431451E+03  0.21991263273E+03  0.12499589592E+03 0.  0.
          2    1    1    2  501    0 -0.11860254847E+02 -0.20810048946E+02 -0.11050338856E+03  0.11306954791E+03  0.00000000000E+00 0. -1.
          1    1    1    2  502    0  0.51583716664E+01 -0.49206722789E+02  0.91563127155E+02  0.10407553325E+03  0.00000000000E+00 0. -1.
         22    1    3    3    0    0  0.22187637664E+02  0.10104539928E+03  0.95866669316E+02  0.14104212940E+03  0.00000000000E+00 0.  1.
         22    1    3    3    0    0 -0.15485754484E+02 -0.31028627544E+02  0.70837645193E+02  0.78870503331E+02  0.00000000000E+00 0.  1.
</event>
<event>
 7    1  0.6557591E-006  0.5550736E+02  0.7818608E-02  0.1430246E+00
          2   -1    0    0  502    0  0.00000000000E+00  0.00000000000E+00  0.57764833505E+03  0.57764833505E+03  0.00000000000E+00 0. -1.
          1   -1    0    0  501    0 -0.00000000000E+00 -0.00000000000E+00 -0.12396023772E+04  0.12396023772E+04  0.00000000000E+00 0. -1.
         25    2    1    2    0    0 -0.76327015289E+02 -0.74617886898E+01 -0.68409830835E+03  0.69963697030E+03  0.12497961103E+03 0.  0.
          2    1    1    2  501    0  0.44408789895E+02 -0.31588978413E+02 -0.54525780214E+03  0.54797452037E+03  0.00000000000E+00 0. -1.
          1    1    1    2  502    0  0.31918225394E+02  0.39050767103E+02  0.56740206837E+03  0.56963922154E+03  0.00000000000E+00 0. -1.
         22    1    3    3    0    0  0.44815262126E+01 -0.53442048415E+02 -0.24350723305E+03  0.24934295492E+03  0.00000000000E+00 0.  1.
         22    1    3    3    0    0 -0.80808541502E+02  0.45980259725E+02 -0.44059107529E+03  0.45029401539E+03  0.00000000000E+00 0.  1.
</event>
<event>
 7    1  0.6557591E-006  0.1048590E+03  0.7818608E-02  0.1328875E+00
          2   -1    0    0  502    0  0.00000000000E+00  0.00000000000E+00  0.26565048156E+04  0.26565048156E+04  0.00000000000E+00 0. -1.
          1   -1    0    0  501    0 -0.00000000000E+00 -0.00000000000E+00 -0.47759869876E+02  0.47759869876E+02  0.00000000000E+00 0. -1.
         25    2    1    2    0    0 -0.54689767317E+02  0.23589027784E+01  0.17644462334E+03  0.22304415266E+03  0.12497781345E+03 0.  0.
          2    1    1    2  501    0 -0.42506347736E+02  0.43931641021E+02  0.16900096739E+02  0.63422330062E+02  0.00000000000E+00 0. -1.
          1    1    1    2  502    0  0.97196115053E+02 -0.46290543800E+02  0.24154002256E+04  0.24177982027E+04  0.00000000000E+00 0. -1.
         22    1    3    3    0    0 -0.30338423972E+00  0.57554114945E+02  0.59715559537E+02  0.82936820773E+02  0.00000000000E+00 0.  1.
         22    1    3    3    0    0 -0.54386383077E+02 -0.55195212167E+02  0.11672906381E+03  0.14010733188E+03  0.00000000000E+00 0.  1.
</event>
<event>
 7    1  0.6557591E-006  0.1196111E+03  0.7818608E-02  0.1339959E+00
          2   -1    0    0  502    0  0.00000000000E+00  0.00000000000E+00  0.12525162511E+03  0.12525162511E+03  0.00000000000E+00 0. -1.
          1   -1    0    0  501    0 -0.00000000000E+00 -0.00000000000E+00 -0.11366237649E+04  0.11366237649E+04  0.00000000000E+00 0. -1.
         25    2    1    2    0    0 -0.82276384217E+02 -0.32260167457E+02 -0.84162058287E+02  0.17469433280E+03  0.12499894421E+03 0.  0.
          2    1    1    2  501    0 -0.48421740698E+02  0.46393754992E+01 -0.95036091761E+03  0.95160499289E+03  0.00000000000E+00 0. -1.
          1    1    1    2  502    0  0.13069812491E+03  0.27620791957E+02  0.23150836104E+02  0.13557606432E+03  0.00000000000E+00 0. -1.
         22    1    3    3    0    0 -0.85948547992E+02 -0.65194738595E+02 -0.90672749373E+02  0.14092215696E+03  0.00000000000E+00 0.  1.
         22    1    3    3    0    0  0.36721637751E+01  0.32934571138E+02  0.65106910855E+01  0.33772175844E+02  0.00000000000E+00 0.  1.
</event>
<event>
 7    1  0.6557591E-006  0.9375439E+02  0.7818608E-02  0.1296990E+00
          2   -1    0    0  502    0  0.00000000000E+00  0.00000000000E+00  0.28114747932E+03  0.28114747932E+03  0.00000000000E+00 0. -1.
          1   -1    0    0  501    0 -0.00000000000E+00 -0.00000000000E+00 -0.15712378967E+04  0.15712378967E+04  0.00000000000E+00 0. -1.
         25    2    1    2    0    0 -0.76972938469E+02 -0.52545497442E+02 -0.14456062683E+03  0.21262723039E+03  0.12500680666E+03 0.  0.
          2    1    1    2  501    0 -0.11169232634E+02  0.90506848714E+02 -0.13817662813E+04  0.13847722909E+04  0.00000000000E+00 0. -1.
          1    1    1    2  502    0  0.88142171104E+02 -0.37961351272E+02  0.23623649081E+03  0.25498585472E+03  0.00000000000E+00 0. -1.
         22    1    3    3    0    0 -0.26318087495E+02 -0.34936360550E+01  0.20234182385E+02  0.33380673436E+02  0.00000000000E+00 0.  1.
         22    1    3    3    0    0 -0.50654850975E+02 -0.49051861387E+02 -0.16479480922E+03  0.17924655695E+03  0.00000000000E+00 0.  1.
</event>
<event>
 7    1  0.6557591E-006  0.2825192E+02  0.7818608E-02  0.1625822E+00
          2   -1    0    0  502    0  0.00000000000E+00  0.00000000000E+00  0.18462170388E+03  0.18462170388E+03  0.00000000000E+00 0. -1.
          1   -1    0    0  501    0 -0.00000000000E+00 -0.00000000000E+00 -0.86353293529E+03  0.86353293529E+03  0.00000000000E+00 0. -1.
         25    2    1    2    0    0 -0.34224009314E+02 -0.11727366075E+02 -0.33950843862E+03  0.36359345231E+03  0.12500161894E+03 0.  0.
          2    1    1    2  501    0  0.24874569001E+02 -0.13633055880E+02 -0.51052756615E+03  0.51131497161E+03  0.00000000000E+00 0. -1.
          1    1    1    2  502    0  0.93494403123E+01  0.25360421955E+02  0.17112477337E+03  0.17324621524E+03  0.00000000000E+00 0. -1.
         22    1    3    3    0    0 -0.53018599881E+02  0.23483404962E+02 -0.68883007442E+02  0.90040607263E+02  0.00000000000E+00 0.  1.
         22    1    3    3    0    0  0.18794590567E+02 -0.35210771038E+02 -0.27062543118E+03  0.27355284505E+03  0.00000000000E+00 0.  1.
</event>
<event>
 7    1  0.6557591E-006  0.3926044E+02  0.7818608E-02  0.1524809E+00
          2   -1    0    0  502    0  0.00000000000E+00  0.00000000000E+00  0.11697103790E+04  0.11697103790E+04  0.00000000000E+00 0. -1.
          1   -1    0    0  501    0 -0.00000000000E+00 -0.00000000000E+00 -0.12354455108E+04  0.12354455108E+04  0.00000000000E+00 0. -1.
         25    2    1    2    0    0  0.18719230932E+02  0.14420267044E+02 -0.27162357204E+02  0.13008402004E+03  0.12500281961E+03 0.  0.
          2    1    1    2  501    0  0.86575869747E+01 -0.38490085159E+02 -0.11561887034E+04  0.11568615986E+04  0.00000000000E+00 0. -1.
          1    1    1    2  502    0 -0.27376817907E+02  0.24069818115E+02  0.11176159287E+04  0.11182102711E+04  0.00000000000E+00 0. -1.
         22    1    3    3    0    0  0.33778407607E+02 -0.49161857186E+02 -0.25090205297E+02  0.64710025686E+02  0.00000000000E+00 0. -1.
         22    1    3    3    0    0 -0.15059176675E+02  0.63582124230E+02 -0.20721519071E+01  0.65373994349E+02  0.00000000000E+00 0. -1.
</event>
<event>
 7    1  0.6557591E-006  0.6742952E+02  0.7818608E-02  0.1379368E+00
          2   -1    0    0  502    0  0.00000000000E+00  0.00000000000E+00  0.40437045807E+03  0.40437045807E+03  0.00000000000E+00 0. -1.
          1   -1    0    0  501    0 -0.00000000000E+00 -0.00000000000E+00 -0.34422185457E+03  0.34422185457E+03  0.00000000000E+00 0. -1.
         25    2    1    2    0    0 -0.47304717371E+01  0.63274186481E+02 -0.29227820473E+02  0.14319184398E+03  0.12499455450E+03 0.  0.
          2    1    1    2  501    0 -0.54751294036E+02 -0.28978280108E+02 -0.25081377580E+03  0.25835052747E+03  0.00000000000E+00 0. -1.
          1    1    1    2  502    0  0.59481765773E+02 -0.34295906374E+02  0.34019019977E+03  0.34704994118E+03  0.00000000000E+00 0. -1.
         22    1    3    3    0    0 -0.55224966818E+02  0.65984079207E+02 -0.33740834541E+02  0.92423696011E+02  0.00000000000E+00 0. -1.
         22    1    3    3    0    0  0.50494495081E+02 -0.27098927255E+01  0.45130140683E+01  0.50768147967E+02  0.00000000000E+00 0. -1.
</event>
<event>
 7    1  0.6557591E-006  0.1279681E+03  0.7818608E-02  0.1425139E+00
          2   -1    0    0  502    0  0.00000000000E+00  0.00000000000E+00  0.52831775776E+02  0.52831775776E+02  0.00000000000E+00 0. -1.
          1   -1    0    0  501    0 -0.00000000000E+00 -0.00000000000E+00 -0.25466791428E+04  0.25466791428E+04  0.00000000000E+00 0. -1.
         25    2    1    2    0    0  0.51519358041E+02  0.11340069906E+03 -0.29155514191E+03  0.34079806422E+03  0.12499982800E+03 0.  0.
          2    1    1    2  501    0 -0.72901632233E+02 -0.10565104051E+03 -0.22237458982E+04  0.22274475550E+04  0.00000000000E+00 0. -1.
          1    1    1    2  502    0  0.21382274193E+02 -0.77496585465E+01  0.21453673089E+02  0.31265299395E+02  0.00000000000E+00 0. -1.
         22    1    3    3    0    0  0.69880096381E+01  0.27298056262E+02 -0.21617031191E+03  0.21799912823E+03  0.00000000000E+00 0. -1.
         22    1    3    3    0    0  0.44531348403E+02  0.86102642796E+02 -0.75384829996E+02  0.12279893599E+03  0.00000000000E+00 0. -1.
</event>
<event>
 7    1  0.6557591E-006  0.6591330E+02  0.7818608E-02  0.1422256E+00
          2   -1    0    0  502    0  0.00000000000E+00  0.00000000000E+00  0.69277260216E+02  0.69277260216E+02  0.00000000000E+00 0. -1.
          1   -1    0    0  501    0 -0.00000000000E+00 -0.00000000000E+00 -0.16221373731E+04  0.16221373731E+04  0.00000000000E+00 0. -1.
         25    2    1    2    0    0  0.79162620638E+02 -0.19734050624E+02 -0.49121888771E+03  0.51339789333E+03  0.12500099188E+03 0.  0.
          2    1    1    2  501    0 -0.61842394993E+02 -0.21950576147E+02 -0.11099572215E+04  0.11118953832E+04  0.00000000000E+00 0. -1.
          1    1    1    2  502    0 -0.17320225645E+02  0.41684626771E+02  0.48315996315E+02  0.66121356802E+02  0.00000000000E+00 0. -1.
         22    1    3    3    0    0  0.11070600308E+03 -0.25232967852E+01 -0.40783675973E+03  0.42260266058E+03  0.00000000000E+00 0.  1.
         22    1    3    3    0    0 -0.31543382437E+02 -0.17210753839E+02 -0.83382127982E+02  0.90795232749E+02  0.00000000000E+00 0.  1.
</event>
<event>
 7    1  0.6557591E-006  0.9554946E+02  0.7818608E-02  0.1410110E+00
          2   -1    0    0  502    0  0.00000000000E+00  0.00000000000E+00  0.29282337737E+04  0.29282337737E+04  0.00000000000E+00 0. -1.
          1   -1    0    0  501    0 -0.00000000000E+00 -0.00000000000E+00 -0.44807694843E+03  0.44807694843E+03  0.00000000000E+00 0. -1.
         25    2    1    2    0    0 -0.74942109171E+02  0.81631173220E+02  0.37549396258E+03  0.41097759680E+03  0.12500760364E+03 0.  0.
          2    1    1    2  501    0 -0.69707437050E+01 -0.33487832330E+02 -0.42876347813E+03  0.43012573320E+03  0.00000000000E+00 0. -1.
          1    1    1    2  502    0  0.81912852876E+02 -0.48143340890E+02  0.25334263409E+04  0.25352073922E+04  0.00000000000E+00 0. -1.
         22    1    3    3    0    0 -0.85550072238E+02  0.64646578730E+02  0.14885236149E+03  0.18345304719E+03  0.00000000000E+00 0. -1.
         22    1    3    3    0    0  0.10607963067E+02  0.16984594490E+02  0.22664160109E+03  0.22752454961E+03  0.00000000000E+00 0. -1.
</event>
<event>
 7    1  0.6557591E-006  0.9626576E+02  0.7818608E-02  0.1337039E+00
          2   -1    0    0  502    0  0.00000000000E+00  0.00000000000E+00  0.27944970229E+04  0.27944970229E+04  0.00000000000E+00 0. -1.
          1   -1    0    0  501    0 -0.00000000000E+00 -0.00000000000E+00 -0.14629388484E+03  0.14629388484E+03  0.00000000000E+00 0. -1.
         25    2    1    2    0    0 -0.76562910872E+02 -0.50003209971E+02  0.21704906529E+03  0.26664134483E+03  0.12500043881E+03 0.  0.
          2    1    1    2  501    0 -0.20212660905E+02  0.58604041929E+02 -0.11260202658E+03  0.12853871705E+03  0.00000000000E+00 0. -1.
          1    1    1    2  502    0  0.96775571776E+02 -0.86008319577E+01  0.25437560993E+04  0.25456108458E+04  0.00000000000E+00 0. -1.
         22    1    3    3    0    0  0.24172562184E+02 -0.92585553572E+01  0.23269112825E+01  0.25989384871E+02  0.00000000000E+00 0.  1.
         22    1    3    3    0    0 -0.10073547306E+03 -0.40744654614E+02  0.21472215400E+03  0.24065195996E+03  0.00000000000E+00 0.  1.
</event>
<event>
 7    1  0.6557591E-006  0.6212406E+02  0.7818608E-02  0.1490769E+00
          2   -1    0    0  502    0  0.00000000000E+00  0.00000000000E+00  0.47131289938E+02  0.47131289938E+02  0.00000000000E+00 0. -1.
          1   -1    0    0  501    0 -0.00000000000E+00 -0.00000000000E+00 -0.18304428820E+04  0.18304428820E+04  0.00000000000E+00 0. -1.
         25    2    1    2    0    0 -0.60725561842E+01 -0.34893084340E+02 -0.10606434365E+04  0.10685711843E+04  0.12500189328E+03 0.  0.
          2    1    1    2  501    0 -0.17345480495E+02 -0.23286631276E+02 -0.74262189070E+03  0.74318934696E+03  0.00000000000E+00 0. -1.
          1    1    1    2  502    0  0.23418036679E+02  0.58179715616E+02  0.19953735124E+02  0.65813640656E+02  0.00000000000E+00 0. -1.
         22    1    3    3    0    0 -0.76285493897E+01 -0.74747423784E+02 -0.41857188589E+03  0.42526203191E+03  0.00000000000E+00 0.  1.
         22    1    3    3    0    0  0.15559932055E+01  0.39854339444E+02 -0.64207155057E+03  0.64330915239E+03  0.00000000000E+00 0.  1.
</event>
<event>
 7    1  0.6557591E-006  0.6969818E+02  0.7818608E-02  0.1501630E+00
          2   -1    0    0  502    0  0.00000000000E+00  0.00000000000E+00  0.63170053740E+02  0.63170053740E+02  0.00000000000E+00 0. -1.
          1   -1    0    0  501    0 -0.00000000000E+00 -0.00000000000E+00 -0.60878385082E+03  0.60878385082E+03  0.00000000000E+00 0. -1.
         25    2    1    2    0    0  0.42893218294E+01 -0.88005670748E+02 -0.29288920608E+03  0.33040854371E+03  0.12498928895E+03 0.  0.
          2    1    1    2  501    0  0.51974644548E+01  0.65948468822E+02 -0.28986586737E+03  0.29731874351E+03  0.00000000000E+00 0. -1.
          1    1    1    2  502    0 -0.94867862842E+01  0.22057201927E+02  0.37141276371E+02  0.44226617340E+02  0.00000000000E+00 0. -1.
         22    1    3    3    0    0 -0.56025479788E+02 -0.17804370268E+02 -0.91311031100E+02  0.10859813252E+03  0.00000000000E+00 0.  1.
         22    1    3    3    0    0  0.60314801617E+02 -0.70201300480E+02 -0.20157817498E+03  0.22181041119E+03  0.00000000000E+00 0.  1.
</event>
<event>
 7    1  0.6557591E-006  0.2427903E+03  0.7818608E-02  0.1312245E+00
          2   -1    0    0  502    0  0.00000000000E+00  0.00000000000E+00  0.93248456260E+03  0.93248456260E+03  0.00000000000E+00 0. -1.
          1   -1    0    0  501    0 -0.00000000000E+00 -0.00000000000E+00 -0.49766279982E+03  0.49766279982E+03  0.00000000000E+00 0. -1.
         25    2    1    2    0    0  0.19786975262E+03 -0.80422319740E+02  0.71645587202E+03  0.75799353046E+03  0.12499994860E+03 0.  0.
          2    1    1    2  501    0 -0.22470050913E+03  0.95189729392E+02 -0.44415141009E+03  0.50677596477E+03  0.00000000000E+00 0. -1.
          1    1    1    2  502    0  0.26830756502E+02 -0.14767409652E+02  0.16251730085E+03  0.16537786719E+03  0.00000000000E+00 0. -1.
         22    1    3    3    0    0  0.14465910109E+03 -0.37668815316E+02  0.29152941286E+03  0.32761958692E+03  0.00000000000E+00 0.  1.
         22    1    3    3    0    0  0.53210651535E+02 -0.42753504424E+02  0.42492645916E+03  0.43037394354E+03  0.00000000000E+00 0.  1.
</event>
<event>
 7    1  0.6557591E-006  0.8898866E+02  0.7818608E-02  0.1438985E+00
          2   -1    0    0  502    0  0.00000000000E+00  0.00000000000E+00  0.83214325477E+03  0.83214325477E+03  0.00000000000E+00 0. -1.
          1   -1    0    0  501    0 -0.00000000000E+00 -0.00000000000E+00 -0.27946319710E+03  0.27946319710E+03  0.00000000000E+00 0. -1.
         25    2    1    2    0    0 -0.12530105174E+02  0.85227513924E+02  0.17103102551E+03  0.22868482190E+03  0.12499761364E+03 0.  0.
          2    1    1    2  501    0  0.41348889703E+02 -0.79134998725E+02 -0.24232598793E+03  0.25825174371E+03  0.00000000000E+00 0. -1.
          1    1    1    2  502    0 -0.28818784528E+02 -0.60925151984E+01  0.62397502010E+03  0.62466988625E+03  0.00000000000E+00 0. -1.
         22    1    3    3    0    0 -0.32929193872E+02  0.82176769750E+02  0.18409124287E+03  0.20427172834E+03  0.00000000000E+00 0.  1.
         22    1    3    3    0    0  0.20399088697E+02  0.30507441734E+01 -0.13060217363E+02  0.24413093562E+02  0.00000000000E+00 0.  1.
</event>
<event>
 7    1  0.6557591E-006  0.7770735E+02  0.7818608E-02  0.1490928E+00
          2   -1    0    0  502    0  0.00000000000E+00  0.00000000000E+00  0.20661668230E+04  0.20661668230E+04  0.00000000000E+00 0. -1.
          1   -1    0    0  501    0 -0.00000000000E+00 -0.00000000000E+00 -0.35947919826E+03  0.35947919826E+03  0.00000000000E+00 0. -1.
         25    2    1    2    0    0  0.70967533734E+02 -0.18571832721E+02  0.13754137336E+04  0.13830289407E+04  0.12499923360E+03 0.  0.
          2    1    1    2  501    0 -0.77646018843E+02 -0.36337024346E+01 -0.35122537243E+03  0.35972401960E+03  0.00000000000E+00 0. -1.
          1    1    1    2  502    0  0.66784851086E+01  0.22205535155E+02  0.68249926361E+03  0.68289306102E+03  0.00000000000E+00 0. -1.
         22    1    3    3    0    0 -0.23135629458E+02 -0.32034746784E+02  0.20586014340E+03  0.20961841758E+03  0.00000000000E+00 0. -1.
         22    1    3    3    0    0  0.94103163193E+02  0.13462914064E+02  0.11695535902E+04  0.11734105231E+04  0.00000000000E+00 0. -1.
</event>
<event>
 7    1  0.6557591E-006  0.6384702E+02  0.7818608E-02  0.1388454E+00
          2   -1    0    0  502    0  0.00000000000E+00  0.00000000000E+00  0.13353444519E+03  0.13353444519E+03  0.00000000000E+00 0. -1.
          1   -1    0    0  501    0 -0.00000000000E+00 -0.00000000000E+00 -0.16157920348E+04  0.16157920348E+04  0.00000000000E+00 0. -1.
         25    2    1    2    0    0 -0.45923354618E+02 -0.10777032257E+03 -0.30331974879E+03  0.34834965881E+03  0.12498487053E+03 0.  0.
          2    1    1    2  501    0  0.40516211605E+02  0.47234612164E+02 -0.12808269653E+04  0.12823378599E+04  0.00000000000E+00 0. -1.
          1    1    1    2  502    0  0.54071430131E+01  0.60535710403E+02  0.10188912449E+03  0.11863896122E+03  0.00000000000E+00 0. -1.
         22    1    3    3    0    0  0.26730417319E+02 -0.37613405199E+02 -0.25456420593E+02  0.52700216414E+02  0.00000000000E+00 0. -1.
         22    1    3    3    0    0 -0.72653771937E+02 -0.70156917368E+02 -0.27786332820E+03  0.29564944240E+03  0.00000000000E+00 0. -1.
</event>
<event>
 7    1  0.6557591E-006  0.4356322E+03  0.7818608E-02  0.1175705E+00
          2   -1    0    0  502    0  0.00000000000E+00  0.00000000000E+00  0.15729772666E+04  0.15729772666E+04  0.00000000000E+00 0. -1.
          1   -1    0    0  501    0 -0.00000000000E+00 -0.00000000000E+00 -0.26350749983E+03  0.26350749983E+03  0.00000000000E+00 0. -1.
         25    2    1    2    0    0  0.34888465718E+03 -0.15966426511E+03  0.87097191628E+03  0.95991169289E+03  0.12500079052E+03 0.  0.
          2    1    1    2  501    0 -0.39922736167E+03  0.20532751458E+03  0.16605633952E+02  0.44924116199E+03  0.00000000000E+00 0. -1.
          1    1    1    2  502    0  0.50342704489E+02 -0.45663249467E+02  0.42189221650E+03  0.42733191151E+03  0.00000000000E+00 0. -1.
         22    1    3    3    0    0  0.22579464724E+03 -0.40192597770E+02  0.55183271764E+03  0.59759352062E+03  0.00000000000E+00 0. -1.
         22    1    3    3    0    0  0.12309000994E+03 -0.11947166734E+03  0.31913919864E+03  0.36231817227E+03  0.00000000000E+00 0. -1.
</event>
<event>
 7    1  0.6557591E-006  0.6642567E+02  0.7818608E-02  0.1494681E+00
          2   -1    0    0  502    0  0.00000000000E+00  0.00000000000E+00  0.54488749287E+02  0.54488749287E+02  0.00000000000E+00 0. -1.
          1   -1    0    0  501    0 -0.00000000000E+00 -0.00000000000E+00 -0.59370346476E+03  0.59370346476E+03  0.00000000000E+00 0. -1.
         25    2    1    2    0    0  0.38985461606E+02 -0.27351558219E+02 -0.12287428435E+03  0.18163137661E+03  0.12499557296E+03 0.  0.
          2    1    1    2  501    0  0.15918992462E+02 -0.21096934440E+02 -0.38664069475E+03  0.38754292898E+03  0.00000000000E+00 0. -1.
          1    1    1    2  502    0 -0.54904454068E+02  0.48448492659E+02 -0.29699736377E+02  0.79017908465E+02  0.00000000000E+00 0. -1.
         22    1    3    3    0    0 -0.24751669216E+02 -0.37963471933E+01 -0.10956444746E+03  0.11238961486E+03  0.00000000000E+00 0.  1.
         22    1    3    3    0    0  0.63737130822E+02 -0.23555211026E+02 -0.13309836889E+02  0.69241761747E+02  0.00000000000E+00 0.  1.
</event>
<event>
 7    1  0.6557591E-006  0.6039397E+02  0.7818608E-02  0.1440822E+00
          2   -1    0    0  502    0  0.00000000000E+00  0.00000000000E+00  0.46193936234E+02  0.46193936234E+02  0.00000000000E+00 0. -1.
          1   -1    0    0  501    0 -0.00000000000E+00 -0.00000000000E+00 -0.37821260136E+03  0.37821260136E+03  0.00000000000E+00 0. -1.
         25    2    1    2    0    0 -0.35830674428E+02 -0.11058908834E+02 -0.13304706518E+03  0.18637035531E+03  0.12500500425E+03 0.  0.
          2    1    1    2  501    0  0.63531365458E+02 -0.21581825431E+02 -0.17827830080E+03  0.19048664552E+03  0.00000000000E+00 0. -1.
          1    1    1    2  502    0 -0.27700691031E+02  0.32640734266E+02 -0.20693299136E+02  0.47549536760E+02  0.00000000000E+00 0. -1.
         22    1    3    3    0    0 -0.38703110365E+02  0.25356176092E+02 -0.14150344469E+03  0.14887609371E+03  0.00000000000E+00 0. -1.
         22    1    3    3    0    0  0.28724359374E+01 -0.36415084927E+02  0.84563795090E+01  0.37494261599E+02  0.00000000000E+00 0. -1.
</event>
<event>
 7    1  0.6557591E-006  0.4588204E+02  0.7818608E-02  0.1491699E+00
          2   -1    0    0  502    0  0.00000000000E+00  0.00000000000E+00  0.10097252784E+04  0.10097252784E+04  0.00000000000E+00 0. -1.
          1   -1    0    0  501    0 -0.00000000000E+00 -0.00000000000E+00 -0.14974799489E+03  0.14974799489E+03  0.00000000000E+00 0. -1.
         25    2    1    2    0    0 -0.77896541393E+02 -0.78626897503E+01  0.13643494368E+01  0.14750297963E+03  0.12500229798E+03 0.  0.
          2    1    1    2  501    0  0.37011189493E+02 -0.12491459963E+02 -0.71106619127E+02  0.81129624697E+02  0.00000000000E+00 0. -1.
          1    1    1    2  502    0  0.40885351900E+02  0.20354149714E+02  0.92971955322E+03  0.93084066900E+03  0.00000000000E+00 0. -1.
         22    1    3    3    0    0  0.23088871379E+02  0.78047650958E+01  0.32544114584E+02  0.40658698132E+02  0.00000000000E+00 0. -1.
         22    1    3    3    0    0 -0.10098541277E+03 -0.15667454846E+02 -0.31179765148E+02  0.10684428150E+03  0.00000000000E+00 0. -1.
</event>
<event>
 7    1  0.6557591E-006  0.5904620E+02  0.7818608E-02  0.1493384E+00
          2   -1    0    0  502    0  0.00000000000E+00  0.00000000000E+00  0.22162244753E+04  0.22162244753E+04  0.00000000000E+00 0. -1.
          1   -1    0    0  501    0 -0.00000000000E+00 -0.00000000000E+00 -0.27238781507E+03  0.27238781507E+03  0.00000000000E+00 0. -1.
         25    2    1    2    0    0 -0.28799905937E+02  0.65335616370E+02 -0.44446680515E+02  0.15065633125E+03  0.12499458143E+03 0.  0.
          2    1    1    2  501    0 -0.15122209087E+02 -0.25910405666E+02 -0.17314353408E+03  0.17572340118E+03  0.00000000000E+00 0. -1.
          1    1    1    2  502    0  0.43922115024E+02 -0.39425210704E+02  0.21614268748E+04  0.21622325579E+04  0.00000000000E+00 0. -1.
         22    1    3    3    0    0 -0.39933101690E+01  0.95179384704E+02 -0.55569787510E+02  0.11028627785E+03  0.00000000000E+00 0.  1.
         22    1    3    3    0    0 -0.24806595768E+02 -0.29843768334E+02  0.11123106995E+02  0.40370053396E+02  0.00000000000E+00 0.  1.
</event>
<event>
 7    1  0.6557591E-006  0.1761416E+03  0.7818608E-02  0.1218253E+00
          2   -1    0    0  502    0  0.00000000000E+00  0.00000000000E+00  0.18025718422E+03  0.18025718422E+03  0.00000000000E+00 0. -1.
          1   -1    0    0  501    0 -0.00000000000E+00 -0.00000000000E+00 -0.68748930097E+03  0.68748930097E+03  0.00000000000E+00 0. -1.
         25    2    1    2    0    0 -0.77296859218E+01  0.96734549785E+02 -0.24230725475E+02  0.16008873832E+03  0.12499581958E+03 0.  0.
          2    1    1    2  501    0 -0.33956076399E+02 -0.19378983401E+03 -0.54894380170E+03  0.58313532933E+03  0.00000000000E+00 0. -1.
          1    1    1    2  502    0  0.41685762320E+02  0.97055284229E+02  0.65942410432E+02  0.12452241754E+03  0.00000000000E+00 0. -1.
         22    1    3    3    0    0 -0.56327537684E+02  0.94360412278E+01  0.67923604576E+00  0.57116475181E+02  0.00000000000E+00 0.  1.
         22    1    3    3    0    0  0.48597851762E+02  0.87298508557E+02 -0.24909961521E+02  0.10297226313E+03  0.00000000000E+00 0.  1.
</event>
<event>
 7    1  0.6557591E-006  0.9754248E+02  0.7818608E-02  0.1328986E+00
          2   -1    0    0  502    0  0.00000000000E+00  0.00000000000E+00  0.12914765437E+04  0.12914765437E+04  0.00000000000E+00 0. -1.
          1   -1    0    0  501    0 -0.00000000000E+00 -0.00000000000E+00 -0.61882136005E+02  0.61882136005E+02  0.00000000000E+00 0. -1.
         25    2    1    2    0    0 -0.45026519815E+02  0.72413517855E+02  0.26845733620E+03  0.30816411219E+03  0.12499869451E+03 0.  0.
          2    1    1    2  501    0 -0.12909416552E+02 -0.10329096451E+03  0.25388604889E+02  0.10714596419E+03  0.00000000000E+00 0. -1.
          1    1    1    2  502    0  0.57935936367E+02  0.30877446653E+02  0.93574846657E+03  0.93804860328E+03  0.00000000000E+00 0. -1.
         22    1    3    3    0    0  0.61430464720E+01 -0.28713588513E+02  0.10660949929E+03  0.11057934944E+03  0.00000000000E+00 0. -1.
         22    1    3    3    0    0 -0.51169566287E+02  0.10112710637E+03  0.16184783692E+03  0.19758476275E+03  0.00000000000E+00 0. -1.
</event>
<event>
 7    1  0.6557591E-006  0.9119293E+02  0.7818608E-02  0.1463257E+00
          2   -1    0    0  502    0  0.00000000000E+00  0.00000000000E+00  0.17072279600E+04  0.17072279600E+04  0.00000000000E+00 0. -1.
          1   -1    0    0  501    0 -0.00000000000E+00 -0.00000000000E+00 -0.30432989234E+03  0.30432989234E+03  0.00000000000E+00 0. -1.
         25    2    1    2    0    0 -0.92940247777E+02  0.16126325427E+00  0.10917480357E+04  0.11028033151E+04  0.12499385050E+03 0.  0.
          2    1    1    2  501    0  0.88148637113E+02  0.23400252710E+02 -0.29159773588E+03  0.30552740241E+03  0.00000000000E+00 0. -1.
          1    1    1    2  502    0  0.47916106640E+01 -0.23561515965E+02  0.60274776783E+03  0.60322713483E+03  0.00000000000E+00 0. -1.
         22    1    3    3    0    0 -0.67204270468E+02  0.59763701066E+02  0.57443035735E+03  0.58142785398E+03  0.00000000000E+00 0.  1.
         22    1    3    3    0    0 -0.25735977309E+02 -0.59602437811E+02  0.51731767840E+03  0.52137546116E+03  0.00000000000E+00 0.  1.
</event>
<event>
 7    1  0.6557591E-006  0.6906328E+02  0.7818608E-02  0.1364072E+00
          2   -1    0    0  502    0  0.00000000000E+00  0.00000000000E+00  0.22983759720E+04  0.22983759720E+04  0.00000000000E+00 0. -1.
          1   -1    0    0  501    0 -0.00000000000E+00 -0.00000000000E+00 -0.12258392045E+03  0.12258392045E+03  0.00000000000E+00 0. -1.
         25    2    1    2    0    0  0.36485323956E+02 -0.29309389220E+02  0.44506593087E+03  0.46464944467E+03  0.12500081781E+03 0.  0.
          2    1    1    2  501    0 -0.55061957178E+02 -0.40955605716E+02 -0.10156689308E+03  0.12257656602E+03  0.00000000000E+00 0. -1.
          1    1    1    2  502    0  0.18576633222E+02  0.70264994936E+02  0.18322930138E+04  0.18337338818E+04  0.00000000000E+00 0. -1.
         22    1    3    3    0    0 -0.43219687221E+02 -0.28302650375E+02  0.13636351215E+03  0.14582177076E+03  0.00000000000E+00 0.  1.
         22    1    3    3    0    0  0.79705011177E+02 -0.10067388446E+01  0.30870241872E+03  0.31882767391E+03  0.00000000000E+00 0.  1.
</event>
<event>
 7    1  0.6557591E-006  0.1120400E+03  0.7818608E-02  0.1345526E+00
          2   -1    0    0  502    0  0.00000000000E+00  0.00000000000E+00  0.47955755828E+03  0.47955755828E+03  0.00000000000E+00 0. -1.
          1   -1    0    0  501    0 -0.00000000000E+00 -0.00000000000E+00 -0.55918093298E+03  0.55918093298E+03  0.00000000000E+00 0. -1.
         25    2    1    2    0    0  0.34374308393E+01 -0.76422297454E+02  0.80148401991E+02  0.16703990869E+03  0.12500552497E+03 0.  0.
          2    1    1    2  501    0 -0.25502206615E+02 -0.42419901038E+02 -0.50422729393E+03  0.50665074212E+03  0.00000000000E+00 0. -1.
          1    1    1    2  502    0  0.22064775775E+02  0.11884219849E+03  0.34445551723E+03  0.36504784046E+03  0.00000000000E+00 0. -1.
         22    1    3    3    0    0  0.50436854032E+02 -0.10740170142E+02  0.68036868243E+02  0.85371206737E+02  0.00000000000E+00 0. -1.
         22    1    3    3    0    0 -0.46999423193E+02 -0.65682127312E+02  0.12111533748E+02  0.81668701951E+02  0.00000000000E+00 0. -1.
</event>
<event>
 7    1  0.6557591E-006  0.1292437E+03  0.7818608E-02  0.1286832E+00
          2   -1    0    0  502    0  0.00000000000E+00  0.00000000000E+00  0.40880919664E+04  0.40880919664E+04  0.00000000000E+00 0. -1.
          1   -1    0    0  501    0 -0.00000000000E+00 -0.00000000000E+00 -0.70398562766E+03  0.70398562766E+03  0.00000000000E+00 0. -1.
         25    2    1    2    0    0  0.69902865588E+02  0.18648370208E+01  0.32038583341E+03  0.35094471362E+03  0.12500088613E+03 0.  0.
          2    1    1    2  501    0 -0.12020804464E+03  0.50666829909E+02 -0.68217278762E+03  0.69453352246E+03  0.00000000000E+00 0. -1.
          1    1    1    2  502    0  0.50305179050E+02 -0.52531666930E+02  0.37458932930E+04  0.37465993580E+04  0.00000000000E+00 0. -1.
         22    1    3    3    0    0  0.23157413888E+02 -0.55783391603E+02  0.86014648871E+02  0.10510267559E+03  0.00000000000E+00 0.  1.
         22    1    3    3    0    0  0.46745451701E+02  0.57648228624E+02  0.23437118453E+03  0.24584203802E+03  0.00000000000E+00 0.  1.
</event>
<event>
 7    1  0.6557591E-006  0.1462120E+03  0.7818608E-02  0.1286159E+00
          2   -1    0    0  502    0  0.00000000000E+00  0.00000000000E+00  0.63407552951E+03  0.63407552951E+03  0.00000000000E+00 0. -1.
          1   -1    0    0  501    0 -0.00000000000E+00 -0.00000000000E+00 -0.42849179485E+03  0.42849179485E+03  0.00000000000E+00 0. -1.
         25    2    1    2    0    0  0.11270560066E+03  0.38058944417E+02  0.17304465654E+03  0.24438446710E+03  0.12501311504E+03 0.  0.
          2    1    1    2  501    0  0.11193674147E+02  0.63725760338E+02 -0.37483985991E+03  0.38038295368E+03  0.00000000000E+00 0. -1.
          1    1    1    2  502    0 -0.12389927481E+03 -0.10178470476E+03  0.40737893804E+03  0.43779990358E+03  0.00000000000E+00 0. -1.
         22    1    3    3    0    0  0.26106213903E+02  0.82422760160E+01 -0.17831750325E+02  0.32671713116E+02  0.00000000000E+00 0.  1.
         22    1    3    3    0    0  0.86599386758E+02  0.29816668401E+02  0.19087640686E+03  0.21171275398E+03  0.00000000000E+00 0.  1.
</event>
<event>
 7    1  0.6557591E-006  0.6462851E+02  0.7818608E-02  0.1397965E+00
          2   -1    0    0  502    0  0.00000000000E+00  0.00000000000E+00  0.23901716755E+04  0.23901716755E+04  0.00000000000E+00 0. -1.
          1   -1    0    0  501    0 -0.00000000000E+00 -0.00000000000E+00 -0.43195037906E+03  0.43195037906E+03  0.00000000000E+00 0. -1.
         25    2    1    2    0    0 -0.34224095148E+02  0.49930768780E+02  0.15271574646E+04  0.15334600911E+04  0.12500223514E+03 0.  0.
          2    1    1    2  501    0  0.64588679449E+02 -0.33017492420E+01 -0.42545257800E+03  0.43033997629E+03  0.00000000000E+00 0. -1.
          1    1    1    2  502    0 -0.30364584301E+02 -0.46629019538E+02  0.85651640986E+03  0.85832198725E+03  0.00000000000E+00 0. -1.
         22    1    3    3    0    0  0.41808163989E+02 -0.76874859870E+01  0.55898333021E+03  0.56059734523E+03  0.00000000000E+00 0. -1.
         22    1    3    3    0    0 -0.76032259136E+02  0.57618254767E+02  0.96817413439E+03  0.97286274583E+03  0.00000000000E+00 0. -1.
</event>
<event>
 7    1  0.6557591E-006  0.5701374E+02  0.7818608E-02  0.1478488E+00
          2   -1    0    0  502    0  0.00000000000E+00  0.00000000000E+00  0.26960779656E+04  0.26960779656E+04  0.00000000000E+00 0. -1.
          1   -1    0    0  501    0 -0.00000000000E+00 -0.00000000000E+00 -0.58744430767E+01  0.58744430767E+01  0.00000000000E+00 0. -1.
         25    2    1    2    0    0 -0.20674566922E+02 -0.29665099735E+02  0.20167080882E+04  0.20209018459E+04  0.12500120880E+03 0.  0.
          2    1    1    2  501    0  0.55764115942E+01  0.60672208190E+02  0.31055869918E+03  0.31647893903E+03  0.00000000000E+00 0. -1.
          1    1    1    2  502    0  0.15098155328E+02 -0.31007108455E+02  0.36293673515E+03  0.36457162368E+03  0.00000000000E+00 0. -1.
         22    1    3    3    0    0  0.13334192912E+02 -0.73321832140E+02  0.12200547709E+04  0.12223287348E+04  0.00000000000E+00 0. -1.
         22    1    3    3    0    0 -0.34008759834E+02  0.43656732405E+02  0.79665331723E+03  0.79857311117E+03  0.00000000000E+00 0. -1.
</event>
<event>
 7    1  0.6557591E-006  0.2967783E+02  0.7818608E-02  0.1651177E+00
          2   -1    0    0  502    0  0.00000000000E+00  0.00000000000E+00  0.13181926928E+02  0.13181926928E+02  0.00000000000E+00 0. -1.
          1   -1    0    0  501    0 -0.00000000000E+00 -0.00000000000E+00 -0.88564303289E+03  0.88564303289E+03  0.00000000000E+00 0. -1.
         25    2    1    2    0    0  0.10739808486E+02 -0.86467246447E+01 -0.47848556361E+03  0.49473716342E+03  0.12500526772E+03 0.  0.
          2    1    1    2  501    0  0.20953508989E+02  0.74885459069E+01 -0.34514868304E+03  0.34586520678E+03  0.00000000000E+00 0. -1.
          1    1    1    2  502    0 -0.31693317475E+02  0.11581787379E+01 -0.48826859311E+02  0.58222589608E+02  0.00000000000E+00 0. -1.
         22    1    3    3    0    0  0.38911066715E+02  0.39969226878E+02 -0.35118734419E+03  0.35558987743E+03  0.00000000000E+00 0. -1.
         22    1    3    3    0    0 -0.28171258229E+02 -0.48615951523E+02 -0.12729821942E+03  0.13914728600E+03  0.00000000000E+00 0. -1.
</event>
<event>
 7    1  0.6557591E-006  0.9723499E+02  0.7818608E-02  0.1362258E+00
          2   -1    0    0  502    0  0.00000000000E+00  0.00000000000E+00  0.13799025878E+04  0.13799025878E+04  0.00000000000E+00 0. -1.
          1   -1    0    0  501    0 -0.00000000000E+00 -0.00000000000E+00 -0.63261850672E+03  0.63261850672E+03  0.00000000000E+00 0. -1.
         25    2    1    2    0    0  0.76577422144E+02 -0.26204188441E+02  0.26289105585E+03  0.30213923535E+03  0.12500259683E+03 0.  0.
          2    1    1    2  501    0 -0.63677632585E+02  0.73979971269E+02 -0.60854518748E+03  0.61632387772E+03  0.00000000000E+00 0. -1.
          1    1    1    2  502    0 -0.12899789558E+02 -0.47775782828E+02  0.10929382127E+04  0.10940579815E+04  0.00000000000E+00 0. -1.
         22    1    3    3    0    0  0.12064182733E+02  0.11693508833E+02  0.20961831872E+03  0.21029056612E+03  0.00000000000E+00 0. -1.
         22    1    3    3    0    0  0.64513239411E+02 -0.37897697274E+02  0.53272737130E+02  0.91848669230E+02  0.00000000000E+00 0. -1.
</event>
<event>
 7    1  0.6557591E-006  0.1338782E+03  0.7818608E-02  0.1265268E+00
          2   -1    0    0  502    0  0.00000000000E+00  0.00000000000E+00  0.33695657596E+02  0.33695657596E+02  0.00000000000E+00 0. -1.
          1   -1    0    0  501    0 -0.00000000000E+00 -0.00000000000E+00 -0.14621754279E+04  0.14621754279E+04  0.00000000000E+00 0. -1.
         25    2    1    2    0    0 -0.10105344155E+03  0.32897135099E+01 -0.93418065030E+03  0.94791375182E+03  0.12499749287E+03 0.  0.
          2    1    1    2  501    0 -0.20035924909E+02  0.83963995664E+02 -0.20482856027E+03  0.22227489727E+03  0.00000000000E+00 0. -1.
          1    1    1    2  502    0  0.12108936646E+03 -0.87253709174E+02 -0.28947055977E+03  0.32568243644E+03  0.00000000000E+00 0. -1.
         22    1    3    3    0    0 -0.78823051708E+02 -0.78424248546E+01 -0.22933186727E+03  0.24262663179E+03  0.00000000000E+00 0.  1.
         22    1    3    3    0    0 -0.22230389843E+02  0.11132138365E+02 -0.70484878303E+03  0.70528712003E+03  0.00000000000E+00 0.  1.
</event>
<event>
 7    1  0.6557591E-006  0.1384405E+03  0.7818608E-02  0.1341629E+00
          2   -1    0    0  502    0  0.00000000000E+00  0.00000000000E+00  0.80533054670E+03  0.80533054670E+03  0.00000000000E+00 0. -1.
          1   -1    0    0  501    0 -0.00000000000E+00 -0.00000000000E+00 -0.94365470090E+03  0.94365470090E+03  0.00000000000E+00 0. -1.
         25    2    1    2    0    0 -0.61448376564E+02  0.12887440141E+03 -0.11564474606E+03  0.22222195712E+03  0.12499750643E+03 0.  0.
          2    1    1    2  501    0  0.93333230715E+02 -0.10242918610E+03 -0.76794486820E+03  0.78034745512E+03  0.00000000000E+00 0. -1.
          1    1    1    2  502    0 -0.31884854151E+02 -0.26445215310E+02  0.74526546006E+03  0.74641583537E+03  0.00000000000E+00 0. -1.
         22    1    3    3    0    0  0.20064427468E+02  0.84097083946E+02 -0.19847891995E+02  0.88706480003E+02  0.00000000000E+00 0. -1.
         22    1    3    3    0    0 -0.81512804032E+02  0.44777317464E+02 -0.95796854064E+02  0.13351547711E+03  0.00000000000E+00 0. -1.
</event>
<event>
 7    1  0.6557591E-006  0.1421820E+03  0.7818608E-02  0.1234623E+00
          2   -1    0    0  502    0  0.00000000000E+00  0.00000000000E+00  0.26614201899E+04  0.26614201899E+04  0.00000000000E+00 0. -1.
          1   -1    0    0  501    0 -0.00000000000E+00 -0.00000000000E+00 -0.10694976873E+03  0.10694976873E+03  0.00000000000E+00 0. -1.
         25    2    1    2    0    0  0.10916213948E+03 -0.11849132917E+03  0.17491482893E+03  0.26865761818E+03  0.12500060256E+03 0.  0.
          2    1    1    2  501    0 -0.14560923148E+03  0.14283664584E+02  0.32260522219E+02  0.14982260397E+03  0.00000000000E+00 0. -1.
          1    1    1    2  502    0  0.36447092005E+02  0.10420766458E+03  0.23472950700E+04  0.23498897365E+04  0.00000000000E+00 0. -1.
         22    1    3    3    0    0 -0.28044872286E+02 -0.17867477355E+02  0.35950880002E+02  0.48971699802E+02  0.00000000000E+00 0.  1.
         22    1    3    3    0    0  0.13720701176E+03 -0.10062385181E+03  0.13896394893E+03  0.21968591838E+03  0.00000000000E+00 0.  1.
</event>
<event>
 7    1  0.6557591E-006  0.1919901E+03  0.7818608E-02  0.1379193E+00
          2   -1    0    0  502    0  0.00000000000E+00  0.00000000000E+00  0.38508488407E+03  0.38508488407E+03  0.00000000000E+00 0. -1.
          1   -1    0    0  501    0 -0.00000000000E+00 -0.00000000000E+00 -0.60766592290E+03  0.60766592290E+03  0.00000000000E+00 0. -1.
         25    2    1    2    0    0  0.20938818243E+03  0.20138917696E+02 -0.28523838194E+02  0.24634760579E+03  0.12499818635E+03 0.  0.
          2    1    1    2  501    0 -0.18819047360E+03 -0.15102652110E+02 -0.45080002056E+03  0.48873756045E+03  0.00000000000E+00 0. -1.
          1    1    1    2  502    0 -0.21197708821E+02 -0.50362655862E+01  0.25674281992E+03  0.25766564073E+03  0.00000000000E+00 0. -1.
         22    1    3    3    0    0  0.20249690968E+03  0.41361252536E+02  0.42234879174E+01  0.20672104269E+03  0.00000000000E+00 0. -1.
         22    1    3    3    0    0  0.68912727486E+01 -0.21222334840E+02 -0.32747326111E+02  0.39626563106E+02  0.00000000000E+00 0. -1.
</event>
<event>
 7    1  0.6557591E-006  0.7853891E+02  0.7818608E-02  0.1459831E+00
          2   -1    0    0  502    0  0.00000000000E+00  0.00000000000E+00  0.10218943793E+04  0.10218943793E+04  0.00000000000E+00 0. -1.
          1   -1    0    0  501    0 -0.00000000000E+00 -0.00000000000E+00 -0.57867385427E+03  0.57867385427E+03  0.00000000000E+00 0. -1.
         25    2    1    2    0    0  0.49157695865E+02 -0.43591941759E+02 -0.14324404708E+03  0.20115151100E+03  0.12500534750E+03 0.  0.
          2    1    1    2  501    0  0.24240111825E+02  0.15215032620E+02 -0.40441044275E+03  0.40542186232E+03  0.00000000000E+00 0. -1.
          1    1    1    2  502    0 -0.73397807690E+02  0.28376909139E+02  0.99087501487E+03  0.99399486027E+03  0.00000000000E+00 0. -1.
         22    1    3    3    0    0  0.88410650800E+02 -0.46844257359E+02 -0.87634599547E+02  0.13300620534E+03  0.00000000000E+00 0. -1.
         22    1    3    3    0    0 -0.39252954935E+02  0.32523155999E+01 -0.55609447533E+02  0.68145305655E+02  0.00000000000E+00 0. -1.
</event>
<event>
 7    1  0.6557591E-006  0.5696000E+02  0.7818608E-02  0.1466255E+00
          2   -1    0    0  502    0  0.00000000000E+00  0.00000000000E+00  0.70011687259E+03  0.70011687259E+03  0.00000000000E+00 0. -1.
          1   -1    0    0  501    0 -0.00000000000E+00 -0.00000000000E+00 -0.11772526796E+03  0.11772526796E+03  0.00000000000E+00 0. -1.
         25    2    1    2    0    0  0.24917199001E+02 -0.40637540326E+02  0.24917374988E+03  0.28281266160E+03  0.12499266957E+03 0.  0.
          2    1    1    2  501    0  0.31114947627E+02  0.21234944361E+02 -0.95275714547E+02  0.10245254809E+03  0.00000000000E+00 0. -1.
          1    1    1    2  502    0 -0.56032146629E+02  0.19402595965E+02  0.42849356929E+03  0.43257693086E+03  0.00000000000E+00 0. -1.
         22    1    3    3    0    0  0.26984023307E+02  0.31146103857E+02  0.26865898048E+02  0.49193432257E+02  0.00000000000E+00 0.  1.
         22    1    3    3    0    0 -0.20668243061E+01 -0.71783644184E+02  0.22230785183E+03  0.23361922935E+03  0.00000000000E+00 0.  1.
</event>
<event>
 7    1  0.6557591E-006  0.5866606E+02  0.7818608E-02  0.1439583E+00
          2   -1    0    0  502    0  0.00000000000E+00  0.00000000000E+00  0.26111176566E+03  0.26111176566E+03  0.00000000000E+00 0. -1.
          1   -1    0    0  501    0 -0.00000000000E+00 -0.00000000000E+00 -0.13739628811E+04  0.13739628811E+04  0.00000000000E+00 0. -1.
         25    2    1    2    0    0 -0.22427165561E+01 -0.37261166925E+02 -0.22863040849E+03  0.26323136809E+03  0.12500186048E+03 0.  0.
          2    1    1    2  501    0 -0.41825549640E+02  0.43307858218E+02 -0.11251916454E+04  0.11268013073E+04  0.00000000000E+00 0. -1.
          1    1    1    2  502    0  0.44068266196E+02 -0.60466912929E+01  0.24097093845E+03  0.24504197139E+03  0.00000000000E+00 0. -1.
         22    1    3    3    0    0  0.28614430351E+02 -0.33717202647E+02 -0.22791239258E+03  0.23216307646E+03  0.00000000000E+00 0. -1.
         22    1    3    3    0    0 -0.30857146907E+02 -0.35439642781E+01 -0.71801590763E+00  0.31068291632E+02  0.00000000000E+00 0. -1.
</event>
<event>
 7    1  0.6557591E-006  0.1250094E+03  0.7818608E-02  0.1333033E+00
          2   -1    0    0  502    0  0.00000000000E+00  0.00000000000E+00  0.72913552941E+03  0.72913552941E+03  0.00000000000E+00 0. -1.
          1   -1    0    0  501    0 -0.00000000000E+00 -0.00000000000E+00 -0.40913629241E+03  0.40913629241E+03  0.00000000000E+00 0. -1.
         25    2    1    2    0    0  0.54145141426E+02 -0.13517322143E+03  0.59915641770E+00  0.19192172665E+03  0.12502037450E+03 0.  0.
          2    1    1    2  501    0  0.27148471342E+02  0.41315455842E+02 -0.30537751725E+03  0.30935325185E+03  0.00000000000E+00 0. -1.
          1    1    1    2  502    0 -0.81293612768E+02  0.93857765589E+02  0.62477759784E+03  0.63699684332E+03  0.00000000000E+00 0. -1.
         22    1    3    3    0    0  0.40346020114E+02 -0.10061275359E+03  0.58435158469E+02  0.12314785937E+03  0.00000000000E+00 0. -1.
         22    1    3    3    0    0  0.13799121313E+02 -0.34560467845E+02 -0.57836002051E+02  0.68773867275E+02  0.00000000000E+00 0. -1.
</event>
<event>
 7    1  0.6557591E-006  0.2096407E+03  0.7818608E-02  0.1238486E+00
          2   -1    0    0  502    0  0.00000000000E+00  0.00000000000E+00  0.33779151828E+03  0.33779151828E+03  0.00000000000E+00 0. -1.
          1   -1    0    0  501    0 -0.00000000000E+00 -0.00000000000E+00 -0.30489959730E+03  0.30489959730E+03  0.00000000000E+00 0. -1.
         25    2    1    2    0    0  0.17034858561E+03  0.68874842713E+02 -0.76250580711E+00  0.22223661578E+03  0.12500458951E+03 0.  0.
          2    1    1    2  501    0 -0.18136131152E+03 -0.14000459468E+03 -0.11420986964E+03  0.25600216048E+03  0.00000000000E+00 0. -1.
          1    1    1    2  502    0  0.11012725907E+02  0.71129751971E+02  0.14786429643E+03  0.16445233931E+03  0.00000000000E+00 0. -1.
         22    1    3    3    0    0  0.94515173124E+02  0.73336660052E+02 -0.52171498396E+02  0.13051148954E+03  0.00000000000E+00 0. -1.
         22    1    3    3    0    0  0.75833412485E+02 -0.44618173387E+01  0.51408992589E+02  0.91725126231E+02  0.00000000000E+00 0. -1.
</event>
<event>
 7    1  0.6557591E-006  0.1291329E+03  0.7818608E-02  0.1351803E+00
          2   -1    0    0  502    0  0.00000000000E+00  0.00000000000E+00  0.14588349438E+04  0.14588349438E+04  0.00000000000E+00 0. -1.
          1   -1    0    0  501    0 -0.00000000000E+00 -0.00000000000E+00 -0.14800175052E+04  0.14800175052E+04  0.00000000000E+00 0. -1.
         25    2    1    2    0    0  0.11705896560E+02  0.90305007018E+02  0.71833946782E+02  0.17052133695E+03  0.12500155254E+03 0.  0.
          2    1    1    2  501    0  0.90302845152E+01  0.39686064593E+02 -0.14271445485E+04  0.14277247956E+04  0.00000000000E+00 0. -1.
          1    1    1    2  502    0 -0.20736181075E+02 -0.12999107161E+03  0.13341280402E+04  0.13406063164E+04  0.00000000000E+00 0. -1.
         22    1    3    3    0    0  0.22706297128E+02 -0.20976016412E+02  0.46543547693E+02  0.55873706031E+02  0.00000000000E+00 0.  1.
         22    1    3    3    0    0 -0.11000400568E+02  0.11128102343E+03  0.25290399088E+02  0.11464763091E+03  0.00000000000E+00 0.  1.
</event>
<event>
 7    1  0.6557591E-006  0.6296448E+02  0.7818608E-02  0.1423914E+00
          2   -1    0    0  502    0  0.00000000000E+00  0.00000000000E+00  0.11609696971E+03  0.11609696971E+03  0.00000000000E+00 0. -1.
          1   -1    0    0  501    0 -0.00000000000E+00 -0.00000000000E+00 -0.24954228742E+04  0.24954228742E+04  0.00000000000E+00 0. -1.
         25    2    1    2    0    0 -0.44987645828E+02  0.16925919474E+02  0.18331818204E+02  0.13514311599E+03  0.12496892099E+03 0.  0.
          2    1    1    2  501    0  0.56423387968E+02  0.28308858346E+02 -0.24226326829E+04  0.24234549936E+04  0.00000000000E+00 0. -1.
          1    1    1    2  502    0 -0.11435742140E+02 -0.45234777819E+02  0.24974960167E+02  0.52921734269E+02  0.00000000000E+00 0. -1.
         22    1    3    3    0    0 -0.61281839355E+01 -0.56648998422E+00  0.68808405757E+02  0.69083082242E+02  0.00000000000E+00 0.  1.
         22    1    3    3    0    0 -0.38859461893E+02  0.17492409458E+02 -0.50476587553E+02  0.66060033744E+02  0.00000000000E+00 0.  1.
</event>
<event>
 7    1  0.6557591E-006  0.5626533E+02  0.7818608E-02  0.1505490E+00
          2   -1    0    0  502    0  0.00000000000E+00  0.00000000000E+00  0.83381458682E+03  0.83381458682E+03  0.00000000000E+00 0. -1.
          1   -1    0    0  501    0 -0.00000000000E+00 -0.00000000000E+00 -0.16067668651E+03  0.16067668651E+03  0.00000000000E+00 0. -1.
         25    2    1    2    0    0  0.29356920548E+02  0.54359009570E+02  0.47369716463E+03  0.49379200000E+03  0.12499921911E+03 0.  0.
          2    1    1    2  501    0 -0.46815162670E+02 -0.31242320148E+02 -0.14474196733E+03  0.15529964305E+03  0.00000000000E+00 0. -1.
          1    1    1    2  502    0  0.17458242123E+02 -0.23116689422E+02  0.34418270301E+03  0.34539963029E+03  0.00000000000E+00 0. -1.
         22    1    3    3    0    0  0.46281562050E+01  0.87987231005E+02  0.39502621990E+03  0.40473310596E+03  0.00000000000E+00 0.  1.
         22    1    3    3    0    0  0.24728764343E+02 -0.33628221435E+02  0.78670944723E+02  0.89058894033E+02  0.00000000000E+00 0.  1.
</event>
<event>
 7    1  0.6557591E-006  0.4705041E+02  0.7818608E-02  0.1558053E+00
          2   -1    0    0  502    0  0.00000000000E+00  0.00000000000E+00  0.57493149127E+03  0.57493149127E+03  0.00000000000E+00 0. -1.
          1   -1    0    0  501    0 -0.00000000000E+00 -0.00000000000E+00 -0.10953205482E+04  0.10953205482E+04  0.00000000000E+00 0. -1.
         25    2    1    2    0    0  0.22736257522E+02  0.90804404566E+01  0.15344045688E+03  0.19942245672E+03  0.12500380247E+03 0.  0.
          2    1    1    2  501    0  0.24384156181E+02  0.24690377296E+01 -0.10707121791E+04  0.10709926487E+04  0.00000000000E+00 0. -1.
          1    1    1    2  502    0 -0.47120413703E+02 -0.11549478186E+02  0.39688266526E+03  0.39983693403E+03  0.00000000000E+00 0. -1.
         22    1    3    3    0    0 -0.30660360330E+02  0.11989089621E+02  0.14063229794E+03  0.14443420367E+03  0.00000000000E+00 0.  1.
         22    1    3    3    0    0  0.53396617852E+02 -0.29086491648E+01  0.12808158933E+02  0.54988253048E+02  0.00000000000E+00 0.  1.
</event>
<event>
 7    1  0.6557591E-006  0.1493547E+03  0.7818608E-02  0.1205647E+00
          2   -1    0    0  502    0  0.00000000000E+00  0.00000000000E+00  0.97091514412E+03  0.97091514412E+03  0.00000000000E+00 0. -1.
          1   -1    0    0  501    0 -0.00000000000E+00 -0.00000000000E+00 -0.13335040768E+04  0.13335040768E+04  0.00000000000E+00 0. -1.
         25    2    1    2    0    0 -0.23717102922E+03  0.13624214968E+03 -0.13067697184E+02  0.30100966165E+03  0.12499612493E+03 0.  0.
          2    1    1    2  501    0  0.95655109253E+02 -0.10556786326E+03 -0.11657570025E+04  0.11744291646E+04  0.00000000000E+00 0. -1.
          1    1    1    2  502    0  0.14151591997E+03 -0.30674286416E+02  0.81623576701E+03  0.82898039470E+03  0.00000000000E+00 0. -1.
         22    1    3    3    0    0 -0.18044445650E+03  0.15710221939E+03 -0.37993808780E+00  0.23925186221E+03  0.00000000000E+00 0. -1.
         22    1    3    3    0    0 -0.56726572721E+02 -0.20860069708E+02 -0.12687759096E+02  0.61757799441E+02  0.00000000000E+00 0. -1.
</event>
<event>
 7    1  0.6557591E-006  0.5993720E+02  0.7818608E-02  0.1416580E+00
          2   -1    0    0  502    0  0.00000000000E+00  0.00000000000E+00  0.17562312702E+04  0.17562312702E+04  0.00000000000E+00 0. -1.
          1   -1    0    0  501    0 -0.00000000000E+00 -0.00000000000E+00 -0.84983321898E+03  0.84983321898E+03  0.00000000000E+00 0. -1.
         25    2    1    2    0    0  0.69299158525E+02 -0.11106444380E+02  0.53768793844E+03  0.55646945341E+03  0.12499682781E+03 0.  0.
          2    1    1    2  501    0 -0.20727883986E+02  0.47534646020E+02 -0.83887915607E+03  0.84048047344E+03  0.00000000000E+00 0. -1.
          1    1    1    2  502    0 -0.48571274539E+02 -0.36428201640E+02  0.12075892689E+04  0.12091145623E+04  0.00000000000E+00 0. -1.
         22    1    3    3    0    0  0.13103365368E+02  0.54044439528E+02  0.25425297566E+03  0.26026347277E+03  0.00000000000E+00 0.  1.
         22    1    3    3    0    0  0.56195793157E+02 -0.65150883908E+02  0.28343496278E+03  0.29620598064E+03  0.00000000000E+00 0.  1.
</event>
<event>
 7    1  0.6557591E-006  0.1415389E+03  0.7818608E-02  0.1356472E+00
          2   -1    0    0  502    0  0.00000000000E+00  0.00000000000E+00  0.14401370769E+04  0.14401370769E+04  0.00000000000E+00 0. -1.
          1   -1    0    0  501    0 -0.00000000000E+00 -0.00000000000E+00 -0.21071014756E+03  0.21071014756E+03  0.00000000000E+00 0. -1.
         25    2    1    2    0    0 -0.81525600703E+02  0.87323561287E+02  0.43196785473E+03  0.46530298809E+03  0.12505524889E+03 0.  0.
          2    1    1    2  501    0  0.74153725787E+02 -0.12224592683E+03 -0.16732963722E+03  0.22009554554E+03  0.00000000000E+00 0. -1.
          1    1    1    2  502    0  0.73718749158E+01  0.34922365539E+02  0.96478871180E+03  0.96544869080E+03  0.00000000000E+00 0. -1.
         22    1    3    3    0    0 -0.34169993100E+02  0.27782988543E+02  0.23708142880E+02  0.50015586767E+02  0.00000000000E+00 0.  1.
         22    1    3    3    0    0 -0.47355607602E+02  0.59540572745E+02  0.40825971185E+03  0.41528740132E+03  0.00000000000E+00 0.  1.
</event>
<event>
 7    1  0.6557591E-006  0.1329489E+03  0.7818608E-02  0.1359858E+00
          2   -1    0    0  502    0  0.00000000000E+00  0.00000000000E+00  0.19685782757E+04  0.19685782757E+04  0.00000000000E+00 0. -1.
          1   -1    0    0  501    0 -0.00000000000E+00 -0.00000000000E+00 -0.59070420192E+02  0.59070420192E+02  0.00000000000E+00 0. -1.
         25    2    1    2    0    0  0.81171355453E+01 -0.10382992801E+03  0.65652849296E+03  0.67638594941E+03  0.12498699392E+03 0.  0.
          2    1    1    2  501    0 -0.29304830750E+02  0.13407627811E+03  0.47516604448E+02  0.14523446270E+03  0.00000000000E+00 0. -1.
          1    1    1    2  502    0  0.21187695205E+02 -0.30246350104E+02  0.12054627581E+04  0.12060282838E+04  0.00000000000E+00 0. -1.
         22    1    3    3    0    0 -0.32782676737E+02  0.11270280720E+02  0.82190841364E+02  0.89202340360E+02  0.00000000000E+00 0.  1.
         22    1    3    3    0    0  0.40899812283E+02 -0.11510020873E+03  0.57433765159E+03  0.58718360905E+03  0.00000000000E+00 0.  1.
</event>
<event>
 7    1  0.6557591E-006  0.9590207E+02  0.7818608E-02  0.1459492E+00
          2   -1    0    0  502    0  0.00000000000E+00  0.00000000000E+00  0.16808688508E+04  0.16808688508E+04  0.00000000000E+00 0. -1.
          1   -1    0    0  501    0 -0.00000000000E+00 -0.00000000000E+00 -0.22427391017E+04  0.22427391017E+04  0.00000000000E+00 0. -1.
         25    2    1    2    0    0  0.12942665567E+02  0.11824662688E+03  0.10594755448E+04  0.10734350540E+04  0.12499843124E+03 0.  0.
          2    1    1    2  501    0 -0.14383392944E+02 -0.94794949248E+02 -0.22345062930E+04  0.22365623931E+04  0.00000000000E+00 0. -1.
          1    1    1    2  502    0  0.14407273771E+01 -0.23451677637E+02  0.61316049738E+03  0.61361050547E+03  0.00000000000E+00 0. -1.
         22    1    3    3    0    0  0.31154566244E+02  0.13704310550E+03  0.97264135466E+03  0.98274239990E+03  0.00000000000E+00 0.  1.
         22    1    3    3    0    0 -0.18211900677E+02 -0.18796478616E+02  0.86834190133E+02  0.90692654116E+02  0.00000000000E+00 0.  1.
</event>
<event>
 7    1  0.6557591E-006  0.4150486E+02  0.7818608E-02  0.1569521E+00
          2   -1    0    0  502    0  0.00000000000E+00  0.00000000000E+00  0.46706399496E+03  0.46706399496E+03  0.00000000000E+00 0. -1.
          1   -1    0    0  501    0 -0.00000000000E+00 -0.00000000000E+00 -0.16995757479E+03  0.16995757479E+03  0.00000000000E+00 0. -1.
         25    2    1    2    0    0 -0.10876351111E+02 -0.11671347161E+02  0.23308794870E+03  0.26497056123E+03  0.12499956453E+03 0.  0.
          2    1    1    2  501    0  0.28780609671E+02  0.30309913589E+02 -0.15039011541E+03  0.15609036219E+03  0.00000000000E+00 0. -1.
          1    1    1    2  502    0 -0.17904258560E+02 -0.18638566429E+02  0.21440858689E+03  0.21596064633E+03  0.00000000000E+00 0. -1.
         22    1    3    3    0    0 -0.10825639771E+02  0.53478553813E+01  0.24429472107E+03  0.24459293689E+03  0.00000000000E+00 0. -1.
         22    1    3    3    0    0 -0.50711340350E-01 -0.17019202542E+02 -0.11206772373E+02  0.20377624342E+02  0.00000000000E+00 0. -1.
</event>
<event>
 7    1  0.6557591E-006  0.8482504E+02  0.7818608E-02  0.1460535E+00
          2   -1    0    0  502    0  0.00000000000E+00  0.00000000000E+00  0.12363701288E+04  0.12363701288E+04  0.00000000000E+00 0. -1.
          1   -1    0    0  501    0 -0.00000000000E+00 -0.00000000000E+00 -0.43083122036E+03  0.43083122036E+03  0.00000000000E+00 0. -1.
         25    2    1    2    0    0 -0.32708319416E+02 -0.62778209415E+02  0.83851429547E+02  0.16633554606E+03  0.12500205562E+03 0.  0.
          2    1    1    2  501    0  0.59052497860E+02  0.61766096946E+02 -0.38474438502E+03  0.39411989298E+03  0.00000000000E+00 0. -1.
          1    1    1    2  502    0 -0.26344178444E+02  0.10121124685E+01  0.11064318639E+04  0.11067459101E+04  0.00000000000E+00 0. -1.
         22    1    3    3    0    0  0.35001622505E+01  0.63978643563E+01 -0.28555340154E+02  0.29471872275E+02  0.00000000000E+00 0. -1.
         22    1    3    3    0    0 -0.36208481666E+02 -0.69176073771E+02  0.11240676970E+03  0.13686367378E+03  0.00000000000E+00 0. -1.
</event>
<event>
 7    1  0.6557591E-006  0.4035560E+02  0.7818608E-02  0.1586932E+00
          2   -1    0    0  502    0  0.00000000000E+00  0.00000000000E+00  0.14147129356E+04  0.14147129356E+04  0.00000000000E+00 0. -1.
          1   -1    0    0  501    0 -0.00000000000E+00 -0.00000000000E+00 -0.10433794470E+03  0.10433794470E+03  0.00000000000E+00 0. -1.
         25    2    1    2    0    0  0.22666277440E+02  0.12262919983E+02  0.31636975039E+02  0.13149433883E+03  0.12500289443E+03 0.  0.
          2    1    1    2  501    0 -0.42128960183E+02  0.15492189907E+01 -0.46119516263E+02  0.62484071137E+02  0.00000000000E+00 0. -1.
          1    1    1    2  502    0  0.19462682743E+02 -0.13812138974E+02  0.13248575321E+04  0.13250724703E+04  0.00000000000E+00 0. -1.
         22    1    3    3    0    0  0.44709891691E+02 -0.46581266891E+02  0.12104345933E+02  0.65690973738E+02  0.00000000000E+00 0.  1.
         22    1    3    3    0    0 -0.22043614251E+02  0.58844186875E+02  0.19532629105E+02  0.65803365096E+02  0.00000000000E+00 0.  1.
</event>
<event>
 7    1  0.6557591E-006  0.4545210E+02  0.7818608E-02  0.1484694E+00
          2   -1    0    0  502    0  0.00000000000E+00  0.00000000000E+00  0.21404542073E+04  0.21404542073E+04  0.00000000000E+00 0. -1.
          1   -1    0    0  501    0 -0.00000000000E+00 -0.00000000000E+00 -0.89834512987E+03  0.89834512987E+03  0.00000000000E+00 0. -1.
         25    2    1    2    0    0 -0.52931137024E+02  0.58222232039E+02  0.77188044145E+02  0.16666168535E+03  0.12500635837E+03 0.  0.
          2    1    1    2  501    0  0.14438104752E+02 -0.42959228067E+02 -0.85279417907E+03  0.85399757962E+03  0.00000000000E+00 0. -1.
          1    1    1    2  502    0  0.38493032272E+02 -0.15263003972E+02  0.20177152124E+04  0.20181400722E+04  0.00000000000E+00 0. -1.
         22    1    3    3    0    0 -0.50739308806E+02 -0.90204350704E+01 -0.13941900216E+02  0.53387473143E+02  0.00000000000E+00 0. -1.
         22    1    3    3    0    0 -0.21918282181E+01  0.67242667109E+02  0.91129944361E+02  0.11327421220E+03  0.00000000000E+00 0. -1.
</event>
<event>
 7    1  0.6557591E-006  0.4700894E+02  0.7818608E-02  0.1515711E+00
          2   -1    0    0  502    0  0.00000000000E+00  0.00000000000E+00  0.44408122330E+03  0.44408122330E+03  0.00000000000E+00 0. -1.
          1   -1    0    0  501    0 -0.00000000000E+00 -0.00000000000E+00 -0.10357298129E+04  0.10357298129E+04  0.00000000000E+00 0. -1.
         25    2    1    2    0    0 -0.15166069405E+02  0.75434204225E+02 -0.40873880651E+03  0.43429407492E+03  0.12499441083E+03 0.  0.
          2    1    1    2  501    0  0.46024893749E+01 -0.44853648397E+02 -0.61277714869E+03  0.61443377726E+03  0.00000000000E+00 0. -1.
          1    1    1    2  502    0  0.10563580030E+02 -0.30580555829E+02  0.42986736555E+03  0.43108318406E+03  0.00000000000E+00 0. -1.
         22    1    3    3    0    0  0.26140323571E+02  0.83332488504E+02 -0.16243195258E+03  0.18442277347E+03  0.00000000000E+00 0. -1.
         22    1    3    3    0    0 -0.41306392976E+02 -0.78982842787E+01 -0.24630685393E+03  0.24987130145E+03  0.00000000000E+00 0. -1.
</event>
<event>
 7    1  0.6557591E-006  0.1220778E+03  0.7818608E-02  0.1301668E+00
          2   -1    0    0  502    0  0.00000000000E+00  0.00000000000E+00  0.17159209829E+04  0.17159209829E+04  0.00000000000E+00 0. -1.
          1   -1    0    0  501    0 -0.00000000000E+00 -0.00000000000E+00 -0.43155218996E+03  0.43155218996E+03  0.00000000000E+00 0. -1.
         25    2    1    2    0    0  0.60944339305E+02 -0.20064575965E+02  0.14606601619E+02  0.14126321587E+03  0.12500057458E+03 0.  0.
          2    1    1    2  501    0 -0.12012746225E+03  0.51634237813E+02 -0.35590287408E+03  0.37916165086E+03  0.00000000000E+00 0. -1.
          1    1    1    2  502    0  0.59183122940E+02 -0.31569661848E+02  0.16256650654E+04  0.16270483061E+04  0.00000000000E+00 0. -1.
         22    1    3    3    0    0  0.78714729625E+02 -0.68255864466E+01  0.54253397023E+02  0.95843770684E+02  0.00000000000E+00 0.  1.
         22    1    3    3    0    0 -0.17770390320E+02 -0.13238989518E+02 -0.39646795404E+02  0.45419445191E+02  0.00000000000E+00 0.  1.
</event>
<event>
 7    1  0.6557591E-006  0.1650796E+03  0.7818608E-02  0.1210803E+00
          2   -1    0    0  502    0  0.00000000000E+00  0.00000000000E+00  0.62870221257E+03  0.62870221257E+03  0.00000000000E+00 0. -1.
          1   -1    0    0  501    0 -0.00000000000E+00 -0.00000000000E+00 -0.15179718633E+03  0.15179718633E+03  0.00000000000E+00 0. -1.
         25    2    1    2    0    0 -0.77081020037E+02  0.68022122554E+02  0.10739757501E+03  0.19423770641E+03  0.12500221866E+03 0.  0.
          2    1    1    2  501    0  0.19661791373E+03 -0.92235792516E+02  0.22375619734E+02  0.21832707981E+03  0.00000000000E+00 0. -1.
          1    1    1    2  502    0 -0.11953689369E+03  0.24213669962E+02  0.34713183150E+03  0.36793461268E+03  0.00000000000E+00 0. -1.
         22    1    3    3    0    0 -0.11185069764E+03  0.47993403233E+02  0.81569117797E+02  0.14651780197E+03  0.00000000000E+00 0.  1.
         22    1    3    3    0    0  0.34769677602E+02  0.20028719321E+02  0.25828457210E+02  0.47719904443E+02  0.00000000000E+00 0.  1.
</event>
<event>
 7    1  0.6557591E-006  0.8925720E+02  0.7818608E-02  0.1393934E+00
          2   -1    0    0  502    0  0.00000000000E+00  0.00000000000E+00  0.12798534655E+03  0.12798534655E+03  0.00000000000E+00 0. -1.
          1   -1    0    0  501    0 -0.00000000000E+00 -0.00000000000E+00 -0.34854225118E+03  0.34854225118E+03  0.00000000000E+00 0. -1.
         25    2    1    2    0    0  0.13985194228E+02  0.51092755634E+02 -0.24760080897E+01  0.13578334647E+03  0.12499972490E+03 0.  0.
          2    1    1    2  501    0 -0.35406644661E+02 -0.86759068803E+02 -0.26319258297E+03  0.27937627357E+03  0.00000000000E+00 0. -1.
          1    1    1    2  502    0  0.21421450433E+02  0.35666313168E+02  0.45111686429E+02  0.61367977693E+02  0.00000000000E+00 0. -1.
         22    1    3    3    0    0 -0.56083943772E+01  0.24181705087E+02  0.60033216015E+02  0.64963035439E+02  0.00000000000E+00 0. -1.
         22    1    3    3    0    0  0.19593588605E+02  0.26911050548E+02 -0.62509224104E+02  0.70820311028E+02  0.00000000000E+00 0. -1.
</event>
<event>
 7    1  0.6557591E-006  0.2359767E+03  0.7818608E-02  0.1252886E+00
          2   -1    0    0  502    0  0.00000000000E+00  0.00000000000E+00  0.57763682748E+03  0.57763682748E+03  0.00000000000E+00 0. -1.
          1   -1    0    0  501    0 -0.00000000000E+00 -0.00000000000E+00 -0.86597163698E+03  0.86597163698E+03  0.00000000000E+00 0. -1.
         25    2    1    2    0    0 -0.25295584517E+03 -0.12851318019E+03 -0.43587553079E+01  0.31007245025E+03  0.12499451417E+03 0.  0.
          2    1    1    2  501    0  0.19925873532E+03  0.11520917482E+03 -0.68813527287E+03  0.72560826300E+03  0.00000000000E+00 0. -1.
          1    1    1    2  502    0  0.53697109844E+02  0.13304005365E+02  0.40415921868E+03  0.40792775121E+03  0.00000000000E+00 0. -1.
         22    1    3    3    0    0 -0.25359204834E+03 -0.14593069833E+03 -0.31214212790E+01  0.29259945142E+03  0.00000000000E+00 0. -1.
         22    1    3    3    0    0  0.63620317597E+00  0.17417518145E+02 -0.12373340288E+01  0.17472998836E+02  0.00000000000E+00 0. -1.
</event>
<event>
 7    1  0.6557591E-006  0.9280666E+02  0.7818608E-02  0.1393352E+00
          2   -1    0    0  502    0  0.00000000000E+00  0.00000000000E+00  0.43714076588E+03  0.43714076588E+03  0.00000000000E+00 0. -1.
          1   -1    0    0  501    0 -0.00000000000E+00 -0.00000000000E+00 -0.76859968814E+03  0.76859968814E+03  0.00000000000E+00 0. -1.
         25    2    1    2    0    0 -0.11338918942E+03  0.65827684202E+02 -0.46427494388E+03  0.49836400238E+03  0.12500025229E+03 0.  0.
          2    1    1    2  501    0  0.29288860649E+02 -0.27535592777E+02 -0.28074942879E+03  0.28361291930E+03  0.00000000000E+00 0. -1.
          1    1    1    2  502    0  0.84100328770E+02 -0.38292091424E+02  0.41356545041E+03  0.42376353234E+03  0.00000000000E+00 0. -1.
         22    1    3    3    0    0 -0.42929906678E+02  0.83348004702E+02 -0.15908177594E+03  0.18465340022E+03  0.00000000000E+00 0.  1.
         22    1    3    3    0    0 -0.70459282741E+02 -0.17520320501E+02 -0.30519316794E+03  0.31371060216E+03  0.00000000000E+00 0.  1.
</event>
<event>
 7    1  0.6557591E-006  0.9754826E+02  0.7818608E-02  0.1374931E+00
          2   -1    0    0  502    0  0.00000000000E+00  0.00000000000E+00  0.15968226089E+04  0.15968226089E+04  0.00000000000E+00 0. -1.
          1   -1    0    0  501    0 -0.00000000000E+00 -0.00000000000E+00 -0.14537508618E+03  0.14537508618E+03  0.00000000000E+00 0. -1.
         25    2    1    2    0    0 -0.44242831513E+02 -0.45983391220E+02  0.73939134956E+02  0.15863061413E+03  0.12499910261E+03 0.  0.
          2    1    1    2  501    0  0.35159936726E+01 -0.44265819460E+02 -0.96505466909E+02  0.10623149311E+03  0.00000000000E+00 0. -1.
          1    1    1    2  502    0  0.40726837840E+02  0.90249210680E+02  0.14740138547E+04  0.14773355879E+04  0.00000000000E+00 0. -1.
         22    1    3    3    0    0 -0.78567195919E+01  0.43051325842E+02  0.28749097911E+02  0.52360818655E+02  0.00000000000E+00 0. -1.
         22    1    3    3    0    0 -0.36386111921E+02 -0.89034717062E+02  0.45190037045E+02  0.10626979548E+03  0.00000000000E+00 0. -1.
</event>
<event>
 7    1  0.6557591E-006  0.1497201E+03  0.7818608E-02  0.1413093E+00
          2   -1    0    0  502    0  0.00000000000E+00  0.00000000000E+00  0.57017612376E+03  0.57017612376E+03  0.00000000000E+00 0. -1.
          1   -1    0    0  501    0 -0.00000000000E+00 -0.00000000000E+00 -0.26960229783E+03  0.26960229783E+03  0.00000000000E+00 0. -1.
         25    2    1    2    0    0  0.12625960311E+03  0.59855905650E+02  0.25082147031E+03  0.31314829484E+03  0.12500491100E+03 0.  0.
          2    1    1    2  501    0 -0.12691249705E+03 -0.81174407867E+02 -0.21416914095E+03  0.26184821431E+03  0.00000000000E+00 0. -1.
          1    1    1    2  502    0  0.65289393627E+00  0.21318502218E+02  0.26392149657E+03  0.26478191244E+03  0.00000000000E+00 0. -1.
         22    1    3    3    0    0  0.82148559767E+02  0.17935555445E+02  0.38868773784E+02  0.92632886149E+02  0.00000000000E+00 0.  1.
         22    1    3    3    0    0  0.44111043344E+02  0.41920350204E+02  0.21195269652E+03  0.22051540869E+03  0.00000000000E+00 0.  1.
</event>
<event>
 7    1  0.6557591E-006  0.1104868E+03  0.7818608E-02  0.1373317E+00
          2   -1    0    0  502    0  0.00000000000E+00  0.00000000000E+00  0.14959562286E+03  0.14959562286E+03  0.00000000000E+00 0. -1.
          1   -1    0    0  501    0 -0.00000000000E+00 -0.00000000000E+00 -0.53626599661E+03  0.53626599661E+03  0.00000000000E+00 0. -1.
         25    2    1    2    0    0 -0.49044295957E+02  0.57944622339E+02 -0.17674192058E+03  0.22940211134E+03  0.12499879988E+03 0.  0.
          2    1    1    2  501    0 -0.31123754220E+02  0.24692374937E+02 -0.30473571502E+03  0.30731459039E+03  0.00000000000E+00 0. -1.
          1    1    1    2  502    0  0.80168050176E+02 -0.82636997277E+02  0.94807261852E+02  0.14914491774E+03  0.00000000000E+00 0. -1.
         22    1    3    3    0    0 -0.27338527256E+02  0.15011018057E+02  0.12901571917E+02  0.33751685788E+02  0.00000000000E+00 0.  1.
         22    1    3    3    0    0 -0.21705768701E+02  0.42933604283E+02 -0.18964349250E+03  0.19565042556E+03  0.00000000000E+00 0.  1.
</event>
<event>
 7    1  0.6557591E-006  0.6486728E+02  0.7818608E-02  0.1470029E+00
          2   -1    0    0  502    0  0.00000000000E+00  0.00000000000E+00  0.11464207357E+04  0.11464207357E+04  0.00000000000E+00 0. -1.
          1   -1    0    0  501    0 -0.00000000000E+00 -0.00000000000E+00 -0.29397753689E+03  0.29397753689E+03  0.00000000000E+00 0. -1.
         25    2    1    2    0    0 -0.10940808591E+02  0.62047621417E+02 -0.13510540216E+03  0.19454724906E+03  0.12500221521E+03 0.  0.
          2    1    1    2  501    0 -0.30006214666E+02 -0.11665268086E+02 -0.12618479397E+03  0.13022693126E+03  0.00000000000E+00 0. -1.
          1    1    1    2  502    0  0.40947023258E+02 -0.50382353331E+02  0.11137333949E+04  0.11156240923E+04  0.00000000000E+00 0. -1.
         22    1    3    3    0    0 -0.32678165234E+02  0.84492441799E+02 -0.13585894068E+03  0.16329264211E+03  0.00000000000E+00 0. -1.
         22    1    3    3    0    0  0.21737356643E+02 -0.22444820382E+02  0.75353851361E+00  0.31254606958E+02  0.00000000000E+00 0. -1.
</event>
<event>
 7    1  0.6557591E-006  0.6292275E+02  0.7818608E-02  0.1445606E+00
          2   -1    0    0  502    0  0.00000000000E+00  0.00000000000E+00  0.18480204985E+04  0.18480204985E+04  0.00000000000E+00 0. -1.
          1   -1    0    0  501    0 -0.00000000000E+00 -0.00000000000E+00 -0.16884972761E+03  0.16884972761E+03  0.00000000000E+00 0. -1.
         25    2    1    2    0    0  0.59431635132E+01 -0.86991158081E+02  0.16585841157E+03  0.22524870265E+03  0.12500073031E+03 0.  0.
          2    1    1    2  501    0  0.23640285475E+02  0.31836183913E+02 -0.13572389651E+03  0.14139795538E+03  0.00000000000E+00 0. -1.
          1    1    1    2  502    0 -0.29583448988E+02  0.55154974168E+02  0.16490362558E+04  0.16502235681E+04  0.00000000000E+00 0. -1.
         22    1    3    3    0    0  0.57702711547E+02 -0.56207007041E+02  0.50379582688E+02  0.95010172677E+02  0.00000000000E+00 0. -1.
         22    1    3    3    0    0 -0.51759548034E+02 -0.30784151040E+02  0.11547882889E+03  0.13023852997E+03  0.00000000000E+00 0. -1.
</event>
<event>
 7    1  0.6557591E-006  0.1786724E+03  0.7818608E-02  0.1339531E+00
          2   -1    0    0  502    0  0.00000000000E+00  0.00000000000E+00  0.44751056315E+03  0.44751056315E+03  0.00000000000E+00 0. -1.
          1   -1    0    0  501    0 -0.00000000000E+00 -0.00000000000E+00 -0.13309707203E+04  0.13309707203E+04  0.00000000000E+00 0. -1.
         25    2    1    2    0    0 -0.13101002855E+03  0.14615259519E+03 -0.48739034540E+02  0.23774800907E+03  0.12499765465E+03 0.  0.
          2    1    1    2  501    0  0.13623416889E+03 -0.11388769757E+03 -0.11803151388E+04  0.11935970774E+04  0.00000000000E+00 0. -1.
          1    1    1    2  502    0 -0.52241403426E+01 -0.32264897624E+02  0.34559401614E+03  0.34713619697E+03  0.00000000000E+00 0. -1.
         22    1    3    3    0    0 -0.79883725594E+02  0.62880324640E+02 -0.86010930229E+02  0.13316615546E+03  0.00000000000E+00 0.  1.
         22    1    3    3    0    0 -0.51126302952E+02  0.83272270553E+02  0.37271895689E+02  0.10458185361E+03  0.00000000000E+00 0.  1.
</event>
<event>
 7    1  0.6557591E-006  0.8632638E+02  0.7818608E-02  0.1459307E+00
          2   -1    0    0  502    0  0.00000000000E+00  0.00000000000E+00  0.61116075748E+03  0.61116075748E+03  0.00000000000E+00 0. -1.
          1   -1    0    0  501    0 -0.00000000000E+00 -0.00000000000E+00 -0.71022660756E+03  0.71022660756E+03  0.00000000000E+00 0. -1.
         25    2    1    2    0    0 -0.82758916609E+02  0.17736421129E+02 -0.53355104013E+03  0.55449575230E+03  0.12500083192E+03 0.  0.
          2    1    1    2  501    0  0.79105085290E+02 -0.43616956665E+02 -0.15361726420E+03  0.17820863415E+03  0.00000000000E+00 0. -1.
          1    1    1    2  502    0  0.36538313194E+01  0.25880535536E+02  0.58810245424E+03  0.58868297860E+03  0.00000000000E+00 0. -1.
         22    1    3    3    0    0 -0.33207075536E+02  0.12067835438E+02 -0.48006662008E+03  0.48136504051E+03  0.00000000000E+00 0.  1.
         22    1    3    3    0    0 -0.49551841073E+02  0.56685856907E+01 -0.53484420052E+02  0.73130711782E+02  0.00000000000E+00 0.  1.
</event>
<event>
 7    1  0.6557591E-006  0.8275955E+02  0.7818608E-02  0.1380778E+00
          2   -1    0    0  502    0  0.00000000000E+00  0.00000000000E+00  0.29544025231E+04  0.29544025231E+04  0.00000000000E+00 0. -1.
          1   -1    0    0  501    0 -0.00000000000E+00 -0.00000000000E+00 -0.15438108508E+04  0.15438108508E+04  0.00000000000E+00 0. -1.
         25    2    1    2    0    0 -0.70777429053E+02 -0.51721070394E+02  0.41174886834E+02  0.15812451032E+03  0.12499390334E+03 0.  0.
          2    1    1    2  501    0  0.28297033011E+02  0.77892760769E+02 -0.14839617956E+04  0.14862740714E+04  0.00000000000E+00 0. -1.
          1    1    1    2  502    0  0.42480396042E+02 -0.26171690375E+02  0.28533785811E+04  0.28538147923E+04  0.00000000000E+00 0. -1.
         22    1    3    3    0    0  0.34505940551E+02 -0.26922986148E+02  0.18988449074E+02  0.47708157738E+02  0.00000000000E+00 0. -1.
         22    1    3    3    0    0 -0.10528336960E+03 -0.24798084246E+02  0.22186437759E+02  0.11041635258E+03  0.00000000000E+00 0. -1.
</event>
<event>
 7    1  0.6557591E-006  0.5278048E+02  0.7818608E-02  0.1560616E+00
          2   -1    0    0  502    0  0.00000000000E+00  0.00000000000E+00  0.82885254291E+03  0.82885254291E+03  0.00000000000E+00 0. -1.
          1   -1    0    0  501    0 -0.00000000000E+00 -0.00000000000E+00 -0.49181187559E+02  0.49181187559E+02  0.00000000000E+00 0. -1.
         25    2    1    2    0    0  0.41999118785E+02 -0.17251412578E+02  0.62495788370E+03  0.63895125715E+03  0.12499926158E+03 0.  0.
          2    1    1    2  501    0  0.16396051639E+02  0.13900850617E+02 -0.34713824090E+02  0.40830304190E+02  0.00000000000E+00 0. -1.
          1    1    1    2  502    0 -0.58395170424E+02  0.33505619607E+01  0.18942729575E+03  0.19825216914E+03  0.00000000000E+00 0. -1.
         22    1    3    3    0    0  0.39555852378E+02 -0.62795220959E+02  0.23769093286E+03  0.24900780067E+03  0.00000000000E+00 0.  1.
         22    1    3    3    0    0  0.24432664075E+01  0.45543808382E+02  0.38726695084E+03  0.38994345647E+03  0.00000000000E+00 0.  1.
</event>
<event>
 7    1  0.6557591E-006  0.5719041E+02  0.7818608E-02  0.1465834E+00
          2   -1    0    0  502    0  0.00000000000E+00  0.00000000000E+00  0.26824964638E+03  0.26824964638E+03  0.00000000000E+00 0. -1.
          1   -1    0    0  501    0 -0.00000000000E+00 -0.00000000000E+00 -0.49937339320E+03  0.49937339320E+03  0.00000000000E+00 0. -1.
         25    2    1    2    0    0  0.41244162165E+02  0.51204134989E+02  0.71167601307E+02  0.15815285234E+03  0.12499821149E+03 0.  0.
          2    1    1    2  501    0 -0.40751827105E+01 -0.57092232010E+02 -0.45174233219E+03  0.45535399939E+03  0.00000000000E+00 0. -1.
          1    1    1    2  502    0 -0.37168979454E+02  0.58880970210E+01  0.14945098406E+03  0.15411618785E+03  0.00000000000E+00 0. -1.
         22    1    3    3    0    0  0.80295355846E+01  0.56567827594E+02  0.99122307309E+02  0.11440989628E+03  0.00000000000E+00 0.  1.
         22    1    3    3    0    0  0.33214626580E+02 -0.53636926048E+01 -0.27954706002E+02  0.43742956061E+02  0.00000000000E+00 0.  1.
</event>
<event>
 7    1  0.6557591E-006  0.5539420E+02  0.7818608E-02  0.1507041E+00
          2   -1    0    0  502    0  0.00000000000E+00  0.00000000000E+00  0.26298096254E+04  0.26298096254E+04  0.00000000000E+00 0. -1.
          1   -1    0    0  501    0 -0.00000000000E+00 -0.00000000000E+00 -0.99383814654E+02  0.99383814654E+02  0.00000000000E+00 0. -1.
         25    2    1    2    0    0  0.80599827601E+02  0.24624688996E+02  0.13744038962E+04  0.13826470535E+04  0.12499638877E+03 0.  0.
          2    1    1    2  501    0 -0.53249765096E+02 -0.14642967779E+02 -0.87073337995E+02  0.10311023314E+03  0.00000000000E+00 0. -1.
          1    1    1    2  502    0 -0.27350062505E+02 -0.99817212171E+01  0.12430952525E+04  0.12434361534E+04  0.00000000000E+00 0. -1.
         22    1    3    3    0    0  0.11224086215E+03  0.21984131835E+02  0.11944663391E+04  0.11999296431E+04  0.00000000000E+00 0.  1.
         22    1    3    3    0    0 -0.31641034554E+02  0.26405571608E+01  0.17993755712E+03  0.18271741042E+03  0.00000000000E+00 0.  1.
</event>
<event>
 7    1  0.6557591E-006  0.4641642E+02  0.7818608E-02  0.1467839E+00
          2   -1    0    0  502    0  0.00000000000E+00  0.00000000000E+00  0.14778294577E+04  0.14778294577E+04  0.00000000000E+00 0. -1.
          1   -1    0    0  501    0 -0.00000000000E+00 -0.00000000000E+00 -0.13333468523E+03  0.13333468523E+03  0.00000000000E+00 0. -1.
         25    2    1    2    0    0 -0.87536768087E+01  0.49251898150E+02 -0.19997301051E+02  0.13610461925E+03  0.12498879551E+03 0.  0.
          2    1    1    2  501    0  0.44570815335E+02 -0.20862584170E+02 -0.43887400819E+02  0.65938675665E+02  0.00000000000E+00 0. -1.
          1    1    1    2  502    0 -0.35817138527E+02 -0.28389313981E+02  0.14083794743E+04  0.14091208480E+04  0.00000000000E+00 0. -1.
         22    1    3    3    0    0 -0.28924328896E+02 -0.30673776799E+02 -0.31832034557E+02  0.52827793908E+02  0.00000000000E+00 0.  1.
         22    1    3    3    0    0  0.20170652087E+02  0.79925674949E+02  0.11834733505E+02  0.83276825341E+02  0.00000000000E+00 0.  1.
</event>
<event>
 7    1  0.6557591E-006  0.9234166E+02  0.7818608E-02  0.1400583E+00
          2   -1    0    0  502    0  0.00000000000E+00  0.00000000000E+00  0.16584000289E+04  0.16584000289E+04  0.00000000000E+00 0. -1.
          1   -1    0    0  501    0 -0.00000000000E+00 -0.00000000000E+00 -0.66054399340E+03  0.66054399340E+03  0.00000000000E+00 0. -1.
         25    2    1    2    0    0 -0.18848522869E+02  0.12699244130E+03  0.50501090900E+03  0.53585724531E+03  0.12499848874E+03 0.  0.
          2    1    1    2  501    0  0.35496851719E+01 -0.92050149600E+02 -0.64151014465E+03  0.64809034555E+03  0.00000000000E+00 0. -1.
          1    1    1    2  502    0  0.15298837697E+02 -0.34942291696E+02  0.11343552712E+04  0.11349964314E+04  0.00000000000E+00 0. -1.
         22    1    3    3    0    0 -0.15478313431E+02  0.90962625374E+02  0.13175545016E+03  0.16085172069E+03  0.00000000000E+00 0. -1.
         22    1    3    3    0    0 -0.33702094375E+01  0.36029815923E+02  0.37325545883E+03  0.37500552462E+03  0.00000000000E+00 0. -1.
</event>
<event>
 7    1  0.6557591E-006  0.6624281E+02  0.7818608E-02  0.1437335E+00
          2   -1    0    0  502    0  0.00000000000E+00  0.00000000000E+00  0.13675025673E+03  0.13675025673E+03  0.00000000000E+00 0. -1.
          1   -1    0    0  501    0 -0.00000000000E+00 -0.00000000000E+00 -0.31771846964E+03  0.31771846964E+03  0.00000000000E+00 0. -1.
         25    2    1    2    0    0  0.66533780537E+02  0.50192943979E+02  0.42611306652E+02  0.15616960433E+03  0.12500858485E+03 0.  0.
          2    1    1    2  501    0 -0.39795879357E+02  0.46119556991E+01 -0.23315553225E+03  0.23657236602E+03  0.00000000000E+00 0. -1.
          1    1    1    2  502    0 -0.26737901180E+02 -0.54804899678E+02  0.95760126813E+01  0.61726756007E+02  0.00000000000E+00 0. -1.
         22    1    3    3    0    0  0.77349111888E+02  0.79156968349E+02  0.54097044589E+02  0.12318766570E+03  0.00000000000E+00 0. -1.
         22    1    3    3    0    0 -0.10815331350E+02 -0.28964024370E+02 -0.11485737937E+02  0.32981938632E+02  0.00000000000E+00 0. -1.
</event>
<event>
 7    1  0.6557591E-006  0.4985600E+02  0.7818608E-02  0.1521970E+00
          2   -1    0    0  502    0  0.00000000000E+00  0.00000000000E+00  0.12740790742E+04  0.12740790742E+04  0.00000000000E+00 0. -1.
          1   -1    0    0  501    0 -0.00000000000E+00 -0.00000000000E+00 -0.13030802545E+04  0.13030802545E+04  0.00000000000E+00 0. -1.
         25    2    1    2    0    0 -0.36430891539E+02  0.19974509962E+01  0.25442018827E+03  0.28580935224E+03  0.12500461574E+03 0.  0.
          2    1    1    2  501    0 -0.36118846078E+01  0.29029814095E+02 -0.12865803037E+04  0.12869128384E+04  0.00000000000E+00 0. -1.
          1    1    1    2  502    0  0.40042776147E+02 -0.31027265091E+02  0.10031589352E+04  0.10044371381E+04  0.00000000000E+00 0. -1.
         22    1    3    3    0    0  0.36489772194E+02 -0.26668892506E+02  0.52815465137E+02  0.69514075264E+02  0.00000000000E+00 0.  1.
         22    1    3    3    0    0 -0.72920663733E+02  0.28666343502E+02  0.20160472314E+03  0.21629527697E+03  0.00000000000E+00 0.  1.
</event>
<event>
 7    1  0.6557591E-006  0.1296042E+03  0.7818608E-02  0.1370727E+00
          2   -1    0    0  502    0  0.00000000000E+00  0.00000000000E+00  0.12567970523E+04  0.12567970523E+04  0.00000000000E+00 0. -1.
          1   -1    0    0  501    0 -0.00000000000E+00 -0.00000000000E+00 -0.32406226757E+03  0.32406226757E+03  0.00000000000E+00 0. -1.
         25    2    1    2    0    0  0.16659753125E+02  0.11729756667E+03  0.70307863284E+02  0.18602212363E+03  0.12499907328E+03 0.  0.
          2    1    1    2  501    0  0.34482880170E+02  0.28504025603E+01 -0.26128386342E+03  0.26356488974E+03  0.00000000000E+00 0. -1.
          1    1    1    2  502    0 -0.51142633295E+02 -0.12014796923E+03  0.11237107849E+04  0.11312723065E+04  0.00000000000E+00 0. -1.
         22    1    3    3    0    0 -0.35051226871E+02  0.10198060150E+03  0.15177643323E+02  0.10889900111E+03  0.00000000000E+00 0.  1.
         22    1    3    3    0    0  0.51710979996E+02  0.15316965174E+02  0.55130219962E+02  0.77123122521E+02  0.00000000000E+00 0.  1.
</event>
<event>
 7    1  0.6557591E-006  0.6646345E+02  0.7818608E-02  0.1484501E+00
          2   -1    0    0  502    0  0.00000000000E+00  0.00000000000E+00  0.72818413738E+02  0.72818413738E+02  0.00000000000E+00 0. -1.
          1   -1    0    0  501    0 -0.00000000000E+00 -0.00000000000E+00 -0.26850890881E+04  0.26850890881E+04  0.00000000000E+00 0. -1.
         25    2    1    2    0    0  0.51108052727E+02 -0.19206708353E+02 -0.25825618409E+03  0.29206446880E+03  0.12499786643E+03 0.  0.
          2    1    1    2  501    0 -0.47330617154E+02  0.47310473887E+02 -0.24058381143E+04  0.24067686844E+04  0.00000000000E+00 0. -1.
          1    1    1    2  502    0 -0.37774355732E+01 -0.28103765534E+02  0.51823624015E+02  0.59074348602E+02  0.00000000000E+00 0. -1.
         22    1    3    3    0    0  0.16954319416E+02 -0.69225829966E+02 -0.10158438626E+03  0.12409291685E+03  0.00000000000E+00 0.  1.
         22    1    3    3    0    0  0.34153733311E+02  0.50019121613E+02 -0.15667179784E+03  0.16797155195E+03  0.00000000000E+00 0.  1.
</event>
<event>
 7    1  0.6557591E-006  0.8900086E+02  0.7818608E-02  0.1426610E+00
          2   -1    0    0  502    0  0.00000000000E+00  0.00000000000E+00  0.99466173310E+03  0.99466173310E+03  0.00000000000E+00 0. -1.
          1   -1    0    0  501    0 -0.00000000000E+00 -0.00000000000E+00 -0.52784447486E+02  0.52784447486E+02  0.00000000000E+00 0. -1.
         25    2    1    2    0    0  0.10368007574E+03 -0.48685383973E+02  0.23588766417E+03  0.29049972649E+03  0.12500910471E+03 0.  0.
          2    1    1    2  501    0 -0.75981252454E+02  0.31999722152E+02  0.42657618148E+02  0.92826748992E+02  0.00000000000E+00 0. -1.
          1    1    1    2  502    0 -0.27698823286E+02  0.16685661821E+02  0.66333200330E+03  0.66411970511E+03  0.00000000000E+00 0. -1.
         22    1    3    3    0    0  0.79936342607E+01  0.40918932976E+01 -0.14641144376E+02  0.17175706334E+02  0.00000000000E+00 0.  1.
         22    1    3    3    0    0  0.95686441479E+02 -0.52777277271E+02  0.25052880855E+03  0.27332402015E+03  0.00000000000E+00 0.  1.
</event>
<event>
 7    1  0.6557591E-006  0.1087580E+03  0.7818608E-02  0.1324985E+00
          2   -1    0    0  502    0  0.00000000000E+00  0.00000000000E+00  0.24984497431E+04  0.24984497431E+04  0.00000000000E+00 0. -1.
          1   -1    0    0  501    0 -0.00000000000E+00 -0.00000000000E+00 -0.36908914657E+03  0.36908914657E+03  0.00000000000E+00 0. -1.
         25    2    1    2    0    0  0.14149369087E+02  0.59294591149E+02  0.62213643472E+03  0.63749136090E+03  0.12500175449E+03 0.  0.
          2    1    1    2  501    0  0.27820932463E+02  0.54285352032E+02 -0.35685945023E+03  0.36203531726E+03  0.00000000000E+00 0. -1.
          1    1    1    2  502    0 -0.41970301551E+02 -0.11357994318E+03  0.18640836121E+04  0.18680122115E+04  0.00000000000E+00 0. -1.
         22    1    3    3    0    0 -0.35142308437E+02 -0.12985899673E+02  0.79963435733E+02  0.88304962980E+02  0.00000000000E+00 0. -1.
         22    1    3    3    0    0  0.49291677524E+02  0.72280490821E+02  0.54217299899E+03  0.54918639792E+03  0.00000000000E+00 0. -1.
</event>
<event>
 7    1  0.6557591E-006  0.9707822E+02  0.7818608E-02  0.1338027E+00
          2   -1    0    0  502    0  0.00000000000E+00  0.00000000000E+00  0.56777233961E+02  0.56777233961E+02  0.00000000000E+00 0. -1.
          1   -1    0    0  501    0 -0.00000000000E+00 -0.00000000000E+00 -0.12867986901E+04  0.12867986901E+04  0.00000000000E+00 0. -1.
         25    2    1    2    0    0 -0.67682224815E+02 -0.39641645074E+02 -0.67123933805E+02  0.16211609405E+03  0.12499464741E+03 0.  0.
          2    1    1    2  501    0  0.97901695360E+02 -0.13286256841E+02 -0.10358360849E+04  0.10405371985E+04  0.00000000000E+00 0. -1.
          1    1    1    2  502    0 -0.30219470546E+02  0.52927901914E+02 -0.12706143739E+03  0.14092263151E+03  0.00000000000E+00 0. -1.
         22    1    3    3    0    0 -0.16035937427E+02  0.18633457768E+02 -0.79551341448E+02  0.83263275000E+02  0.00000000000E+00 0. -1.
         22    1    3    3    0    0 -0.51646287388E+02 -0.58275102842E+02  0.12427407643E+02  0.78852819055E+02  0.00000000000E+00 0. -1.
</event>
<event>
 7    1  0.6557591E-006  0.9912676E+02  0.7818608E-02  0.1343688E+00
          2   -1    0    0  502    0  0.00000000000E+00  0.00000000000E+00  0.80289457552E+03  0.80289457552E+03  0.00000000000E+00 0. -1.
          1   -1    0    0  501    0 -0.00000000000E+00 -0.00000000000E+00 -0.42877603043E+03  0.42877603043E+03  0.00000000000E+00 0. -1.
         25    2    1    2    0    0  0.13804589454E+03  0.40775428377E+02  0.96816448738E+02  0.21381544936E+03  0.12499726829E+03 0.  0.
          2    1    1    2  501    0 -0.55917772131E+02  0.10170508783E+02 -0.36445580041E+03  0.36886076904E+03  0.00000000000E+00 0. -1.
          1    1    1    2  502    0 -0.82128122409E+02 -0.50945937160E+02  0.64175789676E+03  0.64899438754E+03  0.00000000000E+00 0. -1.
         22    1    3    3    0    0  0.11308561930E+03 -0.18361318340E+02  0.24566949850E+02  0.11717094490E+03  0.00000000000E+00 0.  1.
         22    1    3    3    0    0  0.24960275237E+02  0.59136746718E+02  0.72249498888E+02  0.96644504458E+02  0.00000000000E+00 0.  1.
</event>
<event>
 7    1  0.6557591E-006  0.5888594E+02  0.7818608E-02  0.1424887E+00
          2   -1    0    0  502    0  0.00000000000E+00  0.00000000000E+00  0.72113155859E+03  0.72113155859E+03  0.00000000000E+00 0. -1.
          1   -1    0    0  501    0 -0.00000000000E+00 -0.00000000000E+00 -0.14355695051E+04  0.14355695051E+04  0.00000000000E+00 0. -1.
         25    2    1    2    0    0 -0.29548477069E+02  0.10090413942E+03 -0.17226328222E+03  0.23736349817E+03  0.12494812528E+03 0.  0.
          2    1    1    2  501    0  0.26639457640E+02 -0.51469676511E+02 -0.12291821567E+04  0.12305476678E+04  0.00000000000E+00 0. -1.
          1    1    1    2  502    0  0.29090194284E+01 -0.49434462907E+02  0.68700749245E+03  0.68878989772E+03  0.00000000000E+00 0. -1.
         22    1    3    3    0    0  0.42045897387E+01  0.34393167423E+01 -0.12289262728E+03  0.12301262258E+03  0.00000000000E+00 0.  1.
         22    1    3    3    0    0 -0.33753066807E+02  0.97464822676E+02 -0.49370654948E+02  0.11435087559E+03  0.00000000000E+00 0.  1.
</event>
<event>
 7    1  0.6557591E-006  0.8727028E+02  0.7818608E-02  0.1379259E+00
          2   -1    0    0  502    0  0.00000000000E+00  0.00000000000E+00  0.15874100522E+04  0.15874100522E+04  0.00000000000E+00 0. -1.
          1   -1    0    0  501    0 -0.00000000000E+00 -0.00000000000E+00 -0.26455537332E+03  0.26455537332E+03  0.00000000000E+00 0. -1.
         25    2    1    2    0    0 -0.26752044406E+02  0.38589685567E+02  0.67605997553E+01  0.13370229595E+03  0.12500305004E+03 0.  0.
          2    1    1    2  501    0  0.40141997559E+02 -0.84586371745E+02 -0.18978423950E+03  0.21162299453E+03  0.00000000000E+00 0. -1.
          1    1    1    2  502    0 -0.13389953153E+02  0.45996686177E+02  0.15058783186E+04  0.15066401350E+04  0.00000000000E+00 0. -1.
         22    1    3    3    0    0  0.14755513024E+02 -0.39160732231E+02 -0.12116414859E+02  0.43567139251E+02  0.00000000000E+00 0.  1.
         22    1    3    3    0    0 -0.41507557430E+02  0.77750417798E+02  0.18877014615E+02  0.90135156695E+02  0.00000000000E+00 0.  1.
</event>
<event>
 7    1  0.6557591E-006  0.4450941E+02  0.7818608E-02  0.1478005E+00
          2   -1    0    0  502    0  0.00000000000E+00  0.00000000000E+00  0.34554773026E+04  0.34554773026E+04  0.00000000000E+00 0. -1.
          1   -1    0    0  501    0 -0.00000000000E+00 -0.00000000000E+00 -0.31532166777E+02  0.31532166777E+02  0.00000000000E+00 0. -1.
         25    2    1    2    0    0 -0.29853856218E+01  0.53017933163E+02  0.18663761093E+04  0.18713112668E+04  0.12500504849E+03 0.  0.
          2    1    1    2  501    0 -0.34948681181E+02 -0.27268075710E+02 -0.11631141268E+02  0.45828394216E+02  0.00000000000E+00 0. -1.
          1    1    1    2  502    0  0.37934066803E+02 -0.25749857453E+02  0.15692001678E+04  0.15698698083E+04  0.00000000000E+00 0. -1.
         22    1    3    3    0    0  0.30717214895E+01  0.89691938751E+02  0.15779226715E+04  0.15804727257E+04  0.00000000000E+00 0. -1.
         22    1    3    3    0    0 -0.60571071112E+01 -0.36674005588E+02  0.28845343778E+03  0.29083854112E+03  0.00000000000E+00 0. -1.
</event>
<event>
 7    1  0.6557591E-006  0.3921912E+03  0.7818608E-02  0.1300857E+00
          2   -1    0    0  502    0  0.00000000000E+00  0.00000000000E+00  0.22592420537E+03  0.22592420537E+03  0.00000000000E+00 0. -1.
          1   -1    0    0  501    0 -0.00000000000E+00 -0.00000000000E+00 -0.94247390635E+03  0.94247390635E+03  0.00000000000E+00 0. -1.
         25    2    1    2    0    0  0.13411820185E+03  0.36300788358E+03 -0.22900589101E+03  0.46672431651E+03  0.12500189557E+03 0.  0.
          2    1    1    2  501    0 -0.11847682588E+03 -0.37707327825E+03 -0.52593516743E+03  0.65789726841E+03  0.00000000000E+00 0. -1.
          1    1    1    2  502    0 -0.15641375973E+02  0.14065394676E+02  0.38391357472E+02  0.43776526795E+02  0.00000000000E+00 0. -1.
         22    1    3    3    0    0  0.57501330974E+02  0.50869301106E+02 -0.91461292701E+01  0.77315849212E+02  0.00000000000E+00 0. -1.
         22    1    3    3    0    0  0.76616870881E+02  0.31213858247E+03 -0.21985976174E+03  0.38940846730E+03  0.00000000000E+00 0. -1.
</event>
<event>
 7    1  0.6557591E-006  0.5263155E+02  0.7818608E-02  0.1528411E+00
          2   -1    0    0  502    0  0.00000000000E+00  0.00000000000E+00  0.11391287915E+02  0.11391287915E+02  0.00000000000E+00 0. -1.
          1   -1    0    0  501    0 -0.00000000000E+00 -0.00000000000E+00 -0.10959756577E+04  0.10959756577E+04  0.00000000000E+00 0. -1.
         25    2    1    2    0    0 -0.42339240995E+02  0.25872688347E+01 -0.58012170498E+03  0.59495079610E+03  0.12500380755E+03 0.  0.
          2    1    1    2  501    0 -0.93069116955E+01  0.24866345810E+02 -0.24543681211E+03  0.24686875562E+03  0.00000000000E+00 0. -1.
          1    1    1    2  502    0  0.51646152691E+02 -0.27453614645E+02 -0.25902585274E+03  0.26554739394E+03  0.00000000000E+00 0. -1.
         22    1    3    3    0    0 -0.81467054018E+02  0.56136279296E+01 -0.48849365448E+03  0.49527209105E+03  0.00000000000E+00 0.  1.
         22    1    3    3    0    0  0.39127813023E+02 -0.30263590949E+01 -0.91628050499E+02  0.99678705045E+02  0.00000000000E+00 0.  1.
</event>
<event>
 7    1  0.6557591E-006  0.5400996E+02  0.7818608E-02  0.1560110E+00
          2   -1    0    0  502    0  0.00000000000E+00  0.00000000000E+00  0.11232899487E+04  0.11232899487E+04  0.00000000000E+00 0. -1.
          1   -1    0    0  501    0 -0.00000000000E+00 -0.00000000000E+00 -0.21662833478E+03  0.21662833478E+03  0.00000000000E+00 0. -1.
         25    2    1    2    0    0  0.19004609912E+02 -0.42864175988E+02 -0.93661912880E+02  0.16308148243E+03  0.12499801280E+03 0.  0.
          2    1    1    2  501    0 -0.17857544761E+02 -0.11189824884E+02 -0.86316888412E+02  0.88852176738E+02  0.00000000000E+00 0. -1.
          1    1    1    2  502    0 -0.11470651505E+01  0.54054000873E+02  0.10866404152E+04  0.10879846243E+04  0.00000000000E+00 0. -1.
         22    1    3    3    0    0  0.43454203803E+02 -0.10634351015E+02  0.14959446546E+02  0.47171413914E+02  0.00000000000E+00 0.  1.
         22    1    3    3    0    0 -0.24449593891E+02 -0.32229824974E+02 -0.10862135943E+03  0.11591006851E+03  0.00000000000E+00 0.  1.
</event>
<event>
 7    1  0.6557591E-006  0.7531927E+02  0.7818608E-02  0.1464629E+00
          2   -1    0    0  502    0  0.00000000000E+00  0.00000000000E+00  0.77880595183E+03  0.77880595183E+03  0.00000000000E+00 0. -1.
          1   -1    0    0  501    0 -0.00000000000E+00 -0.00000000000E+00 -0.40126840996E+02  0.40126840996E+02  0.00000000000E+00 0. -1.
         25    2    1    2    0    0  0.34106512887E+02 -0.37315755740E+02  0.17287262678E+03  0.21923804708E+03  0.12499862539E+03 0.  0.
          2    1    1    2  501    0  0.10904484846E+02 -0.26681721699E+02  0.32467916912E+00  0.28825812723E+02  0.00000000000E+00 0. -1.
          1    1    1    2  502    0 -0.45010997733E+02  0.63997477439E+02  0.56548180488E+03  0.57086893302E+03  0.00000000000E+00 0. -1.
         22    1    3    3    0    0 -0.29343399153E+02 -0.56114133155E+01 -0.25840026057E+01  0.29986665415E+02  0.00000000000E+00 0.  1.
         22    1    3    3    0    0  0.63449912040E+02 -0.31704342425E+02  0.17545662939E+03  0.18925138167E+03  0.00000000000E+00 0.  1.
</event>
<event>
 7    1  0.6557591E-006  0.1650367E+03  0.7818608E-02  0.1251758E+00
          2   -1    0    0  502    0  0.00000000000E+00  0.00000000000E+00  0.37931470449E+03  0.37931470449E+03  0.00000000000E+00 0. -1.
          1   -1    0    0  501    0 -0.00000000000E+00 -0.00000000000E+00 -0.11056007004E+04  0.11056007004E+04  0.00000000000E+00 0. -1.
         25    2    1    2    0    0 -0.12710348413E+03 -0.10319007876E+03 -0.52343363135E+03  0.56250464037E+03  0.12500086388E+03 0.  0.
          2    1    1    2  501    0  0.62784930143E+02 -0.49566763314E+02 -0.54044095760E+03  0.54632887543E+03  0.00000000000E+00 0. -1.
          1    1    1    2  502    0  0.64318553984E+02  0.15275684208E+03  0.33758859302E+03  0.37608188912E+03  0.00000000000E+00 0. -1.
         22    1    3    3    0    0 -0.10031512083E+03 -0.10409623971E+03 -0.25816803683E+03  0.29588829958E+03  0.00000000000E+00 0. -1.
         22    1    3    3    0    0 -0.26788363297E+02  0.90616094859E+00 -0.26526559452E+03  0.26661634079E+03  0.00000000000E+00 0. -1.
</event>
<event>
 7    1  0.6557591E-006  0.1462878E+03  0.7818608E-02  0.1205902E+00
          2   -1    0    0  502    0  0.00000000000E+00  0.00000000000E+00  0.43492457684E+03  0.43492457684E+03  0.00000000000E+00 0. -1.
          1   -1    0    0  501    0 -0.00000000000E+00 -0.00000000000E+00 -0.48115488753E+03  0.48115488753E+03  0.00000000000E+00 0. -1.
         25    2    1    2    0    0  0.12205217729E+02  0.38904526215E+02 -0.14970090464E+02  0.13233211610E+03  0.12500062338E+03 0.  0.
          2    1    1    2  501    0 -0.57698896225E+02 -0.17663205858E+03 -0.37067336027E+03  0.41464055127E+03  0.00000000000E+00 0. -1.
          1    1    1    2  502    0  0.45493678496E+02  0.13772753237E+03  0.33941314004E+03  0.36910679700E+03  0.00000000000E+00 0. -1.
         22    1    3    3    0    0  0.12726965280E+02 -0.12771118389E+02 -0.60702884052E+02  0.63323907353E+02  0.00000000000E+00 0.  1.
         22    1    3    3    0    0 -0.52174755073E+00  0.51675644604E+02  0.45732793588E+02  0.69008208751E+02  0.00000000000E+00 0.  1.
</event>
<event>
 7    1  0.6557591E-006  0.1188708E+03  0.7818608E-02  0.1268042E+00
          2   -1    0    0  502    0  0.00000000000E+00  0.00000000000E+00  0.18161645989E+03  0.18161645989E+03  0.00000000000E+00 0. -1.
          1   -1    0    0  501    0 -0.00000000000E+00 -0.00000000000E+00 -0.17957201480E+04  0.17957201480E+04  0.00000000000E+00 0. -1.
         25    2    1    2    0    0 -0.19156748654E+03  0.82048062978E+02 -0.14026737797E+04  0.14235688939E+04  0.12499870733E+03 0.  0.
          2    1    1    2  501    0  0.92883477114E+02 -0.18109484984E+02 -0.35545590297E+03  0.36783718235E+03  0.00000000000E+00 0. -1.
          1    1    1    2  502    0  0.98684009423E+02 -0.63938577994E+02  0.14402599460E+03  0.18593053163E+03  0.00000000000E+00 0. -1.
         22    1    3    3    0    0 -0.17503153615E+03  0.20590087626E+02 -0.11230073737E+04  0.11367521945E+04  0.00000000000E+00 0. -1.
         22    1    3    3    0    0 -0.16535950382E+02  0.61457975352E+02 -0.27966640607E+03  0.28681669943E+03  0.00000000000E+00 0. -1.
</event>
<event>
 7    1  0.6557591E-006  0.3535575E+02  0.7818608E-02  0.1560397E+00
          2   -1    0    0  502    0  0.00000000000E+00  0.00000000000E+00  0.11748487425E+04  0.11748487425E+04  0.00000000000E+00 0. -1.
          1   -1    0    0  501    0 -0.00000000000E+00 -0.00000000000E+00 -0.18146659436E+03  0.18146659436E+03  0.00000000000E+00 0. -1.
         25    2    1    2    0    0 -0.18226032911E+02  0.58342533378E+02  0.77634091012E+02  0.15933557930E+03  0.12499894106E+03 0.  0.
          2    1    1    2  501    0  0.22079489913E+02 -0.23347217137E+02 -0.13848230128E+03  0.14216168327E+03  0.00000000000E+00 0. -1.
          1    1    1    2  502    0 -0.38534570014E+01 -0.34995316241E+02  0.10542303584E+04  0.10548180743E+04  0.00000000000E+00 0. -1.
         22    1    3    3    0    0  0.44046098498E+02 -0.32581526280E+01  0.51673946085E+02  0.67976989162E+02  0.00000000000E+00 0.  1.
         22    1    3    3    0    0 -0.62272131410E+02  0.61600686006E+02  0.25960144927E+02  0.91358590134E+02  0.00000000000E+00 0.  1.
</event>
<event>
 7    1  0.6557591E-006  0.2845575E+03  0.7818608E-02  0.1193374E+00
          2   -1    0    0  502    0  0.00000000000E+00  0.00000000000E+00  0.20212659550E+04  0.20212659550E+04  0.00000000000E+00 0. -1.
          1   -1    0    0  501    0 -0.00000000000E+00 -0.00000000000E+00 -0.71523618597E+03  0.71523618597E+03  0.00000000000E+00 0. -1.
         25    2    1    2    0    0  0.34001424603E+02  0.24622900796E+03 -0.92830137372E+02  0.29330585913E+03  0.12500428536E+03 0.  0.
          2    1    1    2  501    0  0.31558641049E+02 -0.30102089767E+03 -0.47725391516E+03  0.56513788423E+03  0.00000000000E+00 0. -1.
          1    1    1    2  502    0 -0.65560065651E+02  0.54791889708E+02  0.18761138216E+04  0.18780583976E+04  0.00000000000E+00 0. -1.
         22    1    3    3    0    0  0.70613749879E+01  0.21381780274E+02  0.28558221182E+02  0.36367781641E+02  0.00000000000E+00 0. -1.
         22    1    3    3    0    0  0.26940049615E+02  0.22484722769E+03 -0.12138835855E+03  0.25693807749E+03  0.00000000000E+00 0. -1.
</event>
<event>
 7    1  0.6557591E-006  0.1742220E+03  0.7818608E-02  0.1284321E+00
          2   -1    0    0  502    0  0.00000000000E+00  0.00000000000E+00  0.99879864232E+02  0.99879864232E+02  0.00000000000E+00 0. -1.
          1   -1    0    0  501    0 -0.00000000000E+00 -0.00000000000E+00 -0.33275117623E+04  0.33275117623E+04  0.00000000000E+00 0. -1.
         25    2    1    2    0    0 -0.11737512020E+03 -0.79751578827E+02 -0.25449808767E+03  0.31706756621E+03  0.12500132699E+03 0.  0.
          2    1    1    2  501    0 -0.55243253517E+02  0.80998758320E+00 -0.29096528407E+04  0.29101773360E+04  0.00000000000E+00 0. -1.
          1    1    1    2  502    0  0.17261837372E+03  0.78941591244E+02 -0.63480969702E+02  0.20014672440E+03  0.00000000000E+00 0. -1.
         22    1    3    3    0    0 -0.13176626591E+03 -0.35772504749E+02 -0.15030194431E+03  0.20305835465E+03  0.00000000000E+00 0. -1.
         22    1    3    3    0    0  0.14391145712E+02 -0.43979074077E+02 -0.10419614335E+03  0.11400921156E+03  0.00000000000E+00 0. -1.
</event>
<event>
 7    1  0.6557591E-006  0.1249893E+03  0.7818608E-02  0.1404793E+00
          2   -1    0    0  502    0  0.00000000000E+00  0.00000000000E+00  0.22023276535E+04  0.22023276535E+04  0.00000000000E+00 0. -1.
          1   -1    0    0  501    0 -0.00000000000E+00 -0.00000000000E+00 -0.38994555519E+03  0.38994555519E+03  0.00000000000E+00 0. -1.
         25    2    1    2    0    0  0.97392440440E+02  0.27264239223E+02  0.30520079878E+03  0.34496611124E+03  0.12500185652E+03 0.  0.
          2    1    1    2  501    0  0.23318802703E+02  0.14120117597E+02 -0.36738872918E+03  0.36839872775E+03  0.00000000000E+00 0. -1.
          1    1    1    2  502    0 -0.12071124314E+03 -0.41384356820E+02  0.18745700287E+04  0.18789083697E+04  0.00000000000E+00 0. -1.
         22    1    3    3    0    0  0.51947114063E+02  0.27705543695E+02  0.29166234826E+03  0.29754499694E+03  0.00000000000E+00 0. -1.
         22    1    3    3    0    0  0.45445326377E+02 -0.44130447171E+00  0.13538450519E+02  0.47421114301E+02  0.00000000000E+00 0. -1.
</event>
<event>
 7    1  0.6557591E-006  0.4001440E+02  0.7818608E-02  0.1558131E+00
          2   -1    0    0  502    0  0.00000000000E+00  0.00000000000E+00  0.36351139181E+03  0.36351139181E+03  0.00000000000E+00 0. -1.
          1   -1    0    0  501    0 -0.00000000000E+00 -0.00000000000E+00 -0.29451388079E+03  0.29451388079E+03  0.00000000000E+00 0. -1.
         25    2    1    2    0    0  0.46366281222E+02 -0.42666369654E+02 -0.47120045938E+02  0.14770623971E+03  0.12500633339E+03 0.  0.
          2    1    1    2  501    0 -0.27810505966E+02  0.74998065119E+01 -0.19477540543E+03  0.19689370203E+03  0.00000000000E+00 0. -1.
          1    1    1    2  502    0 -0.18555775256E+02  0.35166563142E+02  0.31089296239E+03  0.31342533086E+03  0.00000000000E+00 0. -1.
         22    1    3    3    0    0  0.27628070652E+00 -0.10192693682E+00  0.40191144016E+02  0.40192222848E+02  0.00000000000E+00 0.  1.
         22    1    3    3    0    0  0.46090000515E+02 -0.42564442717E+02 -0.87311189953E+02  0.10751401686E+03  0.00000000000E+00 0.  1.
</event>
<event>
 7    1  0.6557591E-006  0.1199124E+03  0.7818608E-02  0.1384226E+00
          2   -1    0    0  502    0  0.00000000000E+00  0.00000000000E+00  0.19231732598E+03  0.19231732598E+03  0.00000000000E+00 0. -1.
          1   -1    0    0  501    0 -0.00000000000E+00 -0.00000000000E+00 -0.16822934362E+03  0.16822934362E+03  0.00000000000E+00 0. -1.
         25    2    1    2    0    0  0.53404903511E+02 -0.90408626227E+02 -0.37200670942E+02  0.16743591113E+03  0.12500036401E+03 0.  0.
          2    1    1    2  501    0 -0.74829787911E+02  0.11614192648E+03  0.19451220514E+02  0.13952345403E+03  0.00000000000E+00 0. -1.
          1    1    1    2  502    0  0.21424884400E+02 -0.25733300256E+02  0.41837432793E+02  0.53587304433E+02  0.00000000000E+00 0. -1.
         22    1    3    3    0    0  0.11891733460E+02  0.18554523132E+02  0.26580716940E+02  0.34528512369E+02  0.00000000000E+00 0. -1.
         22    1    3    3    0    0  0.41513170051E+02 -0.10896314936E+03 -0.63781387882E+02  0.13290739876E+03  0.00000000000E+00 0. -1.
</event>
<event>
 7    1  0.6557591E-006  0.8183608E+02  0.7818608E-02  0.1350830E+00
          2   -1    0    0  502    0  0.00000000000E+00  0.00000000000E+00  0.46300080742E+03  0.46300080742E+03  0.00000000000E+00 0. -1.
          1   -1    0    0  501    0 -0.00000000000E+00 -0.00000000000E+00 -0.97680111685E+03  0.97680111685E+03  0.00000000000E+00 0. -1.
         25    2    1    2    0    0 -0.47105708029E+02 -0.44178606948E+02  0.31631299229E+02  0.14421061969E+03  0.12500186679E+03 0.  0.
          2    1    1    2  501    0 -0.37592872401E+02  0.52728528833E+02 -0.91452145790E+03  0.91681133216E+03  0.00000000000E+00 0. -1.
          1    1    1    2  502    0  0.84698580431E+02 -0.85499218844E+01  0.36908984924E+03  0.37877997242E+03  0.00000000000E+00 0. -1.
         22    1    3    3    0    0 -0.19637631591E+02 -0.86647007583E+02  0.10750472572E+02  0.89492531298E+02  0.00000000000E+00 0.  1.
         22    1    3    3    0    0 -0.27468076438E+02  0.42468400635E+02  0.20880826657E+02  0.54718088395E+02  0.00000000000E+00 0.  1.
</event>
<event>
 7    1  0.6557591E-006  0.1495094E+03  0.7818608E-02  0.1251757E+00
          2   -1    0    0  502    0  0.00000000000E+00  0.00000000000E+00  0.15961582078E+04  0.15961582078E+04  0.00000000000E+00 0. -1.
          1   -1    0    0  501    0 -0.00000000000E+00 -0.00000000000E+00 -0.33156101558E+03  0.33156101558E+03  0.00000000000E+00 0. -1.
         25    2    1    2    0    0 -0.95500816505E+02  0.14218245779E+03 -0.18528778530E+02  0.21286352163E+03  0.12502522126E+03 0.  0.
          2    1    1    2  501    0 -0.39951694546E+02 -0.78746461376E+02 -0.20292081196E+03  0.22130069815E+03  0.00000000000E+00 0. -1.
          1    1    1    2  502    0  0.13545251105E+03 -0.63435996409E+02  0.14860467827E+04  0.14935550036E+04  0.00000000000E+00 0. -1.
         22    1    3    3    0    0 -0.10895719155E+03  0.80337093940E+02 -0.47220028254E+02  0.14337171730E+03  0.00000000000E+00 0.  1.
         22    1    3    3    0    0  0.13456375042E+02  0.61845363846E+02  0.28691249724E+02  0.69491804331E+02  0.00000000000E+00 0.  1.
</event>
<event>
 7    1  0.6557591E-006  0.1822172E+03  0.7818608E-02  0.1215620E+00
          2   -1    0    0  502    0  0.00000000000E+00  0.00000000000E+00  0.84281834393E+03  0.84281834393E+03  0.00000000000E+00 0. -1.
          1   -1    0    0  501    0 -0.00000000000E+00 -0.00000000000E+00 -0.17036737679E+04  0.17036737679E+04  0.00000000000E+00 0. -1.
         25    2    1    2    0    0 -0.13335055266E+03  0.22268193935E+03  0.36353171828E+03  0.46384264872E+03  0.12500030629E+03 0.  0.
          2    1    1    2  501    0  0.74353724634E+02 -0.74115296020E+02 -0.16368918788E+04  0.16402550340E+04  0.00000000000E+00 0. -1.
          1    1    1    2  502    0  0.58996828029E+02 -0.14856664333E+03  0.41250473659E+03  0.44239442914E+03  0.00000000000E+00 0. -1.
         22    1    3    3    0    0 -0.14411461478E+03  0.17358112607E+03  0.34071593999E+03  0.40864016113E+03  0.00000000000E+00 0. -1.
         22    1    3    3    0    0  0.10764062116E+02  0.49100813282E+02  0.22815778285E+02  0.55202487597E+02  0.00000000000E+00 0. -1.
</event>
<event>
 7    1  0.6557591E-006  0.1093256E+03  0.7818608E-02  0.1455962E+00
          2   -1    0    0  502    0  0.00000000000E+00  0.00000000000E+00  0.19332254992E+04  0.19332254992E+04  0.00000000000E+00 0. -1.
          1   -1    0    0  501    0 -0.00000000000E+00 -0.00000000000E+00 -0.58765359277E+03  0.58765359277E+03  0.00000000000E+00 0. -1.
         25    2    1    2    0    0 -0.30270230415E+02  0.12575484367E+03  0.17132882755E+04  0.17227044012E+04  0.12499268582E+03 0.  0.
          2    1    1    2  501    0  0.31457549591E+02 -0.10464031226E+03 -0.57728850329E+03  0.58753824421E+03  0.00000000000E+00 0. -1.
          1    1    1    2  502    0 -0.11873191762E+01 -0.21114531411E+02  0.20957213425E+03  0.21063644656E+03  0.00000000000E+00 0. -1.
         22    1    3    3    0    0 -0.43257429023E+02  0.89761851612E+02  0.16005674317E+04  0.16036659561E+04  0.00000000000E+00 0.  1.
         22    1    3    3    0    0  0.12987198608E+02  0.35992992059E+02  0.11272084380E+03  0.11903844518E+03  0.00000000000E+00 0.  1.
</event>
<event>
 7    1  0.6557591E-006  0.1381868E+03  0.7818608E-02  0.1298942E+00
          2   -1    0    0  502    0  0.00000000000E+00  0.00000000000E+00  0.40590229474E+03  0.40590229474E+03  0.00000000000E+00 0. -1.
          1   -1    0    0  501    0 -0.00000000000E+00 -0.00000000000E+00 -0.11902281112E+04  0.11902281112E+04  0.00000000000E+00 0. -1.
         25    2    1    2    0    0  0.17044979634E+03  0.86540303624E+02 -0.34774451996E+03  0.41604846640E+03  0.12501087157E+03 0.  0.
          2    1    1    2  501    0 -0.40226971191E+02 -0.45541744621E+02 -0.79459786908E+03  0.79691783344E+03  0.00000000000E+00 0. -1.
          1    1    1    2  502    0 -0.13022282515E+03 -0.40998559003E+02  0.35801657253E+03  0.38316410614E+03  0.00000000000E+00 0. -1.
         22    1    3    3    0    0  0.59435205130E+01 -0.27485392644E+02 -0.47538122102E+02  0.55232647030E+02  0.00000000000E+00 0.  1.
         22    1    3    3    0    0  0.16450627583E+03  0.11402569627E+03 -0.30020639785E+03  0.36081581937E+03  0.00000000000E+00 0.  1.
</event>
<event>
 7    1  0.6557591E-006  0.6833236E+02  0.7818608E-02  0.1466822E+00
          2   -1    0    0  502    0  0.00000000000E+00  0.00000000000E+00  0.18428133350E+03  0.18428133350E+03  0.00000000000E+00 0. -1.
          1   -1    0    0  501    0 -0.00000000000E+00 -0.00000000000E+00 -0.20896340140E+04  0.20896340140E+04  0.00000000000E+00 0. -1.
         25    2    1    2    0    0  0.53950150994E+02 -0.49093461534E+02 -0.19479881415E+03  0.24267686337E+03  0.12499878106E+03 0.  0.
          2    1    1    2  501    0 -0.65402464857E+02  0.19992752458E+02 -0.18687398247E+04  0.18699908355E+04  0.00000000000E+00 0. -1.
          1    1    1    2  502    0  0.11452313863E+02  0.29100709077E+02  0.15818595834E+03  0.16124764860E+03  0.00000000000E+00 0. -1.
         22    1    3    3    0    0 -0.21284801096E+02 -0.32101748590E+02 -0.14694210925E+03  0.15190638068E+03  0.00000000000E+00 0.  1.
         22    1    3    3    0    0  0.75234952089E+02 -0.16991712944E+02 -0.47856704896E+02  0.90770482692E+02  0.00000000000E+00 0.  1.
</event>
<event>
 7    1  0.6557591E-006  0.1436845E+03  0.7818608E-02  0.1307579E+00
          2   -1    0    0  502    0  0.00000000000E+00  0.00000000000E+00  0.17850204497E+04  0.17850204497E+04  0.00000000000E+00 0. -1.
          1   -1    0    0  501    0 -0.00000000000E+00 -0.00000000000E+00 -0.79845092426E+03  0.79845092426E+03  0.00000000000E+00 0. -1.
         25    2    1    2    0    0  0.15369429117E+03  0.89501252210E+02 -0.19325906392E+02  0.21824052409E+03  0.12499210541E+03 0.  0.
          2    1    1    2  501    0 -0.52708767739E+02  0.11687524038E+02 -0.67555759976E+03  0.67771150426E+03  0.00000000000E+00 0. -1.
          1    1    1    2  502    0 -0.10098552343E+03 -0.10118877625E+03  0.16814530315E+04  0.16875193456E+04  0.00000000000E+00 0. -1.
         22    1    3    3    0    0  0.15347925427E+03  0.28362444244E+02 -0.10043533860E+02  0.15640071070E+03  0.00000000000E+00 0. -1.
         22    1    3    3    0    0  0.21503689326E+00  0.61138807967E+02 -0.92823725318E+01  0.61839813391E+02  0.00000000000E+00 0. -1.
</event>
<event>
 7    1  0.6557591E-006  0.5412054E+02  0.7818608E-02  0.1462108E+00
          2   -1    0    0  502    0  0.00000000000E+00  0.00000000000E+00  0.92387168143E+02  0.92387168143E+02  0.00000000000E+00 0. -1.
          1   -1    0    0  501    0 -0.00000000000E+00 -0.00000000000E+00 -0.76492757199E+03  0.76492757199E+03  0.00000000000E+00 0. -1.
         25    2    1    2    0    0 -0.39977153185E+02  0.31649583203E+02 -0.31473668087E+03  0.34246812046E+03  0.12500146539E+03 0.  0.
          2    1    1    2  501    0  0.55970559986E+02  0.59417277611E+01 -0.42904622011E+03  0.43272238988E+03  0.00000000000E+00 0. -1.
          1    1    1    2  502    0 -0.15993406801E+02 -0.37591310964E+02  0.71242497136E+02  0.82124229794E+02  0.00000000000E+00 0. -1.
         22    1    3    3    0    0  0.41810712602E+02 -0.98108814026E+01 -0.89068446525E+02  0.98881632514E+02  0.00000000000E+00 0. -1.
         22    1    3    3    0    0 -0.81787865787E+02  0.41460464606E+02 -0.22566823435E+03  0.24358648794E+03  0.00000000000E+00 0. -1.
</event>
<event>
 7    1  0.6557591E-006  0.5508213E+02  0.7818608E-02  0.1431662E+00
          2   -1    0    0  502    0  0.00000000000E+00  0.00000000000E+00  0.25219136080E+03  0.25219136080E+03  0.00000000000E+00 0. -1.
          1   -1    0    0  501    0 -0.00000000000E+00 -0.00000000000E+00 -0.58622395911E+03  0.58622395911E+03  0.00000000000E+00 0. -1.
         25    2    1    2    0    0  0.80561935376E+00 -0.58779228986E+01 -0.18833593145E+03  0.22611577947E+03  0.12499089427E+03 0.  0.
          2    1    1    2  501    0  0.23658511803E+02 -0.44369523212E+02 -0.37394416478E+03  0.37730971117E+03  0.00000000000E+00 0. -1.
          1    1    1    2  502    0 -0.24464131157E+02  0.50247446111E+02  0.22824749792E+03  0.23498982927E+03  0.00000000000E+00 0. -1.
         22    1    3    3    0    0  0.62714466881E+02 -0.67744189762E+01 -0.10033153830E+03  0.11851335235E+03  0.00000000000E+00 0.  1.
         22    1    3    3    0    0 -0.61908847528E+02  0.89649607764E+00 -0.88004393153E+02  0.10760242712E+03  0.00000000000E+00 0.  1.
</event>
<event>
 7    1  0.6557591E-006  0.1407366E+03  0.7818608E-02  0.1307088E+00
          2   -1    0    0  502    0  0.00000000000E+00  0.00000000000E+00  0.19782302795E+04  0.19782302795E+04  0.00000000000E+00 0. -1.
          1   -1    0    0  501    0 -0.00000000000E+00 -0.00000000000E+00 -0.12005953685E+03  0.12005953685E+03  0.00000000000E+00 0. -1.
         25    2    1    2    0    0 -0.17292182380E+03 -0.65694936625E+02  0.27377781081E+03  0.35326609782E+03  0.12499945732E+03 0.  0.
          2    1    1    2  501    0  0.55080119551E+02 -0.56281259985E+01 -0.67553748365E+02  0.87344171472E+02  0.00000000000E+00 0. -1.
          1    1    1    2  502    0  0.11784170425E+03  0.71323062624E+02  0.16519466802E+04  0.16576795471E+04  0.00000000000E+00 0. -1.
         22    1    3    3    0    0 -0.30078574439E+01 -0.27354812153E+02  0.11272200311E+03  0.11603268048E+03  0.00000000000E+00 0.  1.
         22    1    3    3    0    0 -0.16991396636E+03 -0.38340124472E+02  0.16105580770E+03  0.23723341734E+03  0.00000000000E+00 0.  1.
</event>
<event>
 7    1  0.6557591E-006  0.6812028E+02  0.7818608E-02  0.1437355E+00
          2   -1    0    0  502    0  0.00000000000E+00  0.00000000000E+00  0.14568154104E+04  0.14568154104E+04  0.00000000000E+00 0. -1.
          1   -1    0    0  501    0 -0.00000000000E+00 -0.00000000000E+00 -0.35961413393E+03  0.35961413393E+03  0.00000000000E+00 0. -1.
         25    2    1    2    0    0  0.37352627574E+02 -0.77578897379E+01  0.59320666212E+02  0.14352263153E+03  0.12499760270E+03 0.  0.
          2    1    1    2  501    0  0.29019171183E+02  0.25984168913E+02 -0.31544060449E+03  0.31783653706E+03  0.00000000000E+00 0. -1.
          1    1    1    2  502    0 -0.66371798757E+02 -0.18226279175E+02  0.13533212148E+04  0.13550703758E+04  0.00000000000E+00 0. -1.
         22    1    3    3    0    0  0.79577296932E+02  0.11722770156E+02  0.53626405235E+02  0.96673475502E+02  0.00000000000E+00 0.  1.
         22    1    3    3    0    0 -0.42224669358E+02 -0.19480659894E+02  0.56942609763E+01  0.46849156026E+02  0.00000000000E+00 0.  1.
</event>
<event>
 7    1  0.6557591E-006  0.2988665E+03  0.7818608E-02  0.1208486E+00
          2   -1    0    0  502    0  0.00000000000E+00  0.00000000000E+00  0.26626792576E+04  0.26626792576E+04  0.00000000000E+00 0. -1.
          1   -1    0    0  501    0 -0.00000000000E+00 -0.00000000000E+00 -0.51834940198E+03  0.51834940198E+03  0.00000000000E+00 0. -1.
         25    2    1    2    0    0 -0.25845505399E+03  0.16748106394E+03  0.71415750749E+03  0.78771456961E+03  0.12499750386E+03 0.  0.
          2    1    1    2  501    0  0.20791664837E+03 -0.21454087763E+03 -0.43453372684E+03  0.52732976458E+03  0.00000000000E+00 0. -1.
          1    1    1    2  502    0  0.50538405617E+02  0.47059813698E+02  0.18647060749E+04  0.18659843253E+04  0.00000000000E+00 0. -1.
         22    1    3    3    0    0  0.63681803684E+01  0.90690725330E+01  0.15863854196E+01  0.11194570850E+02  0.00000000000E+00 0.  1.
         22    1    3    3    0    0 -0.26482323436E+03  0.15841199140E+03  0.71257112207E+03  0.77651999876E+03  0.00000000000E+00 0.  1.
</event>
<event>
 7    1  0.6557591E-006  0.4165589E+03  0.7818608E-02  0.1185171E+00
          2   -1    0    0  502    0  0.00000000000E+00  0.00000000000E+00  0.14837205300E+04  0.14837205300E+04  0.00000000000E+00 0. -1.
          1   -1    0    0  501    0 -0.00000000000E+00 -0.00000000000E+00 -0.11562653778E+04  0.11562653778E+04  0.00000000000E+00 0. -1.
         25    2    1    2    0    0  0.43241330981E+03 -0.18525961430E+03  0.12394759144E+01  0.48675324729E+03  0.12499916899E+03 0.  0.
          2    1    1    2  501    0 -0.37458990745E+03  0.15803904489E+03 -0.86737520761E+03  0.95793198571E+03  0.00000000000E+00 0. -1.
          1    1    1    2  502    0 -0.57823402368E+02  0.27220569412E+02  0.11935908838E+04  0.11953006748E+04  0.00000000000E+00 0. -1.
         22    1    3    3    0    0  0.32158124712E+03 -0.18690140411E+03 -0.25189668989E+02  0.37280176070E+03  0.00000000000E+00 0.  1.
         22    1    3    3    0    0  0.11083206269E+03  0.16417898099E+01  0.26429144904E+02  0.11395148658E+03  0.00000000000E+00 0.  1.
</event>
<event>
 7    1  0.6557591E-006  0.2502577E+02  0.7818608E-02  0.1678274E+00
          2   -1    0    0  502    0  0.00000000000E+00  0.00000000000E+00  0.11561594572E+04  0.11561594572E+04  0.00000000000E+00 0. -1.
          1   -1    0    0  501    0 -0.00000000000E+00 -0.00000000000E+00 -0.70078524103E+02  0.70078524103E+02  0.00000000000E+00 0. -1.
         25    2    1    2    0    0  0.21803587215E+02 -0.17598033928E+02  0.31309314950E+03  0.33828664724E+03  0.12500179289E+03 0.  0.
          2    1    1    2  501    0 -0.21421861906E+02 -0.75301745123E+01 -0.55041223087E+02  0.59541044118E+02  0.00000000000E+00 0. -1.
          1    1    1    2  502    0 -0.38172530897E+00  0.25128208440E+02  0.82802900671E+03  0.82841028997E+03  0.00000000000E+00 0. -1.
         22    1    3    3    0    0 -0.46769881106E+01  0.40200113966E+02  0.23066928508E+03  0.23419274638E+03  0.00000000000E+00 0. -1.
         22    1    3    3    0    0  0.26480575326E+02 -0.57798147893E+02  0.82423864424E+02  0.10409390086E+03  0.00000000000E+00 0. -1.
</event>
<event>
 7    1  0.6557591E-006  0.1097564E+03  0.7818608E-02  0.1278327E+00
          2   -1    0    0  502    0  0.00000000000E+00  0.00000000000E+00  0.39903163819E+03  0.39903163819E+03  0.00000000000E+00 0. -1.
          1   -1    0    0  501    0 -0.00000000000E+00 -0.00000000000E+00 -0.17398302734E+04  0.17398302734E+04  0.00000000000E+00 0. -1.
         25    2    1    2    0    0  0.86333383936E+01  0.57970978275E+02  0.11380283351E+03  0.17891740180E+03  0.12500073158E+03 0.  0.
          2    1    1    2  501    0 -0.10935359680E+03  0.93948800028E+01 -0.16908632374E+04  0.16944217186E+04  0.00000000000E+00 0. -1.
          1    1    1    2  502    0  0.10072025841E+03 -0.67365858278E+02  0.23626176866E+03  0.26552279120E+03  0.00000000000E+00 0. -1.
         22    1    3    3    0    0 -0.27916745854E+02  0.83377628218E+02  0.98047264962E+02  0.13169829062E+03  0.00000000000E+00 0. -1.
         22    1    3    3    0    0  0.36550084247E+02 -0.25406649943E+02  0.15755568550E+02  0.47219111175E+02  0.00000000000E+00 0. -1.
</event>
<event>
 7    1  0.6557591E-006  0.2691698E+02  0.7818608E-02  0.1671840E+00
          2   -1    0    0  502    0  0.00000000000E+00  0.00000000000E+00  0.48222045061E+02  0.48222045061E+02  0.00000000000E+00 0. -1.
          1   -1    0    0  501    0 -0.00000000000E+00 -0.00000000000E+00 -0.42100905276E+03  0.42100905276E+03  0.00000000000E+00 0. -1.
         25    2    1    2    0    0  0.36449927281E+02  0.16257872910E+02 -0.26077615675E+03  0.29192664986E+03  0.12499619729E+03 0.  0.
          2    1    1    2  501    0 -0.15205572482E+02 -0.21443859584E+02 -0.13962609775E+03  0.14207918821E+03  0.00000000000E+00 0. -1.
          1    1    1    2  502    0 -0.21244354800E+02  0.51859866742E+01  0.27615246806E+02  0.35225259755E+02  0.00000000000E+00 0. -1.
         22    1    3    3    0    0  0.18599619989E+02 -0.20574980575E+02 -0.24727709454E+03  0.24882772589E+03  0.00000000000E+00 0.  1.
         22    1    3    3    0    0  0.17850307292E+02  0.36832853485E+02 -0.13499062212E+02  0.43098923964E+02  0.00000000000E+00 0.  1.
</event>
<event>
 7    1  0.6557591E-006  0.1721809E+03  0.7818608E-02  0.1259923E+00
          2   -1    0    0  502    0  0.00000000000E+00  0.00000000000E+00  0.16727224070E+04  0.16727224070E+04  0.00000000000E+00 0. -1.
          1   -1    0    0  501    0 -0.00000000000E+00 -0.00000000000E+00 -0.51268045536E+03  0.51268045536E+03  0.00000000000E+00 0. -1.
         25    2    1    2    0    0 -0.54011585178E+02  0.22745081750E+03 -0.13336397320E+03  0.29675318078E+03  0.12500150097E+03 0.  0.
          2    1    1    2  501    0 -0.11850477959E+02 -0.69722974147E+02 -0.28875139603E+03  0.29728621842E+03  0.00000000000E+00 0. -1.
          1    1    1    2  502    0  0.65862063137E+02 -0.15772784335E+03  0.15821573209E+04  0.15913634632E+04  0.00000000000E+00 0. -1.
         22    1    3    3    0    0  0.28767659989E+02  0.14632598456E+03 -0.71739025100E+02  0.16548522514E+03  0.00000000000E+00 0.  1.
         22    1    3    3    0    0 -0.82779245168E+02  0.81124832939E+02 -0.61624948099E+02  0.13126795564E+03  0.00000000000E+00 0.  1.
</event>
<event>
 7    1  0.6557591E-006  0.3498913E+02  0.7818608E-02  0.1583859E+00
          2   -1    0    0  502    0  0.00000000000E+00  0.00000000000E+00  0.25896516209E+03  0.25896516209E+03  0.00000000000E+00 0. -1.
          1   -1    0    0  501    0 -0.00000000000E+00 -0.00000000000E+00 -0.17319037193E+03  0.17319037193E+03  0.00000000000E+00 0. -1.
         25    2    1    2    0    0  0.48150741791E+01 -0.59504454694E+01  0.52498740736E+02  0.13580607469E+03  0.12501431680E+03 0.  0.
          2    1    1    2  501    0 -0.23351402146E+02  0.27002401636E+02 -0.12788060412E+03  0.13276997622E+03  0.00000000000E+00 0. -1.
          1    1    1    2  502    0  0.18536327967E+02 -0.21051956167E+02  0.16115665354E+03  0.16357948311E+03  0.00000000000E+00 0. -1.
         22    1    3    3    0    0  0.53184100633E+02 -0.12109885821E+02  0.65602486758E+02  0.85316376878E+02  0.00000000000E+00 0.  1.
         22    1    3    3    0    0 -0.48369026454E+02  0.61594403519E+01 -0.13103746022E+02  0.50489697814E+02  0.00000000000E+00 0.  1.
</event>
<event>
 7    1  0.6557591E-006  0.7499687E+02  0.7818608E-02  0.1354465E+00
          2   -1    0    0  502    0  0.00000000000E+00  0.00000000000E+00  0.71114704322E+03  0.71114704322E+03  0.00000000000E+00 0. -1.
          1   -1    0    0  501    0 -0.00000000000E+00 -0.00000000000E+00 -0.12959809466E+04  0.12959809466E+04  0.00000000000E+00 0. -1.
         25    2    1    2    0    0 -0.47521632438E+02 -0.60211253443E+02  0.20415024641E+03  0.25137040330E+03  0.12500422374E+03 0.  0.
          2    1    1    2  501    0  0.66661187812E+02 -0.15823529813E+02 -0.12682606991E+04  0.12701099555E+04  0.00000000000E+00 0. -1.
          1    1    1    2  502    0 -0.19139555374E+02  0.76034783256E+02  0.47927654931E+03  0.48564763107E+03  0.00000000000E+00 0. -1.
         22    1    3    3    0    0  0.11464426023E+02  0.36599222098E+01 -0.12847524868E+02  0.17603607297E+02  0.00000000000E+00 0.  1.
         22    1    3    3    0    0 -0.58986058461E+02 -0.63871175652E+02  0.21699777128E+03  0.23376679600E+03  0.00000000000E+00 0.  1.
</event>
<event>
 7    1  0.6557591E-006  0.1434069E+03  0.7818608E-02  0.1300339E+00
          2   -1    0    0  502    0  0.00000000000E+00  0.00000000000E+00  0.46610772098E+03  0.46610772098E+03  0.00000000000E+00 0. -1.
          1   -1    0    0  501    0 -0.00000000000E+00 -0.00000000000E+00 -0.34942908072E+03  0.34942908072E+03  0.00000000000E+00 0. -1.
         25    2    1    2    0    0  0.20191184949E+02 -0.12000011565E+03 -0.37635401385E+02  0.17846367411E+03  0.12500059133E+03 0.  0.
          2    1    1    2  501    0 -0.52766713702E+02 -0.23597322975E+02 -0.22388218161E+03  0.23122368168E+03  0.00000000000E+00 0. -1.
          1    1    1    2  502    0  0.32575528753E+02  0.14359743862E+03  0.37819622326E+03  0.40584944591E+03  0.00000000000E+00 0. -1.
         22    1    3    3    0    0  0.40703345929E+02 -0.70357201655E+02  0.34688519826E+02  0.88375288414E+02  0.00000000000E+00 0. -1.
         22    1    3    3    0    0 -0.20512160980E+02 -0.49642913991E+02 -0.72323921211E+02  0.90088385694E+02  0.00000000000E+00 0. -1.
</event>
<event>
 7    1  0.6557591E-006  0.1081060E+03  0.7818608E-02  0.1301304E+00
          2   -1    0    0  502    0  0.00000000000E+00  0.00000000000E+00  0.24032805440E+04  0.24032805440E+04  0.00000000000E+00 0. -1.
          1   -1    0    0  501    0 -0.00000000000E+00 -0.00000000000E+00 -0.10837562289E+03  0.10837562289E+03  0.00000000000E+00 0. -1.
         25    2    1    2    0    0  0.51256001490E+02 -0.17043290285E+03  0.55768814824E+03  0.59859427638E+03  0.12499793986E+03 0.  0.
          2    1    1    2  501    0 -0.31338904503E+02  0.69237117277E+02 -0.69749424861E+02  0.10315467809E+03  0.00000000000E+00 0. -1.
          1    1    1    2  502    0 -0.19917096987E+02  0.10119578557E+03  0.18069661978E+04  0.18099072124E+04  0.00000000000E+00 0. -1.
         22    1    3    3    0    0  0.71408278127E+02 -0.12900432155E+03  0.27367212189E+03  0.31086602816E+03  0.00000000000E+00 0. -1.
         22    1    3    3    0    0 -0.20152276637E+02 -0.41428581295E+02  0.28401602635E+03  0.28772824822E+03  0.00000000000E+00 0. -1.
</event>
<event>
 7    1  0.6557591E-006  0.9213566E+02  0.7818608E-02  0.1387505E+00
          2   -1    0    0  502    0  0.00000000000E+00  0.00000000000E+00  0.39990897053E+02  0.39990897053E+02  0.00000000000E+00 0. -1.
          1   -1    0    0  501    0 -0.00000000000E+00 -0.00000000000E+00 -0.13637187687E+04  0.13637187687E+04  0.00000000000E+00 0. -1.
         25    2    1    2    0    0 -0.29230708760E+02  0.53429592734E+02 -0.46181421495E+03  0.48229345281E+03  0.12500179911E+03 0.  0.
          2    1    1    2  501    0  0.62663883750E+02 -0.79570110221E+02 -0.87194477682E+03  0.87780741544E+03  0.00000000000E+00 0. -1.
          1    1    1    2  502    0 -0.33433174991E+02  0.26140517487E+02  0.10031120167E+02  0.43608797464E+02  0.00000000000E+00 0. -1.
         22    1    3    3    0    0  0.30597146819E+02  0.35944478852E+02 -0.63452271843E+02  0.79084649303E+02  0.00000000000E+00 0.  1.
         22    1    3    3    0    0 -0.59827855579E+02  0.17485113882E+02 -0.39836194311E+03  0.40320880351E+03  0.00000000000E+00 0.  1.
</event>
<event>
 7    1  0.6557591E-006  0.7822120E+02  0.7818608E-02  0.1449627E+00
          2   -1    0    0  502    0  0.00000000000E+00  0.00000000000E+00  0.10420707126E+04  0.10420707126E+04  0.00000000000E+00 0. -1.
          1   -1    0    0  501    0 -0.00000000000E+00 -0.00000000000E+00 -0.11284539711E+03  0.11284539711E+03  0.00000000000E+00 0. -1.
         25    2    1    2    0    0  0.62417969383E+01  0.63989718484E+02  0.32427550370E+03  0.35343067305E+03  0.12499997700E+03 0.  0.
          2    1    1    2  501    0 -0.36593700554E+02 -0.70115342701E+02 -0.81948554262E+02  0.11388953309E+03  0.00000000000E+00 0. -1.
          1    1    1    2  502    0  0.30351903616E+02  0.61256242174E+01  0.68689836603E+03  0.68759590355E+03  0.00000000000E+00 0. -1.
         22    1    3    3    0    0  0.65437229212E+02  0.28230599133E+02  0.15667147701E+03  0.17211899780E+03  0.00000000000E+00 0. -1.
         22    1    3    3    0    0 -0.59195432274E+02  0.35759119351E+02  0.16760402669E+03  0.18131167525E+03  0.00000000000E+00 0. -1.
</event>
<event>
 7    1  0.7235608E-006  0.5404389E+02  0.7818608E-02  0.1526422E+00
          2   -1    0    0  502    0  0.00000000000E+00  0.00000000000E+00  0.11298278332E+04  0.11298278332E+04  0.00000000000E+00 0. -1.
          1   -1    0    0  501    0 -0.00000000000E+00 -0.00000000000E+00 -0.17286782804E+04  0.17286782804E+04  0.00000000000E+00 0. -1.
         25    2    1    2    0    0  0.26079628643E+02 -0.11615996966E+02 -0.33819928416E+03  0.36168844800E+03  0.12499879675E+03 0.  0.
          2    1    1    2  501    0  0.26045516879E+02 -0.28383785689E+01 -0.13779555802E+04  0.13782046315E+04  0.00000000000E+00 0. -1.
          1    1    1    2  502    0 -0.52125145522E+02  0.14454375535E+02  0.11173044171E+04  0.11186130342E+04  0.00000000000E+00 0. -1.
         22    1    3    3    0    0  0.70380227926E+02  0.19939041789E+02 -0.21207917608E+03  0.22434018543E+03  0.00000000000E+00 0.  1.
         22    1    3    3    0    0 -0.44300599283E+02 -0.31555038755E+02 -0.12612010808E+03  0.13734826257E+03  0.00000000000E+00 0.  1.
</event>
<event>
 7    1  0.6557591E-006  0.1318617E+03  0.7818608E-02  0.1335293E+00
          2   -1    0    0  502    0  0.00000000000E+00  0.00000000000E+00  0.15375521881E+04  0.15375521881E+04  0.00000000000E+00 0. -1.
          1   -1    0    0  501    0 -0.00000000000E+00 -0.00000000000E+00 -0.13537871174E+03  0.13537871174E+03  0.00000000000E+00 0. -1.
         25    2    1    2    0    0 -0.76432739011E+02  0.13849081008E+03  0.87342948052E+03  0.89639592472E+03  0.12499971338E+03 0.  0.
          2    1    1    2  501    0  0.38811854293E+02 -0.24599800993E+02 -0.11388624425E+03  0.12280711247E+03  0.00000000000E+00 0. -1.
          1    1    1    2  502    0  0.37620884717E+02 -0.11389100909E+03  0.64263024005E+03  0.65372786260E+03  0.00000000000E+00 0. -1.
         22    1    3    3    0    0 -0.68642879811E+02  0.99579469828E+01  0.23101859813E+03  0.24120654705E+03  0.00000000000E+00 0. -1.
         22    1    3    3    0    0 -0.77898591997E+01  0.12853286310E+03  0.64241088239E+03  0.65518937767E+03  0.00000000000E+00 0. -1.
</event>
<event>
 7    1  0.6557591E-006  0.1424875E+03  0.7818608E-02  0.1300327E+00
          2   -1    0    0  502    0  0.00000000000E+00  0.00000000000E+00  0.22843037110E+03  0.22843037110E+03  0.00000000000E+00 0. -1.
          1   -1    0    0  501    0 -0.00000000000E+00 -0.00000000000E+00 -0.15933535377E+04  0.15933535377E+04  0.00000000000E+00 0. -1.
         25    2    1    2    0    0 -0.92144070214E+02 -0.89844797863E+01 -0.29571719452E+03  0.33413254206E+03  0.12499858389E+03 0.  0.
          2    1    1    2  501    0 -0.54005277568E+02  0.21647274010E+02 -0.12519555512E+04  0.12533067768E+04  0.00000000000E+00 0. -1.
          1    1    1    2  502    0  0.14614934778E+03 -0.12662794224E+02  0.18274957909E+03  0.23434459002E+03  0.00000000000E+00 0. -1.
         22    1    3    3    0    0 -0.84812748236E+02  0.23232006160E+02 -0.28670148672E+03  0.29988442918E+03  0.00000000000E+00 0. -1.
         22    1    3    3    0    0 -0.73313219776E+01 -0.32216485946E+02 -0.90157077957E+01  0.34248112878E+02  0.00000000000E+00 0. -1.
</event>
<event>
 7    1  0.6557591E-006  0.1856046E+03  0.7818608E-02  0.1188483E+00
          2   -1    0    0  502    0  0.00000000000E+00  0.00000000000E+00  0.24005116649E+04  0.24005116649E+04  0.00000000000E+00 0. -1.
          1   -1    0    0  501    0 -0.00000000000E+00 -0.00000000000E+00 -0.12290470709E+03  0.12290470709E+03  0.00000000000E+00 0. -1.
         25    2    1    2    0    0 -0.15438296344E+03  0.91547160856E+02  0.72270074161E+03  0.75507359205E+03  0.12499914168E+03 0.  0.
          2    1    1    2  501    0 -0.43340978318E+02 -0.13128609917E+03 -0.52831084142E+02  0.14800541777E+03  0.00000000000E+00 0. -1.
          1    1    1    2  502    0  0.19772394176E+03  0.39738938314E+02  0.16077373003E+04  0.16203373621E+04  0.00000000000E+00 0. -1.
         22    1    3    3    0    0  0.28607874347E+01  0.19385667114E+02  0.26567026078E+03  0.26639195869E+03  0.00000000000E+00 0. -1.
         22    1    3    3    0    0 -0.15724375087E+03  0.72161493742E+02  0.45703048083E+03  0.48868163335E+03  0.00000000000E+00 0. -1.
</event>
<event>
 7    1  0.6557591E-006  0.1269037E+03  0.7818608E-02  0.1263915E+00
          2   -1    0    0  502    0  0.00000000000E+00  0.00000000000E+00  0.40034349057E+03  0.40034349057E+03  0.00000000000E+00 0. -1.
          1   -1    0    0  501    0 -0.00000000000E+00 -0.00000000000E+00 -0.35458441697E+04  0.35458441697E+04  0.00000000000E+00 0. -1.
         25    2    1    2    0    0 -0.26798147495E+02 -0.36409206150E+02 -0.13767436957E+03  0.19137348083E+03  0.12500322446E+03 0.  0.
          2    1    1    2  501    0  0.11554899572E+03  0.61668727613E+02 -0.33743309122E+04  0.33768718820E+04  0.00000000000E+00 0. -1.
          1    1    1    2  502    0 -0.88750848226E+02 -0.25259521463E+02  0.36650460261E+03  0.37794229747E+03  0.00000000000E+00 0. -1.
         22    1    3    3    0    0 -0.16835626365E+02  0.46482435688E+02 -0.50780012347E+02  0.70870761225E+02  0.00000000000E+00 0. -1.
         22    1    3    3    0    0 -0.99625211295E+01 -0.82891641838E+02 -0.86894357224E+02  0.12050271960E+03  0.00000000000E+00 0. -1.
</event>
<event>
 7    1  0.6557591E-006  0.6052904E+02  0.7818608E-02  0.1447751E+00
          2   -1    0    0  502    0  0.00000000000E+00  0.00000000000E+00  0.14002892951E+04  0.14002892951E+04  0.00000000000E+00 0. -1.
          1   -1    0    0  501    0 -0.00000000000E+00 -0.00000000000E+00 -0.75380014399E+03  0.75380014399E+03  0.00000000000E+00 0. -1.
         25    2    1    2    0    0  0.90334180338E+01 -0.10041724318E+03  0.38852773903E+03  0.42040784706E+03  0.12499491391E+03 0.  0.
          2    1    1    2  501    0 -0.81431139976E+01  0.59854741781E+02 -0.73620931649E+03  0.73868332735E+03  0.00000000000E+00 0. -1.
          1    1    1    2  502    0 -0.89030403626E+00  0.40562501401E+02  0.99417072855E+03  0.99499826465E+03  0.00000000000E+00 0. -1.
         22    1    3    3    0    0 -0.15941563099E+02 -0.30297696974E+02  0.11519360317E+02  0.36121732213E+02  0.00000000000E+00 0.  1.
         22    1    3    3    0    0  0.24974981132E+02 -0.70119546208E+02  0.37700837872E+03  0.38428611485E+03  0.00000000000E+00 0.  1.
</event>
<event>
 7    1  0.6557591E-006  0.7311982E+02  0.7818608E-02  0.1386225E+00
          2   -1    0    0  502    0  0.00000000000E+00  0.00000000000E+00  0.71234635245E+03  0.71234635245E+03  0.00000000000E+00 0. -1.
          1   -1    0    0  501    0 -0.00000000000E+00 -0.00000000000E+00 -0.15859383605E+04  0.15859383605E+04  0.00000000000E+00 0. -1.
         25    2    1    2    0    0  0.28454048036E+02 -0.23929773685E+02 -0.13586047441E+02  0.13111713080E+03  0.12499941755E+03 0.  0.
          2    1    1    2  501    0  0.45874444363E+02  0.28547794841E+02 -0.15109809100E+04  0.15119466762E+04  0.00000000000E+00 0. -1.
          1    1    1    2  502    0 -0.74328492398E+02 -0.46180211562E+01  0.65097494938E+03  0.65522090597E+03  0.00000000000E+00 0. -1.
         22    1    3    3    0    0 -0.27354507775E+02 -0.55359726583E+02  0.10600167083E+02  0.62652469745E+02  0.00000000000E+00 0.  1.
         22    1    3    3    0    0  0.55808555811E+02  0.31429952898E+02 -0.24186214524E+02  0.68464661059E+02  0.00000000000E+00 0.  1.
</event>
<event>
 7    1  0.6557591E-006  0.1033739E+03  0.7818608E-02  0.1308210E+00
          2   -1    0    0  502    0  0.00000000000E+00  0.00000000000E+00  0.40951592482E+03  0.40951592482E+03  0.00000000000E+00 0. -1.
          1   -1    0    0  501    0 -0.00000000000E+00 -0.00000000000E+00 -0.37183978662E+03  0.37183978662E+03  0.00000000000E+00 0. -1.
         25    2    1    2    0    0 -0.19493827870E+02 -0.58199874744E+02  0.64233293714E+02  0.15334335100E+03  0.12498412911E+03 0.  0.
          2    1    1    2  501    0  0.51504103326E+02 -0.53984543221E+02 -0.31139522728E+03  0.32020929272E+03  0.00000000000E+00 0. -1.
          1    1    1    2  502    0 -0.32010275455E+02  0.11218441797E+03  0.28483807177E+03  0.30780306772E+03  0.00000000000E+00 0. -1.
         22    1    3    3    0    0  0.25669077109E+02 -0.79642489337E+02  0.60406082488E+02  0.10320233732E+03  0.00000000000E+00 0. -1.
         22    1    3    3    0    0 -0.45162904980E+02  0.21442614593E+02  0.38272112264E+01  0.50141013677E+02  0.00000000000E+00 0. -1.
</event>
<event>
 7    1  0.6557591E-006  0.7499637E+02  0.7818608E-02  0.1404419E+00
          2   -1    0    0  502    0  0.00000000000E+00  0.00000000000E+00  0.33115122108E+04  0.33115122108E+04  0.00000000000E+00 0. -1.
          1   -1    0    0  501    0 -0.00000000000E+00 -0.00000000000E+00 -0.63842973587E+03  0.63842973587E+03  0.00000000000E+00 0. -1.
         25    2    1    2    0    0  0.47727422221E+02 -0.49244345027E+02  0.48337297281E+02  0.15054679842E+03  0.12499972743E+03 0.  0.
          2    1    1    2  501    0 -0.37911804354E+02 -0.25279213551E+02 -0.58600063212E+03  0.58776958444E+03  0.00000000000E+00 0. -1.
          1    1    1    2  502    0 -0.98156178673E+01  0.74523558577E+02  0.32107458097E+04  0.32116255638E+04  0.00000000000E+00 0. -1.
         22    1    3    3    0    0  0.13536873696E+02  0.22696901041E+02 -0.29202429193E+02  0.39384998884E+02  0.00000000000E+00 0. -1.
         22    1    3    3    0    0  0.34190548525E+02 -0.71941246068E+02  0.77539726474E+02  0.11116179954E+03  0.00000000000E+00 0. -1.
</event>
<event>
 7    1  0.6557591E-006  0.3835947E+02  0.7818608E-02  0.1569920E+00
          2   -1    0    0  502    0  0.00000000000E+00  0.00000000000E+00  0.17862144692E+04  0.17862144692E+04  0.00000000000E+00 0. -1.
          1   -1    0    0  501    0 -0.00000000000E+00 -0.00000000000E+00 -0.15147077195E+03  0.15147077195E+03  0.00000000000E+00 0. -1.
         25    2    1    2    0    0 -0.30171875060E+02  0.57097016072E+02  0.22431108455E+03  0.26478380102E+03  0.12499834936E+03 0.  0.
          2    1    1    2  501    0  0.23395376486E+02 -0.30038217101E+02 -0.12834380289E+03  0.13387221470E+03  0.00000000000E+00 0. -1.
          1    1    1    2  502    0  0.67764985734E+01 -0.27058798971E+02  0.15387764156E+04  0.15390292254E+04  0.00000000000E+00 0. -1.
         22    1    3    3    0    0  0.14087270173E+02  0.78055593198E+02  0.81131528711E+02  0.11346123462E+03  0.00000000000E+00 0.  1.
         22    1    3    3    0    0 -0.44259145233E+02 -0.20958577126E+02  0.14317955584E+03  0.15132256640E+03  0.00000000000E+00 0.  1.
</event>
<event>
 7    1  0.6557591E-006  0.1058012E+03  0.7818608E-02  0.1369697E+00
          2   -1    0    0  502    0  0.00000000000E+00  0.00000000000E+00  0.35554976704E+03  0.35554976704E+03  0.00000000000E+00 0. -1.
          1   -1    0    0  501    0 -0.00000000000E+00 -0.00000000000E+00 -0.67476191118E+03  0.67476191118E+03  0.00000000000E+00 0. -1.
         25    2    1    2    0    0  0.48894423501E+02 -0.89939731986E+02 -0.10449343929E+03  0.19241392342E+03  0.12499767611E+03 0.  0.
          2    1    1    2  501    0  0.35080812143E+02  0.24427822479E+02 -0.51629757899E+03  0.51806425466E+03  0.00000000000E+00 0. -1.
          1    1    1    2  502    0 -0.83975235644E+02  0.65511909507E+02  0.30157887414E+03  0.31983350014E+03  0.00000000000E+00 0. -1.
         22    1    3    3    0    0  0.54219334542E+02  0.32262433963E+00 -0.83548994348E+02  0.99600576209E+02  0.00000000000E+00 0.  1.
         22    1    3    3    0    0 -0.53249110412E+01 -0.90262356325E+02 -0.20944444942E+02  0.92813347213E+02  0.00000000000E+00 0.  1.
</event>
<event>
 7    1  0.6557591E-006  0.9650225E+02  0.7818608E-02  0.1379516E+00
          2   -1    0    0  502    0  0.00000000000E+00  0.00000000000E+00  0.17414404670E+04  0.17414404670E+04  0.00000000000E+00 0. -1.
          1   -1    0    0  501    0 -0.00000000000E+00 -0.00000000000E+00 -0.12252238662E+03  0.12252238662E+03  0.00000000000E+00 0. -1.
         25    2    1    2    0    0  0.23210698311E+02  0.12049365463E+03  0.13676130503E+03  0.22223131678E+03  0.12500258511E+03 0.  0.
          2    1    1    2  501    0  0.98779198652E+01 -0.92669726688E+02 -0.52164918587E+02  0.10680089080E+03  0.00000000000E+00 0. -1.
          1    1    1    2  502    0 -0.33088618176E+02 -0.27823927939E+02  0.15343216939E+04  0.15349306460E+04  0.00000000000E+00 0. -1.
         22    1    3    3    0    0  0.39799480152E+02  0.12084597992E+03  0.15301734500E+03  0.19900265665E+03  0.00000000000E+00 0. -1.
         22    1    3    3    0    0 -0.16588781841E+02 -0.35232528923E+00 -0.16256039970E+02  0.23228660133E+02  0.00000000000E+00 0. -1.
</event>
<event>
 7    1  0.6557591E-006  0.7457450E+02  0.7818608E-02  0.1489387E+00
          2   -1    0    0  502    0  0.00000000000E+00  0.00000000000E+00  0.36858594376E+03  0.36858594376E+03  0.00000000000E+00 0. -1.
          1   -1    0    0  501    0 -0.00000000000E+00 -0.00000000000E+00 -0.80945550600E+03  0.80945550600E+03  0.00000000000E+00 0. -1.
         25    2    1    2    0    0  0.19153481148E+02  0.82233970062E+02 -0.20772092438E+03  0.25671475853E+03  0.12500081260E+03 0.  0.
          2    1    1    2  501    0 -0.23117120787E+02 -0.78793832626E+01 -0.57294620720E+03  0.57346651366E+03  0.00000000000E+00 0. -1.
          1    1    1    2  502    0  0.39636396394E+01 -0.74354586800E+02  0.33979756933E+03  0.34786017757E+03  0.00000000000E+00 0. -1.
         22    1    3    3    0    0 -0.36932781842E+02  0.45681552301E+02 -0.17002174365E+03  0.17988392899E+03  0.00000000000E+00 0. -1.
         22    1    3    3    0    0  0.56086262990E+02  0.36552417761E+02 -0.37699180728E+02  0.76830829540E+02  0.00000000000E+00 0. -1.
</event>
<event>
 7    1  0.6557591E-006  0.8064245E+02  0.7818608E-02  0.1434415E+00
          2   -1    0    0  502    0  0.00000000000E+00  0.00000000000E+00  0.14601304023E+04  0.14601304023E+04  0.00000000000E+00 0. -1.
          1   -1    0    0  501    0 -0.00000000000E+00 -0.00000000000E+00 -0.13765783517E+03  0.13765783517E+03  0.00000000000E+00 0. -1.
         25    2    1    2    0    0  0.30887446699E+02  0.67832469347E+02 -0.20212256011E+02  0.14693704190E+03  0.12500672273E+03 0.  0.
          2    1    1    2  501    0 -0.31029873815E+02  0.12989357525E+02 -0.47562780836E+02  0.58256283770E+02  0.00000000000E+00 0. -1.
          1    1    1    2  502    0  0.14242711599E+00 -0.80821826872E+02  0.13902476040E+04  0.13925949118E+04  0.00000000000E+00 0. -1.
         22    1    3    3    0    0  0.15247676512E+02  0.48064539020E+02  0.50803830948E+02  0.71580170363E+02  0.00000000000E+00 0. -1.
         22    1    3    3    0    0  0.15639770188E+02  0.19767930327E+02 -0.71016086959E+02  0.75356871538E+02  0.00000000000E+00 0. -1.
</event>
<event>
 7    1  0.6557591E-006  0.7775285E+02  0.7818608E-02  0.1452409E+00
          2   -1    0    0  502    0  0.00000000000E+00  0.00000000000E+00  0.11392669258E+03  0.11392669258E+03  0.00000000000E+00 0. -1.
          1   -1    0    0  501    0 -0.00000000000E+00 -0.00000000000E+00 -0.92354869035E+03  0.92354869035E+03  0.00000000000E+00 0. -1.
         25    2    1    2    0    0 -0.59565470719E+02  0.10655452744E+02 -0.48563851806E+03  0.50510417289E+03  0.12499548499E+03 0.  0.
          2    1    1    2  501    0 -0.17492076064E+02 -0.25009082163E+02 -0.41279238584E+03  0.41391905093E+03  0.00000000000E+00 0. -1.
          1    1    1    2  502    0  0.77057546783E+02  0.14353629420E+02  0.88808906121E+02  0.11845215912E+03  0.00000000000E+00 0. -1.
         22    1    3    3    0    0 -0.27953231325E+00  0.59317330198E+02 -0.16250894653E+03  0.17299647830E+03  0.00000000000E+00 0.  1.
         22    1    3    3    0    0 -0.59285938406E+02 -0.48661877455E+02 -0.32312957153E+03  0.33210769459E+03  0.00000000000E+00 0.  1.
</event>
<event>
 7    1  0.6557591E-006  0.1035622E+03  0.7818608E-02  0.1308503E+00
          2   -1    0    0  502    0  0.00000000000E+00  0.00000000000E+00  0.77960760662E+03  0.77960760662E+03  0.00000000000E+00 0. -1.
          1   -1    0    0  501    0 -0.00000000000E+00 -0.00000000000E+00 -0.21331533156E+04  0.21331533156E+04  0.00000000000E+00 0. -1.
         25    2    1    2    0    0 -0.15835664273E+03 -0.76755420529E+02 -0.66300674746E+02  0.22580626363E+03  0.12499787337E+03 0.  0.
          2    1    1    2  501    0  0.66148789829E+02  0.33786977492E+02 -0.19827040580E+04  0.19840949080E+04  0.00000000000E+00 0. -1.
          1    1    1    2  502    0  0.92207852901E+02  0.42968443037E+02  0.69545902378E+03  0.70285975059E+03  0.00000000000E+00 0. -1.
         22    1    3    3    0    0 -0.14853534444E+03 -0.12611103125E+02 -0.32230702616E+02  0.15251428347E+03  0.00000000000E+00 0. -1.
         22    1    3    3    0    0 -0.98212982883E+01 -0.64144317404E+02 -0.34069972130E+02  0.73291980163E+02  0.00000000000E+00 0. -1.
</event>
<event>
 7    1  0.6557591E-006  0.9973571E+02  0.7818608E-02  0.1447876E+00
          2   -1    0    0  502    0  0.00000000000E+00  0.00000000000E+00  0.47530710448E+03  0.47530710448E+03  0.00000000000E+00 0. -1.
          1   -1    0    0  501    0 -0.00000000000E+00 -0.00000000000E+00 -0.62716712242E+03  0.62716712242E+03  0.00000000000E+00 0. -1.
         25    2    1    2    0    0 -0.86987783488E+02  0.47542127966E+02  0.36345124126E+02  0.16362233077E+03  0.12499668264E+03 0.  0.
          2    1    1    2  501    0 -0.99183140987E+01 -0.22512386406E+02 -0.55657955528E+03  0.55712295039E+03  0.00000000000E+00 0. -1.
          1    1    1    2  502    0  0.96906097587E+02 -0.25029741560E+02  0.36837441322E+03  0.38172894575E+03  0.00000000000E+00 0. -1.
         22    1    3    3    0    0  0.21811767227E+02 -0.83684474662E+01 -0.18271405896E+02  0.29658529565E+02  0.00000000000E+00 0.  1.
         22    1    3    3    0    0 -0.10879955072E+03  0.55910575432E+02  0.54616530021E+02  0.13396380120E+03  0.00000000000E+00 0.  1.
</event>
<event>
 7    1  0.6557591E-006  0.4813271E+02  0.7818608E-02  0.1484126E+00
          2   -1    0    0  502    0  0.00000000000E+00  0.00000000000E+00  0.22310870494E+03  0.22310870494E+03  0.00000000000E+00 0. -1.
          1   -1    0    0  501    0 -0.00000000000E+00 -0.00000000000E+00 -0.97795615496E+03  0.97795615496E+03  0.00000000000E+00 0. -1.
         25    2    1    2    0    0 -0.76397389613E+02 -0.33869795877E+02 -0.91977036236E+01  0.15064637306E+03  0.12500403095E+03 0.  0.
          2    1    1    2  501    0  0.47231123654E+02  0.75907320151E+01 -0.89485603353E+03  0.89613376178E+03  0.00000000000E+00 0. -1.
          1    1    1    2  502    0  0.29166265959E+02  0.26279063862E+02  0.14920628713E+03  0.15428472506E+03  0.00000000000E+00 0. -1.
         22    1    3    3    0    0  0.21546876619E+02  0.17080630932E+02 -0.27324858915E+02  0.38764207199E+02  0.00000000000E+00 0. -1.
         22    1    3    3    0    0 -0.97944266232E+02 -0.50950426809E+02  0.18127155291E+02  0.11188216587E+03  0.00000000000E+00 0. -1.
</event>
<event>
 7    1  0.6557591E-006  0.4376215E+02  0.7818608E-02  0.1506559E+00
          2   -1    0    0  502    0  0.00000000000E+00  0.00000000000E+00  0.16278940782E+03  0.16278940782E+03  0.00000000000E+00 0. -1.
          1   -1    0    0  501    0 -0.00000000000E+00 -0.00000000000E+00 -0.31000932177E+03  0.31000932177E+03  0.00000000000E+00 0. -1.
         25    2    1    2    0    0 -0.61867110977E+02 -0.41817298080E+02 -0.19973181953E+03  0.24718520926E+03  0.12502600572E+03 0.  0.
          2    1    1    2  501    0  0.29073306450E+02  0.24738704881E+02 -0.79677612470E+02  0.88350340102E+02  0.00000000000E+00 0. -1.
          1    1    1    2  502    0  0.32793804527E+02  0.17078593199E+02  0.13218951806E+03  0.13726318023E+03  0.00000000000E+00 0. -1.
         22    1    3    3    0    0 -0.29447818030E+02 -0.73985508385E+02 -0.18114907421E+03  0.19787879251E+03  0.00000000000E+00 0. -1.
         22    1    3    3    0    0 -0.32419292947E+02  0.32168210305E+02 -0.18582745322E+02  0.49306416754E+02  0.00000000000E+00 0. -1.
</event>
<event>
 7    1  0.6557591E-006  0.2130450E+03  0.7818608E-02  0.1310462E+00
          2   -1    0    0  502    0  0.00000000000E+00  0.00000000000E+00  0.77435252943E+03  0.77435252943E+03  0.00000000000E+00 0. -1.
          1   -1    0    0  501    0 -0.00000000000E+00 -0.00000000000E+00 -0.97466399590E+03  0.97466399590E+03  0.00000000000E+00 0. -1.
         25    2    1    2    0    0  0.60919659246E+02 -0.22893762750E+03 -0.29700838533E+02  0.26950089677E+03  0.12499980553E+03 0.  0.
          2    1    1    2  501    0 -0.28620530157E+02  0.20952683405E+02 -0.80774092863E+03  0.80851936122E+03  0.00000000000E+00 0. -1.
          1    1    1    2  502    0 -0.32299129089E+02  0.20798494410E+03  0.63713030070E+03  0.67099626733E+03  0.00000000000E+00 0. -1.
         22    1    3    3    0    0  0.38874594687E+02 -0.49786807493E+01 -0.20598676263E+02  0.44275578346E+02  0.00000000000E+00 0. -1.
         22    1    3    3    0    0  0.22045064559E+02 -0.22395894675E+03 -0.91021622695E+01  0.22522531843E+03  0.00000000000E+00 0. -1.
</event>
<event>
 7    1  0.6557591E-006  0.5116096E+02  0.7818608E-02  0.1529121E+00
          2   -1    0    0  502    0  0.00000000000E+00  0.00000000000E+00  0.14232364130E+04  0.14232364130E+04  0.00000000000E+00 0. -1.
          1   -1    0    0  501    0 -0.00000000000E+00 -0.00000000000E+00 -0.40661626875E+02  0.40661626875E+02  0.00000000000E+00 0. -1.
         25    2    1    2    0    0 -0.61647945124E+02 -0.27265015865E+02  0.48848465959E+03  0.50870960994E+03  0.12499741743E+03 0.  0.
          2    1    1    2  501    0  0.11382362240E+02  0.24688688699E+02 -0.23671564642E+02  0.36047641982E+02  0.00000000000E+00 0. -1.
          1    1    1    2  502    0  0.50265582884E+02  0.25763271664E+01  0.91776169120E+03  0.91914078798E+03  0.00000000000E+00 0. -1.
         22    1    3    3    0    0 -0.41798674381E+02  0.46209410014E+02  0.16449461509E+03  0.17590030457E+03  0.00000000000E+00 0. -1.
         22    1    3    3    0    0 -0.19849270743E+02 -0.73474425879E+02  0.32399004451E+03  0.33280930538E+03  0.00000000000E+00 0. -1.
</event>
<event>
 7    1  0.6557591E-006  0.5172433E+02  0.7818608E-02  0.1440965E+00
          2   -1    0    0  502    0  0.00000000000E+00  0.00000000000E+00  0.21256798883E+03  0.21256798883E+03  0.00000000000E+00 0. -1.
          1   -1    0    0  501    0 -0.00000000000E+00 -0.00000000000E+00 -0.16499663947E+03  0.16499663947E+03  0.00000000000E+00 0. -1.
         25    2    1    2    0    0  0.42990524582E+02  0.26856065692E+02  0.33636568756E+02  0.13901534778E+03  0.12499765875E+03 0.  0.
          2    1    1    2  501    0 -0.41731810739E+02  0.27417649944E+02 -0.10031613446E+03  0.11205622869E+03  0.00000000000E+00 0. -1.
          1    1    1    2  502    0 -0.12587138429E+01 -0.54273715636E+02  0.11425091505E+03  0.12649305183E+03  0.00000000000E+00 0. -1.
         22    1    3    3    0    0  0.53448811256E+02  0.39103461008E+02  0.71748273602E+02  0.97640518497E+02  0.00000000000E+00 0.  1.
         22    1    3    3    0    0 -0.10458286674E+02 -0.12247395316E+02 -0.38111704846E+02  0.41374829286E+02  0.00000000000E+00 0.  1.
</event>
<event>
 7    1  0.6557591E-006  0.1758000E+03  0.7818608E-02  0.1342237E+00
          2   -1    0    0  502    0  0.00000000000E+00  0.00000000000E+00  0.33489253285E+03  0.33489253285E+03  0.00000000000E+00 0. -1.
          1   -1    0    0  501    0 -0.00000000000E+00 -0.00000000000E+00 -0.67449779071E+03  0.67449779071E+03  0.00000000000E+00 0. -1.
         25    2    1    2    0    0 -0.17504129965E+03 -0.85012051677E+02 -0.52126096163E+02  0.23708388258E+03  0.12500052786E+03 0.  0.
          2    1    1    2  501    0  0.11915540654E+02  0.30183808604E+02 -0.49875595499E+03  0.49981050914E+03  0.00000000000E+00 0. -1.
          1    1    1    2  502    0  0.16312575899E+03  0.54828243073E+02  0.21127679330E+03  0.27249593184E+03  0.00000000000E+00 0. -1.
         22    1    3    3    0    0 -0.21003317960E+02  0.64191034439E+01 -0.53625053701E+02  0.57948172005E+02  0.00000000000E+00 0. -1.
         22    1    3    3    0    0 -0.15403798168E+03 -0.91431155121E+02  0.14989575375E+01  0.17913571057E+03  0.00000000000E+00 0. -1.
</event>
<event>
 7    1  0.6557591E-006  0.9160100E+02  0.7818608E-02  0.1321710E+00
          2   -1    0    0  502    0  0.00000000000E+00  0.00000000000E+00  0.19526618622E+04  0.19526618622E+04  0.00000000000E+00 0. -1.
          1   -1    0    0  501    0 -0.00000000000E+00 -0.00000000000E+00 -0.33650644109E+03  0.33650644109E+03  0.00000000000E+00 0. -1.
         25    2    1    2    0    0 -0.23399543585E+02  0.58729832767E+02 -0.75298104138E+01  0.14027327712E+03  0.12499264911E+03 0.  0.
          2    1    1    2  501    0  0.93030188828E+02 -0.32058534370E+02 -0.25262071824E+03  0.27110808351E+03  0.00000000000E+00 0. -1.
          1    1    1    2  502    0 -0.69630645244E+02 -0.26671298397E+02  0.18763059497E+04  0.18777869426E+04  0.00000000000E+00 0. -1.
         22    1    3    3    0    0 -0.30171853497E+02 -0.15202175521E+01 -0.55348015188E+02  0.63055963954E+02  0.00000000000E+00 0.  1.
         22    1    3    3    0    0  0.67723099117E+01  0.60250050319E+02  0.47818204775E+02  0.77217313167E+02  0.00000000000E+00 0.  1.
</event>
<event>
 7    1  0.6557591E-006  0.6867508E+02  0.7818608E-02  0.1439589E+00
          2   -1    0    0  502    0  0.00000000000E+00  0.00000000000E+00  0.59607906659E+03  0.59607906659E+03  0.00000000000E+00 0. -1.
          1   -1    0    0  501    0 -0.00000000000E+00 -0.00000000000E+00 -0.83866621226E+02  0.83866621226E+02  0.00000000000E+00 0. -1.
         25    2    1    2    0    0 -0.33536992345E+02 -0.10830631692E+00  0.21159164498E+02  0.13113344852E+03  0.12499411783E+03 0.  0.
          2    1    1    2  501    0 -0.35263073048E+02 -0.14151083587E+02 -0.12791535560E+02  0.40091905286E+02  0.00000000000E+00 0. -1.
          1    1    1    2  502    0  0.68800065393E+02  0.14259389904E+02  0.50384481642E+03  0.50872033401E+03  0.00000000000E+00 0. -1.
         22    1    3    3    0    0 -0.77510325252E+02  0.15228320498E+02  0.28522517234E+02  0.83983845204E+02  0.00000000000E+00 0.  1.
         22    1    3    3    0    0  0.43973332907E+02 -0.15336626815E+02 -0.73633527363E+01  0.47149603313E+02  0.00000000000E+00 0.  1.
</event>
<event>
 7    1  0.6557591E-006  0.6150140E+02  0.7818608E-02  0.1467321E+00
          2   -1    0    0  502    0  0.00000000000E+00  0.00000000000E+00  0.14727668574E+03  0.14727668574E+03  0.00000000000E+00 0. -1.
          1   -1    0    0  501    0 -0.00000000000E+00 -0.00000000000E+00 -0.44961705458E+03  0.44961705458E+03  0.00000000000E+00 0. -1.
         25    2    1    2    0    0 -0.35597187433E+02  0.59092487560E+02 -0.33778981942E+02  0.14670922314E+03  0.12499397863E+03 0.  0.
          2    1    1    2  501    0  0.53919484043E+02 -0.29715889765E+02 -0.35331140107E+03  0.35863531755E+03  0.00000000000E+00 0. -1.
          1    1    1    2  502    0 -0.18322296609E+02 -0.29376597795E+02  0.84750014179E+02  0.91549199638E+02  0.00000000000E+00 0. -1.
         22    1    3    3    0    0 -0.65706399594E+02  0.33220467806E+02 -0.63412735437E+02  0.97170496780E+02  0.00000000000E+00 0.  1.
         22    1    3    3    0    0  0.30109212161E+02  0.25872019754E+02  0.29633753494E+02  0.49538726359E+02  0.00000000000E+00 0.  1.
</event>
<event>
 7    1  0.6557591E-006  0.6490717E+02  0.7818608E-02  0.1379894E+00
          2   -1    0    0  502    0  0.00000000000E+00  0.00000000000E+00  0.24610645415E+04  0.24610645415E+04  0.00000000000E+00 0. -1.
          1   -1    0    0  501    0 -0.00000000000E+00 -0.00000000000E+00 -0.22431791151E+03  0.22431791151E+03  0.00000000000E+00 0. -1.
         25    2    1    2    0    0  0.11971398741E+01 -0.38641510726E+01  0.36241437737E+02  0.13021040915E+03  0.12499977614E+03 0.  0.
          2    1    1    2  501    0 -0.12650467342E+02  0.67752817486E+02 -0.17017531650E+03  0.18360315070E+03  0.00000000000E+00 0. -1.
          1    1    1    2  502    0  0.11453327468E+02 -0.63888666413E+02  0.23706805087E+04  0.23715688931E+04  0.00000000000E+00 0. -1.
         22    1    3    3    0    0  0.43471932195E+01 -0.41029563535E+02 -0.32152045689E+02  0.52307525412E+02  0.00000000000E+00 0. -1.
         22    1    3    3    0    0 -0.31500533454E+01  0.37165412462E+02  0.68393483426E+02  0.77902883738E+02  0.00000000000E+00 0. -1.
</event>
<event>
 7    1  0.6557591E-006  0.7721792E+02  0.7818608E-02  0.1492954E+00
          2   -1    0    0  502    0  0.00000000000E+00  0.00000000000E+00  0.35045370198E+03  0.35045370198E+03  0.00000000000E+00 0. -1.
          1   -1    0    0  501    0 -0.00000000000E+00 -0.00000000000E+00 -0.38595390936E+03  0.38595390936E+03  0.00000000000E+00 0. -1.
         25    2    1    2    0    0 -0.27261890120E+02 -0.75036394511E+02 -0.19993999641E+02  0.14966032463E+03  0.12499912637E+03 0.  0.
          2    1    1    2  501    0  0.43489163767E+01  0.77135409801E+02 -0.29569201858E+03  0.30561831484E+03  0.00000000000E+00 0. -1.
          1    1    1    2  502    0  0.22912973744E+02 -0.20990152904E+01  0.28018581083E+03  0.28112897186E+03  0.00000000000E+00 0. -1.
         22    1    3    3    0    0  0.29710944413E+02 -0.19242136580E+02  0.37335516349E+02  0.51448428733E+02  0.00000000000E+00 0. -1.
         22    1    3    3    0    0 -0.56972834533E+02 -0.55794257930E+02 -0.57329515990E+02  0.98211895901E+02  0.00000000000E+00 0. -1.
</event>
<event>
 7    1  0.6557591E-006  0.6652652E+02  0.7818608E-02  0.1401596E+00
          2   -1    0    0  502    0  0.00000000000E+00  0.00000000000E+00  0.56241857935E+03  0.56241857935E+03  0.00000000000E+00 0. -1.
          1   -1    0    0  501    0 -0.00000000000E+00 -0.00000000000E+00 -0.12992567152E+04  0.12992567152E+04  0.00000000000E+00 0. -1.
         25    2    1    2    0    0  0.83075393043E+02 -0.84837502479E+02  0.96934213381E+02  0.19779204446E+03  0.12500611333E+03 0.  0.
          2    1    1    2  501    0 -0.46218852690E+02  0.47415826104E+02 -0.12462836924E+04  0.12480414596E+04  0.00000000000E+00 0. -1.
          1    1    1    2  502    0 -0.36856540354E+02  0.37421676375E+02  0.41251134320E+03  0.41584179047E+03  0.00000000000E+00 0. -1.
         22    1    3    3    0    0  0.11061777731E+03 -0.55181937862E+02  0.44123575296E+02  0.13125634773E+03  0.00000000000E+00 0.  1.
         22    1    3    3    0    0 -0.27542384266E+02 -0.29655564617E+02  0.52810638085E+02  0.66535696725E+02  0.00000000000E+00 0.  1.
</event>
<event>
 7    1  0.6557591E-006  0.2384221E+03  0.7818608E-02  0.1159860E+00
          2   -1    0    0  502    0  0.00000000000E+00  0.00000000000E+00  0.18960503673E+04  0.18960503673E+04  0.00000000000E+00 0. -1.
          1   -1    0    0  501    0 -0.00000000000E+00 -0.00000000000E+00 -0.63198675542E+03  0.63198675542E+03  0.00000000000E+00 0. -1.
         25    2    1    2    0    0  0.11485210149E+03 -0.30008168288E+03  0.26328564430E+02  0.34575564290E+03  0.12495499062E+03 0.  0.
          2    1    1    2  501    0 -0.16495791244E+03  0.15979803732E+03 -0.44085683627E+03  0.49709282402E+03  0.00000000000E+00 0. -1.
          1    1    1    2  502    0  0.50105810950E+02  0.14028364556E+03  0.16785918837E+04  0.16851886558E+04  0.00000000000E+00 0. -1.
         22    1    3    3    0    0 -0.85588933130E+01 -0.80328652492E+01  0.26192405261E+02  0.28702328690E+02  0.00000000000E+00 0.  1.
         22    1    3    3    0    0  0.12341099480E+03 -0.29204881763E+03  0.13615916904E+00  0.31705331421E+03  0.00000000000E+00 0.  1.
</event>
<event>
 7    1  0.6557591E-006  0.4930401E+02  0.7818608E-02  0.1518659E+00
          2   -1    0    0  502    0  0.00000000000E+00  0.00000000000E+00  0.39857016873E+03  0.39857016873E+03  0.00000000000E+00 0. -1.
          1   -1    0    0  501    0 -0.00000000000E+00 -0.00000000000E+00 -0.35834966708E+02  0.35834966708E+02  0.00000000000E+00 0. -1.
         25    2    1    2    0    0 -0.15716786277E+02 -0.20959170922E+02  0.17610852074E+03  0.21756372767E+03  0.12503383663E+03 0.  0.
          2    1    1    2  501    0 -0.16584746978E+01 -0.30197614056E+02  0.95637091154E+01  0.31719252277E+02  0.00000000000E+00 0. -1.
          1    1    1    2  502    0  0.17375260975E+02  0.51156784977E+02  0.17706297216E+03  0.18512215549E+03  0.00000000000E+00 0. -1.
         22    1    3    3    0    0 -0.13202344776E+02 -0.13217549330E+02  0.19557435405E+03  0.19646458581E+03  0.00000000000E+00 0. -1.
         22    1    3    3    0    0 -0.25144415016E+01 -0.77416215920E+01 -0.19465833302E+02  0.21099141856E+02  0.00000000000E+00 0. -1.
</event>
<event>
 7    1  0.6557591E-006  0.5031979E+02  0.7818608E-02  0.1510992E+00
          2   -1    0    0  502    0  0.00000000000E+00  0.00000000000E+00  0.10241929952E+04  0.10241929952E+04  0.00000000000E+00 0. -1.
          1   -1    0    0  501    0 -0.00000000000E+00 -0.00000000000E+00 -0.16837273606E+03  0.16837273606E+03  0.00000000000E+00 0. -1.
         25    2    1    2    0    0 -0.20716499010E+02 -0.44316308469E+01  0.27646618264E+03  0.30415097599E+03  0.12500181347E+03 0.  0.
          2    1    1    2  501    0 -0.31089934015E+02 -0.26500279258E+01 -0.15201228155E+03  0.15518163675E+03  0.00000000000E+00 0. -1.
          1    1    1    2  502    0  0.51806433025E+02  0.70816587726E+01  0.73136635803E+03  0.73323311849E+03  0.00000000000E+00 0. -1.
         22    1    3    3    0    0 -0.52020287176E+02  0.30418076947E+02  0.23150971847E+03  0.23922399425E+03  0.00000000000E+00 0.  1.
         22    1    3    3    0    0  0.31303788166E+02 -0.34849707794E+02  0.44956464174E+02  0.64926981740E+02  0.00000000000E+00 0.  1.
</event>
<event>
 7    1  0.6557591E-006  0.5727440E+02  0.7818608E-02  0.1439141E+00
          2   -1    0    0  502    0  0.00000000000E+00  0.00000000000E+00  0.25673874509E+03  0.25673874509E+03  0.00000000000E+00 0. -1.
          1   -1    0    0  501    0 -0.00000000000E+00 -0.00000000000E+00 -0.13197954139E+04  0.13197954139E+04  0.00000000000E+00 0. -1.
         25    2    1    2    0    0  0.61205162666E+02 -0.19077839736E+01 -0.11148254915E+03  0.17834512745E+03  0.12501565559E+03 0.  0.
          2    1    1    2  501    0 -0.21827908910E+02 -0.40164688783E+02 -0.11707104785E+04  0.11716026136E+04  0.00000000000E+00 0. -1.
          1    1    1    2  502    0 -0.39377253756E+02  0.42072472756E+02  0.21913635876E+03  0.22658641797E+03  0.00000000000E+00 0. -1.
         22    1    3    3    0    0  0.72100275868E+02 -0.49977389447E+02 -0.55747021917E+02  0.10394190535E+03  0.00000000000E+00 0. -1.
         22    1    3    3    0    0 -0.10895113201E+02  0.48069605473E+02 -0.55735527236E+02  0.74403222096E+02  0.00000000000E+00 0. -1.
</event>
<event>
 7    1  0.6557591E-006  0.9966668E+02  0.7818608E-02  0.1346239E+00
          2   -1    0    0  502    0  0.00000000000E+00  0.00000000000E+00  0.10521006037E+04  0.10521006037E+04  0.00000000000E+00 0. -1.
          1   -1    0    0  501    0 -0.00000000000E+00 -0.00000000000E+00 -0.12149398900E+04  0.12149398900E+04  0.00000000000E+00 0. -1.
         25    2    1    2    0    0  0.83088884501E+02 -0.33107968460E+02  0.66098246824E+02  0.16731234623E+03  0.12499817064E+03 0.  0.
          2    1    1    2  501    0 -0.98079801767E+02 -0.20122276183E+02 -0.11613596625E+04  0.11656675423E+04  0.00000000000E+00 0. -1.
          1    1    1    2  502    0  0.14990917266E+02  0.53230244643E+02  0.93242212947E+03  0.93406060513E+03  0.00000000000E+00 0. -1.
         22    1    3    3    0    0  0.52085648257E+02  0.66467825274E+01 -0.28775228376E+02  0.59875773402E+02  0.00000000000E+00 0.  1.
         22    1    3    3    0    0  0.31003236244E+02 -0.39754750987E+02  0.94873475200E+02  0.10743657282E+03  0.00000000000E+00 0.  1.
</event>
<event>
 7    1  0.6557591E-006  0.7693451E+02  0.7818608E-02  0.1368249E+00
          2   -1    0    0  502    0  0.00000000000E+00  0.00000000000E+00  0.22747003907E+04  0.22747003907E+04  0.00000000000E+00 0. -1.
          1   -1    0    0  501    0 -0.00000000000E+00 -0.00000000000E+00 -0.10114006387E+04  0.10114006387E+04  0.00000000000E+00 0. -1.
         25    2    1    2    0    0  0.92371062291E+02 -0.21933284252E+02  0.23785276327E+03  0.28497657658E+03  0.12499692036E+03 0.  0.
          2    1    1    2  501    0 -0.69515768177E+02 -0.32998721993E+02 -0.98589960676E+03  0.98889806972E+03  0.00000000000E+00 0. -1.
          1    1    1    2  502    0 -0.22855294115E+02  0.54932006244E+02  0.20113465955E+04  0.20122263832E+04  0.00000000000E+00 0. -1.
         22    1    3    3    0    0  0.19807692786E+02 -0.67765968583E+02  0.11914831454E+03  0.13849509756E+03  0.00000000000E+00 0.  1.
         22    1    3    3    0    0  0.72563369505E+02  0.45832684332E+02  0.11870444873E+03  0.14648147902E+03  0.00000000000E+00 0.  1.
</event>
<event>
 7    1  0.6557591E-006  0.1051781E+03  0.7818608E-02  0.1337977E+00
          2   -1    0    0  502    0  0.00000000000E+00  0.00000000000E+00  0.40634988405E+02  0.40634988405E+02  0.00000000000E+00 0. -1.
          1   -1    0    0  501    0 -0.00000000000E+00 -0.00000000000E+00 -0.16101404580E+04  0.16101404580E+04  0.00000000000E+00 0. -1.
         25    2    1    2    0    0 -0.14122894583E+03 -0.39847991639E+02 -0.43323945653E+03  0.47418944521E+03  0.12500290268E+03 0.  0.
          2    1    1    2  501    0  0.86372795970E+02  0.52419628646E+02 -0.11098099053E+04  0.11143994362E+04  0.00000000000E+00 0. -1.
          1    1    1    2  502    0  0.54856149863E+02 -0.12571637008E+02 -0.26456107751E+02  0.62186565045E+02  0.00000000000E+00 0. -1.
         22    1    3    3    0    0 -0.13681342391E+03 -0.14179240017E+02 -0.22064963200E+03  0.26001004579E+03  0.00000000000E+00 0.  1.
         22    1    3    3    0    0 -0.44155219244E+01 -0.25668751622E+02 -0.21258982454E+03  0.21417939943E+03  0.00000000000E+00 0.  1.
</event>
<event>
 7    1  0.6557591E-006  0.8346940E+02  0.7818608E-02  0.1343494E+00
          2   -1    0    0  502    0  0.00000000000E+00  0.00000000000E+00  0.13197645128E+04  0.13197645128E+04  0.00000000000E+00 0. -1.
          1   -1    0    0  501    0 -0.00000000000E+00 -0.00000000000E+00 -0.81934346944E+02  0.81934346944E+02  0.00000000000E+00 0. -1.
         25    2    1    2    0    0 -0.26435208287E+02 -0.19531003818E+02  0.39728361736E+03  0.41777914115E+03  0.12499943124E+03 0.  0.
          2    1    1    2  501    0 -0.67430789819E+02 -0.49055130467E+01 -0.52513718939E+02  0.85607629045E+02  0.00000000000E+00 0. -1.
          1    1    1    2  502    0  0.93865998106E+02  0.24436516865E+02  0.89306026743E+03  0.89831208954E+03  0.00000000000E+00 0. -1.
         22    1    3    3    0    0 -0.19597161362E+02 -0.39006295242E+02  0.39455063956E+03  0.39695811741E+03  0.00000000000E+00 0.  1.
         22    1    3    3    0    0 -0.68380469249E+01  0.19475291424E+02  0.27329777986E+01  0.20821023737E+02  0.00000000000E+00 0.  1.
</event>
<event>
 7    1  0.6557591E-006  0.1761939E+03  0.7818608E-02  0.1187627E+00
          2   -1    0    0  502    0  0.00000000000E+00  0.00000000000E+00  0.54238128967E+03  0.54238128967E+03  0.00000000000E+00 0. -1.
          1   -1    0    0  501    0 -0.00000000000E+00 -0.00000000000E+00 -0.43530632551E+03  0.43530632551E+03  0.00000000000E+00 0. -1.
         25    2    1    2    0    0  0.14175352207E+03 -0.54669448384E+02  0.23736849347E+02  0.19817043868E+03  0.12500110057E+03 0.  0.
          2    1    1    2  501    0 -0.67133807727E+02  0.18135418009E+03 -0.30676280520E+03  0.36262888113E+03  0.00000000000E+00 0. -1.
          1    1    1    2  502    0 -0.74619714347E+02 -0.12668473170E+03  0.39010092001E+03  0.41688829536E+03  0.00000000000E+00 0. -1.
         22    1    3    3    0    0  0.39501582231E+01 -0.15971783357E+02  0.50008571265E+02  0.52645596336E+02  0.00000000000E+00 0. -1.
         22    1    3    3    0    0  0.13780336385E+03 -0.38697665027E+02 -0.26271721919E+02  0.14552484235E+03  0.00000000000E+00 0. -1.
</event>
<event>
 7    1  0.1165990E-005  0.7718013E+02  0.7818608E-02  0.1464286E+00
          2   -1    0    0  502    0  0.00000000000E+00  0.00000000000E+00  0.19382058456E+04  0.19382058456E+04  0.00000000000E+00 0. -1.
          1   -1    0    0  501    0 -0.00000000000E+00 -0.00000000000E+00 -0.28202914532E+04  0.28202914532E+04  0.00000000000E+00 0. -1.
         25    2    1    2    0    0 -0.50028772078E+02 -0.29658960484E+02 -0.12213531243E+04  0.12291096849E+04  0.12499852554E+03 0.  0.
          2    1    1    2  501    0 -0.10970269823E+01 -0.28177385586E+02 -0.15941651588E+04  0.15944145390E+04  0.00000000000E+00 0. -1.
          1    1    1    2  502    0  0.51125799060E+02  0.57836346069E+02  0.19334326755E+04  0.19349730750E+04  0.00000000000E+00 0. -1.
         22    1    3    3    0    0 -0.35429751482E+02 -0.73634828419E+02 -0.53612067644E+03  0.54231239609E+03  0.00000000000E+00 0.  1.
         22    1    3    3    0    0 -0.14599020596E+02  0.43975867935E+02 -0.68523244785E+03  0.68679728884E+03  0.00000000000E+00 0.  1.
</event>
<event>
 7    1  0.6557591E-006  0.2539970E+03  0.7818608E-02  0.1231496E+00
          2   -1    0    0  502    0  0.00000000000E+00  0.00000000000E+00  0.29929840598E+03  0.29929840598E+03  0.00000000000E+00 0. -1.
          1   -1    0    0  501    0 -0.00000000000E+00 -0.00000000000E+00 -0.35441268352E+04  0.35441268352E+04  0.00000000000E+00 0. -1.
         25    2    1    2    0    0 -0.19097070411E+03 -0.20181527215E+03 -0.30771360228E+03  0.43302599594E+03  0.12499855293E+03 0.  0.
          2    1    1    2  501    0  0.12902351189E+03  0.21714361820E+03 -0.31643288315E+04  0.31743937014E+04  0.00000000000E+00 0. -1.
          1    1    1    2  502    0  0.61947192215E+02 -0.15328346053E+02  0.22721400461E+03  0.23600554380E+03  0.00000000000E+00 0. -1.
         22    1    3    3    0    0 -0.42146281553E+02  0.60380599659E+01 -0.16854530678E+02  0.45791291981E+02  0.00000000000E+00 0. -1.
         22    1    3    3    0    0 -0.14882442255E+03 -0.20785333211E+03 -0.29085907160E+03  0.38723470396E+03  0.00000000000E+00 0. -1.
</event>
<event>
 7    1  0.6557591E-006  0.9015506E+02  0.7818608E-02  0.1392901E+00
          2   -1    0    0  502    0  0.00000000000E+00  0.00000000000E+00  0.24146901537E+04  0.24146901537E+04  0.00000000000E+00 0. -1.
          1   -1    0    0  501    0 -0.00000000000E+00 -0.00000000000E+00 -0.92868766654E+03  0.92868766654E+03  0.00000000000E+00 0. -1.
         25    2    1    2    0    0 -0.12045908707E+03  0.82269204614E+01  0.81149825326E+03  0.82989911068E+03  0.12500017995E+03 0.  0.
          2    1    1    2  501    0  0.35019715230E+02 -0.22327982557E+02 -0.91784120840E+03  0.91878038894E+03  0.00000000000E+00 0. -1.
          1    1    1    2  502    0  0.85439371843E+02  0.14101062095E+02  0.15923454423E+04  0.15946983207E+04  0.00000000000E+00 0. -1.
         22    1    3    3    0    0 -0.14402243228E+03 -0.81133294152E+01  0.70512251605E+03  0.71972637144E+03  0.00000000000E+00 0.  1.
         22    1    3    3    0    0  0.23563345210E+02  0.16340249877E+02  0.10637573722E+03  0.11017273924E+03  0.00000000000E+00 0.  1.
</event>
<event>
 7    1  0.6557591E-006  0.9918869E+02  0.7818608E-02  0.1335522E+00
          2   -1    0    0  502    0  0.00000000000E+00  0.00000000000E+00  0.72087818981E+03  0.72087818981E+03  0.00000000000E+00 0. -1.
          1   -1    0    0  501    0 -0.00000000000E+00 -0.00000000000E+00 -0.24614039810E+04  0.24614039810E+04  0.00000000000E+00 0. -1.
         25    2    1    2    0    0 -0.12014093401E+03  0.94180542726E+02 -0.80884765249E+02  0.21323846990E+03  0.12499792456E+03 0.  0.
          2    1    1    2  501    0  0.31711315892E+02 -0.52069185330E+02 -0.23102747948E+04  0.23110790629E+04  0.00000000000E+00 0. -1.
          1    1    1    2  502    0  0.88429618121E+02 -0.42111357396E+02  0.65063376881E+03  0.65796463803E+03  0.00000000000E+00 0. -1.
         22    1    3    3    0    0 -0.68396539009E+02  0.22560139515E+01 -0.83196451799E+02  0.10772569675E+03  0.00000000000E+00 0.  1.
         22    1    3    3    0    0 -0.51744395004E+02  0.91924528775E+02  0.23116865502E+01  0.10551277316E+03  0.00000000000E+00 0.  1.
</event>
<event>
 7    1  0.6557591E-006  0.1199650E+03  0.7818608E-02  0.1441141E+00
          2   -1    0    0  502    0  0.00000000000E+00  0.00000000000E+00  0.12693393332E+03  0.12693393332E+03  0.00000000000E+00 0. -1.
          1   -1    0    0  501    0 -0.00000000000E+00 -0.00000000000E+00 -0.55852744371E+03  0.55852744371E+03  0.00000000000E+00 0. -1.
         25    2    1    2    0    0 -0.16390748891E+02  0.10242052033E+03 -0.10534923715E+00  0.16242986120E+03  0.12499931631E+03 0.  0.
          2    1    1    2  501    0  0.31893037976E+02 -0.11731888278E+03 -0.46642459914E+03  0.48200912109E+03  0.00000000000E+00 0. -1.
          1    1    1    2  502    0 -0.15502289086E+02  0.14898362445E+02  0.34936437992E+02  0.41022394737E+02  0.00000000000E+00 0. -1.
         22    1    3    3    0    0 -0.55803090960E+02  0.10340071170E+03 -0.18465503308E+02  0.11893976187E+03  0.00000000000E+00 0. -1.
         22    1    3    3    0    0  0.39412342070E+02 -0.98019137021E+00  0.18360154071E+02  0.43490099334E+02  0.00000000000E+00 0. -1.
</event>
<event>
 7    1  0.6557591E-006  0.8669645E+02  0.7818608E-02  0.1419285E+00
          2   -1    0    0  502    0  0.00000000000E+00  0.00000000000E+00  0.18267295356E+04  0.18267295356E+04  0.00000000000E+00 0. -1.
          1   -1    0    0  501    0 -0.00000000000E+00 -0.00000000000E+00 -0.92884512158E+02  0.92884512158E+02  0.00000000000E+00 0. -1.
         25    2    1    2    0    0 -0.54575481986E+02  0.52049507938E+02  0.15681041982E+03  0.21425211735E+03  0.12500730985E+03 0.  0.
          2    1    1    2  501    0  0.83487403347E+02 -0.32127574836E+02 -0.32699566504E+02  0.95244890844E+02  0.00000000000E+00 0. -1.
          1    1    1    2  502    0 -0.28911921361E+02 -0.19921933102E+02  0.16097341701E+04  0.16101170395E+04  0.00000000000E+00 0. -1.
         22    1    3    3    0    0 -0.76363027560E+02  0.18698553668E+02  0.15567284702E+03  0.17439891968E+03  0.00000000000E+00 0.  1.
         22    1    3    3    0    0  0.21787545574E+02  0.33350954271E+02  0.11375728055E+01  0.39853197673E+02  0.00000000000E+00 0.  1.
</event>
<event>
 7    1  0.6557591E-006  0.1037881E+03  0.7818608E-02  0.1420521E+00
          2   -1    0    0  502    0  0.00000000000E+00  0.00000000000E+00  0.44257067239E+03  0.44257067239E+03  0.00000000000E+00 0. -1.
          1   -1    0    0  501    0 -0.00000000000E+00 -0.00000000000E+00 -0.11887064128E+04  0.11887064128E+04  0.00000000000E+00 0. -1.
         25    2    1    2    0    0  0.11503333707E+03 -0.51174386272E+02 -0.26076874456E+03  0.31539901508E+03  0.12499885651E+03 0.  0.
          2    1    1    2  501    0 -0.86109237388E+02  0.53892027322E+02 -0.89724480951E+03  0.90297696513E+03  0.00000000000E+00 0. -1.
          1    1    1    2  502    0 -0.28924099683E+02 -0.27176410495E+01  0.41187781365E+03  0.41290110498E+03  0.00000000000E+00 0. -1.
         22    1    3    3    0    0  0.35015953744E+02  0.25265341608E+01  0.23527356817E+01  0.35185732289E+02  0.00000000000E+00 0.  1.
         22    1    3    3    0    0  0.80017383327E+02 -0.53700920433E+02 -0.26312148024E+03  0.28021328279E+03  0.00000000000E+00 0.  1.
</event>
<event>
 7    1  0.6557591E-006  0.4841006E+02  0.7818608E-02  0.1483620E+00
          2   -1    0    0  502    0  0.00000000000E+00  0.00000000000E+00  0.87749627331E+03  0.87749627331E+03  0.00000000000E+00 0. -1.
          1   -1    0    0  501    0 -0.00000000000E+00 -0.00000000000E+00 -0.29778339718E+03  0.29778339718E+03  0.00000000000E+00 0. -1.
         25    2    1    2    0    0 -0.50774421867E+02 -0.10048055732E+02  0.87153549748E+02  0.16093505307E+03  0.12500137893E+03 0.  0.
          2    1    1    2  501    0  0.40025592387E+02 -0.27621189270E+02 -0.25811126502E+03  0.26265262853E+03  0.00000000000E+00 0. -1.
          1    1    1    2  502    0  0.10748829480E+02  0.37669245001E+02  0.75067059141E+03  0.75169198889E+03  0.00000000000E+00 0. -1.
         22    1    3    3    0    0 -0.30130130201E+02  0.41386763605E+01  0.11762282636E+03  0.12149108062E+03  0.00000000000E+00 0. -1.
         22    1    3    3    0    0 -0.20644291666E+02 -0.14186732092E+02 -0.30469276613E+02  0.39443972456E+02  0.00000000000E+00 0. -1.
</event>
<event>
 7    1  0.6557591E-006  0.1278087E+03  0.7818608E-02  0.1367206E+00
          2   -1    0    0  502    0  0.00000000000E+00  0.00000000000E+00  0.43450008501E+03  0.43450008501E+03  0.00000000000E+00 0. -1.
          1   -1    0    0  501    0 -0.00000000000E+00 -0.00000000000E+00 -0.13462729561E+03  0.13462729561E+03  0.00000000000E+00 0. -1.
         25    2    1    2    0    0 -0.41487391510E+02  0.99304565419E+02  0.25893441632E+03  0.30700440211E+03  0.12498828184E+03 0.  0.
          2    1    1    2  501    0  0.21312581153E+02 -0.12927238049E+03 -0.67813972477E+02  0.14752731726E+03  0.00000000000E+00 0. -1.
          1    1    1    2  502    0  0.20174810357E+02  0.29967815073E+02  0.10875234556E+03  0.11459566126E+03  0.00000000000E+00 0. -1.
         22    1    3    3    0    0  0.28143026649E+02  0.59484094651E+02  0.19056752094E+03  0.20160944299E+03  0.00000000000E+00 0.  1.
         22    1    3    3    0    0 -0.69630418159E+02  0.39820470768E+02  0.68366895371E+02  0.10539495912E+03  0.00000000000E+00 0.  1.
</event>
<event>
 7    1  0.6557591E-006  0.4501205E+02  0.7818608E-02  0.1504058E+00
          2   -1    0    0  502    0  0.00000000000E+00  0.00000000000E+00  0.91945174285E+02  0.91945174285E+02  0.00000000000E+00 0. -1.
          1   -1    0    0  501    0 -0.00000000000E+00 -0.00000000000E+00 -0.35336897439E+03  0.35336897439E+03  0.00000000000E+00 0. -1.
         25    2    1    2    0    0  0.68432948025E+02 -0.11827107396E+02 -0.17072470248E+03  0.22269744332E+03  0.12499711349E+03 0.  0.
          2    1    1    2  501    0 -0.41050422221E+02 -0.12407138333E+02 -0.14830739693E+03  0.15438315397E+03  0.00000000000E+00 0. -1.
          1    1    1    2  502    0 -0.27382525803E+02  0.24234245729E+02  0.57608299305E+02  0.68233551382E+02  0.00000000000E+00 0. -1.
         22    1    3    3    0    0  0.54648999842E+02 -0.37808721705E+02 -0.20387372607E+02  0.69510125756E+02  0.00000000000E+00 0.  1.
         22    1    3    3    0    0  0.13783948182E+02  0.25981614309E+02 -0.15033732988E+03  0.15318731757E+03  0.00000000000E+00 0.  1.
</event>
<event>
 7    1  0.6557591E-006  0.9119117E+02  0.7818608E-02  0.1321501E+00
          2   -1    0    0  502    0  0.00000000000E+00  0.00000000000E+00  0.11351461130E+04  0.11351461130E+04  0.00000000000E+00 0. -1.
          1   -1    0    0  501    0 -0.00000000000E+00 -0.00000000000E+00 -0.24870825080E+04  0.24870825080E+04  0.00000000000E+00 0. -1.
         25    2    1    2    0    0 -0.10318041623E+03  0.11203493315E+03 -0.91730723602E+02  0.21734265496E+03  0.12500111788E+03 0.  0.
          2    1    1    2  501    0  0.22097354627E+02 -0.71711261235E+02 -0.23300289281E+04  0.23312369257E+04  0.00000000000E+00 0. -1.
          1    1    1    2  502    0  0.81083061607E+02 -0.40323671911E+02  0.10698232567E+04  0.10736490404E+04  0.00000000000E+00 0. -1.
         22    1    3    3    0    0  0.77393107033E+01  0.57333815254E+02 -0.71580808497E+02  0.92037358973E+02  0.00000000000E+00 0.  1.
         22    1    3    3    0    0 -0.11091972694E+03  0.54701117892E+02 -0.20149915105E+02  0.12530529598E+03  0.00000000000E+00 0.  1.
</event>
<event>
 7    1  0.6557591E-006  0.7283203E+02  0.7818608E-02  0.1447783E+00
          2   -1    0    0  502    0  0.00000000000E+00  0.00000000000E+00  0.40323356195E+03  0.40323356195E+03  0.00000000000E+00 0. -1.
          1   -1    0    0  501    0 -0.00000000000E+00 -0.00000000000E+00 -0.13942572043E+03  0.13942572043E+03  0.00000000000E+00 0. -1.
         25    2    1    2    0    0  0.38508543377E+02  0.75113054887E+02  0.20317389397E+03  0.25303981509E+03  0.12499855160E+03 0.  0.
          2    1    1    2  501    0 -0.55924893223E+02 -0.46250022429E+02 -0.10107734397E+03  0.12443185975E+03  0.00000000000E+00 0. -1.
          1    1    1    2  502    0  0.17416349846E+02 -0.28863032458E+02  0.16171129151E+03  0.16518760755E+03  0.00000000000E+00 0. -1.
         22    1    3    3    0    0 -0.43830377260E+02  0.16377856176E+02  0.88707840482E+02  0.10029166020E+03  0.00000000000E+00 0. -1.
         22    1    3    3    0    0  0.82338920637E+02  0.58735198711E+02  0.11446605349E+03  0.15274815488E+03  0.00000000000E+00 0. -1.
</event>
<event>
 7    1  0.6557591E-006  0.1049584E+03  0.7818608E-02  0.1326806E+00
          2   -1    0    0  502    0  0.00000000000E+00  0.00000000000E+00  0.30592936875E+03  0.30592936875E+03  0.00000000000E+00 0. -1.
          1   -1    0    0  501    0 -0.00000000000E+00 -0.00000000000E+00 -0.13021451713E+04  0.13021451713E+04  0.00000000000E+00 0. -1.
         25    2    1    2    0    0  0.14244403043E+03 -0.78113990450E+02 -0.99840559357E+02  0.22800273029E+03  0.12500004168E+03 0.  0.
          2    1    1    2  501    0 -0.82498323854E+02  0.61531133240E+02 -0.11318509503E+04  0.11365204035E+04  0.00000000000E+00 0. -1.
          1    1    1    2  502    0 -0.59945706573E+02  0.16582857210E+02  0.23547570709E+03  0.24355140632E+03  0.00000000000E+00 0. -1.
         22    1    3    3    0    0  0.59173617511E+02 -0.95145871068E+02 -0.25104898222E+02  0.11482382029E+03  0.00000000000E+00 0.  1.
         22    1    3    3    0    0  0.83270412916E+02  0.17031880617E+02 -0.74735661135E+02  0.11317891000E+03  0.00000000000E+00 0.  1.
</event>
<event>
 7    1  0.6557591E-006  0.1219270E+03  0.7818608E-02  0.1348714E+00
          2   -1    0    0  502    0  0.00000000000E+00  0.00000000000E+00  0.18318305854E+04  0.18318305854E+04  0.00000000000E+00 0. -1.
          1   -1    0    0  501    0 -0.00000000000E+00 -0.00000000000E+00 -0.11209128616E+03  0.11209128616E+03  0.00000000000E+00 0. -1.
         25    2    1    2    0    0  0.10709366922E+03  0.19995706573E+02  0.33491641310E+03  0.37371487255E+03  0.12499967974E+03 0.  0.
          2    1    1    2  501    0 -0.12231553873E+03  0.21560647702E+02 -0.50591985454E+02  0.13411003518E+03  0.00000000000E+00 0. -1.
          1    1    1    2  502    0  0.15221869512E+02 -0.41556354275E+02  0.14354148716E+04  0.14360969638E+04  0.00000000000E+00 0. -1.
         22    1    3    3    0    0  0.13306697928E+03  0.18214953732E+01  0.25272869977E+03  0.28562551445E+03  0.00000000000E+00 0.  1.
         22    1    3    3    0    0 -0.25973310057E+02  0.18174211200E+02  0.82187713325E+02  0.88089358095E+02  0.00000000000E+00 0.  1.
</event>
<event>
 7    1  0.6557591E-006  0.1533401E+03  0.7818608E-02  0.1314552E+00
          2   -1    0    0  502    0  0.00000000000E+00  0.00000000000E+00  0.99711352780E+03  0.99711352780E+03  0.00000000000E+00 0. -1.
          1   -1    0    0  501    0 -0.00000000000E+00 -0.00000000000E+00 -0.82307377874E+03  0.82307377874E+03  0.00000000000E+00 0. -1.
         25    2    1    2    0    0  0.12689228388E+03 -0.56440101869E+01  0.42490208389E+02  0.18319900691E+03  0.12499180679E+03 0.  0.
          2    1    1    2  501    0  0.25623351425E+02  0.39987069702E+02 -0.74504760135E+03  0.74655974319E+03  0.00000000000E+00 0. -1.
          1    1    1    2  502    0 -0.15251563530E+03 -0.34343059515E+02  0.87659714202E+03  0.89042855645E+03  0.00000000000E+00 0. -1.
         22    1    3    3    0    0  0.14794717104E+01 -0.60088374820E+01  0.56651668732E+02  0.56988652683E+02  0.00000000000E+00 0. -1.
         22    1    3    3    0    0  0.12541281217E+03  0.36482729515E+00 -0.14161460343E+02  0.12621035423E+03  0.00000000000E+00 0. -1.
</event>
<event>
 7    1  0.6557591E-006  0.7734328E+02  0.7818608E-02  0.1397885E+00
          2   -1    0    0  502    0  0.00000000000E+00  0.00000000000E+00  0.28891671011E+03  0.28891671011E+03  0.00000000000E+00 0. -1.
          1   -1    0    0  501    0 -0.00000000000E+00 -0.00000000000E+00 -0.82231287387E+03  0.82231287387E+03  0.00000000000E+00 0. -1.
         25    2    1    2    0    0  0.64319720016E+02  0.76679378223E+02  0.43562717127E+02  0.16595041949E+03  0.12500031191E+03 0.  0.
          2    1    1    2  501    0  0.48772607022E+01 -0.46269837205E+02 -0.75261485553E+03  0.75405159390E+03  0.00000000000E+00 0. -1.
          1    1    1    2  502    0 -0.69196980718E+02 -0.30409541018E+02  0.17565597465E+03  0.19122757059E+03  0.00000000000E+00 0. -1.
         22    1    3    3    0    0  0.39673401339E+02 -0.27048279017E+02  0.34146197241E+02  0.58919868954E+02  0.00000000000E+00 0.  1.
         22    1    3    3    0    0  0.24646318678E+02  0.10372765724E+03  0.94165198860E+01  0.10703055053E+03  0.00000000000E+00 0.  1.
</event>
<event>
 7    1  0.6557591E-006  0.9629151E+02  0.7818608E-02  0.1471074E+00
          2   -1    0    0  502    0  0.00000000000E+00  0.00000000000E+00  0.24284246613E+04  0.24284246613E+04  0.00000000000E+00 0. -1.
          1   -1    0    0  501    0 -0.00000000000E+00 -0.00000000000E+00 -0.12139855211E+03  0.12139855211E+03  0.00000000000E+00 0. -1.
         25    2    1    2    0    0 -0.35447971505E+02 -0.10751924963E+03 -0.23372969621E+02  0.17025914624E+03  0.12499973378E+03 0.  0.
          2    1    1    2  501    0  0.17025062081E+02  0.13172465452E+02 -0.18690814758E+02  0.28508124127E+02  0.00000000000E+00 0. -1.
          1    1    1    2  502    0  0.18422909425E+02  0.94346784178E+02  0.23490898936E+04  0.23510559431E+04  0.00000000000E+00 0. -1.
         22    1    3    3    0    0 -0.78282173007E+02 -0.38074662397E+02 -0.11451906337E+02  0.87800482266E+02  0.00000000000E+00 0. -1.
         22    1    3    3    0    0  0.42834201502E+02 -0.69444587233E+02 -0.11921063284E+02  0.82458663972E+02  0.00000000000E+00 0. -1.
</event>
<event>
 7    1  0.6557591E-006  0.1511600E+03  0.7818608E-02  0.1321475E+00
          2   -1    0    0  502    0  0.00000000000E+00  0.00000000000E+00  0.28107964946E+04  0.28107964946E+04  0.00000000000E+00 0. -1.
          1   -1    0    0  501    0 -0.00000000000E+00 -0.00000000000E+00 -0.55498991735E+03  0.55498991735E+03  0.00000000000E+00 0. -1.
         25    2    1    2    0    0  0.51947765265E+02  0.18630001949E+03 -0.62435907447E+02  0.23860774116E+03  0.12501657500E+03 0.  0.
          2    1    1    2  501    0 -0.24147162519E+02 -0.38303368265E+02 -0.40111121218E+03  0.40365881387E+03  0.00000000000E+00 0. -1.
          1    1    1    2  502    0 -0.27800602746E+02 -0.14799665122E+03  0.27193536969E+04  0.27235198569E+04  0.00000000000E+00 0. -1.
         22    1    3    3    0    0  0.52932996777E+02  0.19767314583E+03 -0.78263348306E+02  0.21909296296E+03  0.00000000000E+00 0.  1.
         22    1    3    3    0    0 -0.98523151179E+00 -0.11373126342E+02  0.15827440859E+02  0.19514778197E+02  0.00000000000E+00 0.  1.
</event>
<event>
 7    1  0.6557591E-006  0.7904416E+02  0.7818608E-02  0.1475897E+00
          2   -1    0    0  502    0  0.00000000000E+00  0.00000000000E+00  0.67911379909E+03  0.67911379909E+03  0.00000000000E+00 0. -1.
          1   -1    0    0  501    0 -0.00000000000E+00 -0.00000000000E+00 -0.36978028978E+03  0.36978028978E+03  0.00000000000E+00 0. -1.
         25    2    1    2    0    0  0.66735813227E+02  0.74538361330E+02  0.17311596492E+02  0.16103770773E+03  0.12499526336E+03 0.  0.
          2    1    1    2  501    0 -0.59519147107E+02 -0.50251087496E+02 -0.29254636048E+03  0.30273928337E+03  0.00000000000E+00 0. -1.
          1    1    1    2  502    0 -0.72166661200E+01 -0.24287273835E+02  0.58456827330E+03  0.58511709776E+03  0.00000000000E+00 0. -1.
         22    1    3    3    0    0  0.85179040506E+02  0.71341182339E+01 -0.98916180639E+01  0.86047711721E+02  0.00000000000E+00 0. -1.
         22    1    3    3    0    0 -0.18443227279E+02  0.67404243097E+02  0.27203214556E+02  0.74989996013E+02  0.00000000000E+00 0. -1.
</event>
<event>
 7    1  0.6557591E-006  0.2936649E+02  0.7818608E-02  0.1670841E+00
          2   -1    0    0  502    0  0.00000000000E+00  0.00000000000E+00  0.39718779189E+03  0.39718779189E+03  0.00000000000E+00 0. -1.
          1   -1    0    0  501    0 -0.00000000000E+00 -0.00000000000E+00 -0.65872324694E+02  0.65872324694E+02  0.00000000000E+00 0. -1.
         25    2    1    2    0    0 -0.56678716932E+01 -0.25359964137E+02  0.66959498542E+02  0.14416550228E+03  0.12499946021E+03 0.  0.
          2    1    1    2  501    0 -0.18408220717E+02  0.82063340536E+01 -0.22679518312E+02  0.30340848034E+02  0.00000000000E+00 0. -1.
          1    1    1    2  502    0  0.24076092411E+02  0.17153630083E+02  0.28703548697E+03  0.28855376627E+03  0.00000000000E+00 0. -1.
         22    1    3    3    0    0 -0.50264230397E+02  0.39516938990E+01  0.74820252992E+02  0.90222940541E+02  0.00000000000E+00 0.  1.
         22    1    3    3    0    0  0.44596358703E+02 -0.29311658036E+02 -0.78607544498E+01  0.53942561739E+02  0.00000000000E+00 0.  1.
</event>
<event>
 7    1  0.6557591E-006  0.2651056E+03  0.7818608E-02  0.1125350E+00
          2   -1    0    0  502    0  0.00000000000E+00  0.00000000000E+00  0.23130971972E+04  0.23130971972E+04  0.00000000000E+00 0. -1.
          1   -1    0    0  501    0 -0.00000000000E+00 -0.00000000000E+00 -0.30093002018E+03  0.30093002018E+03  0.00000000000E+00 0. -1.
         25    2    1    2    0    0  0.30910922219E+03 -0.20661672029E+03  0.78859707305E+02  0.40010105509E+03  0.12499208176E+03 0.  0.
          2    1    1    2  501    0 -0.23162435010E+03  0.19253615767E+02 -0.35139745592E+02  0.23506455071E+03  0.00000000000E+00 0. -1.
          1    1    1    2  502    0 -0.77484872090E+02  0.18736310452E+03  0.19684472153E+04  0.19788616116E+04  0.00000000000E+00 0. -1.
         22    1    3    3    0    0  0.88065428466E+02 -0.10633609906E+01  0.36331257324E+02  0.95271247952E+02  0.00000000000E+00 0. -1.
         22    1    3    3    0    0  0.22104379373E+03 -0.20555335929E+03  0.42528449981E+02  0.30482980714E+03  0.00000000000E+00 0. -1.
</event>
<event>
 7    1  0.6557591E-006  0.1232716E+03  0.7818608E-02  0.1242891E+00
          2   -1    0    0  502    0  0.00000000000E+00  0.00000000000E+00  0.15146217400E+03  0.15146217400E+03  0.00000000000E+00 0. -1.
          1   -1    0    0  501    0 -0.00000000000E+00 -0.00000000000E+00 -0.11057195184E+04  0.11057195184E+04  0.00000000000E+00 0. -1.
         25    2    1    2    0    0 -0.13134208761E+02 -0.10043526342E+03 -0.34155209655E+03  0.37754950038E+03  0.12500416393E+03 0.  0.
          2    1    1    2  501    0 -0.10912760057E+03  0.84689627122E+02 -0.70954863385E+03  0.72286958018E+03  0.00000000000E+00 0. -1.
          1    1    1    2  502    0  0.12226180933E+03  0.15745636297E+02  0.96843385960E+02  0.15676261189E+03  0.00000000000E+00 0. -1.
         22    1    3    3    0    0 -0.46546362038E+02  0.38908389788E+01 -0.64583238280E+02  0.79703808652E+02  0.00000000000E+00 0.  1.
         22    1    3    3    0    0  0.33412153277E+02 -0.10432610240E+03 -0.27696885827E+03  0.29784569172E+03  0.00000000000E+00 0.  1.
</event>
<event>
 7    1  0.6557591E-006  0.1110417E+03  0.7818608E-02  0.1293616E+00
          2   -1    0    0  502    0  0.00000000000E+00  0.00000000000E+00  0.59751845248E+03  0.59751845248E+03  0.00000000000E+00 0. -1.
          1   -1    0    0  501    0 -0.00000000000E+00 -0.00000000000E+00 -0.88130947492E+03  0.88130947492E+03  0.00000000000E+00 0. -1.
         25    2    1    2    0    0 -0.62351052563E+01  0.63165890276E+02 -0.52235208966E+03  0.54083772404E+03  0.12499972779E+03 0.  0.
          2    1    1    2  501    0 -0.10446699601E+03 -0.71843682039E+02 -0.33269870055E+03  0.35603833116E+03  0.00000000000E+00 0. -1.
          1    1    1    2  502    0  0.11070210127E+03  0.86777917621E+01  0.57125976776E+03  0.58195187220E+03  0.00000000000E+00 0. -1.
         22    1    3    3    0    0 -0.29831145608E+01  0.63277544662E+02 -0.52934648647E+03  0.53312348416E+03  0.00000000000E+00 0.  1.
         22    1    3    3    0    0 -0.32519906955E+01 -0.11165438546E+00  0.69943968102E+01  0.77142398799E+01  0.00000000000E+00 0.  1.
</event>
<event>
 7    1  0.6557591E-006  0.1037399E+03  0.7818608E-02  0.1446246E+00
          2   -1    0    0  502    0  0.00000000000E+00  0.00000000000E+00  0.80256334383E+02  0.80256334383E+02  0.00000000000E+00 0. -1.
          1   -1    0    0  501    0 -0.00000000000E+00 -0.00000000000E+00 -0.53587635767E+03  0.53587635767E+03  0.00000000000E+00 0. -1.
         25    2    1    2    0    0 -0.11759413137E+03 -0.19203532604E+02 -0.16223771935E+03  0.23694267901E+03  0.12499440050E+03 0.  0.
          2    1    1    2  501    0  0.18224838961E+02  0.15520062515E+02 -0.27745412426E+03  0.27848484369E+03  0.00000000000E+00 0. -1.
          1    1    1    2  502    0  0.99369292414E+02  0.36834700892E+01 -0.15928179673E+02  0.10070516935E+03  0.00000000000E+00 0. -1.
         22    1    3    3    0    0 -0.12962907334E+03 -0.49286299710E+02 -0.11788509325E+03  0.18201574439E+03  0.00000000000E+00 0. -1.
         22    1    3    3    0    0  0.12034941965E+02  0.30082767106E+02 -0.44352626098E+02  0.54926934619E+02  0.00000000000E+00 0. -1.
</event>
<event>
 7    1  0.6557591E-006  0.3307595E+02  0.7818608E-02  0.1622739E+00
          2   -1    0    0  502    0  0.00000000000E+00  0.00000000000E+00  0.19830030042E+04  0.19830030042E+04  0.00000000000E+00 0. -1.
          1   -1    0    0  501    0 -0.00000000000E+00 -0.00000000000E+00 -0.24167514621E+03  0.24167514621E+03  0.00000000000E+00 0. -1.
         25    2    1    2    0    0 -0.19163278140E+02  0.86375132130E+01  0.42349018969E+03  0.44205257059E+03  0.12499878614E+03 0.  0.
          2    1    1    2  501    0  0.69199711233E+01  0.22464097748E+02 -0.23161887678E+03  0.23280856035E+03  0.00000000000E+00 0. -1.
          1    1    1    2  502    0  0.12243307017E+02 -0.31101610961E+02  0.15494565451E+04  0.15498170195E+04  0.00000000000E+00 0. -1.
         22    1    3    3    0    0  0.40435194048E+02  0.11940047574E+02  0.57912505302E+02  0.71633985818E+02  0.00000000000E+00 0.  1.
         22    1    3    3    0    0 -0.59598472188E+02 -0.33025343614E+01  0.36557768439E+03  0.37041858477E+03  0.00000000000E+00 0.  1.
</event>
<event>
 7    1  0.6557591E-006  0.5340198E+02  0.7818608E-02  0.1522689E+00
          2   -1    0    0  502    0  0.00000000000E+00  0.00000000000E+00  0.24688384557E+03  0.24688384557E+03  0.00000000000E+00 0. -1.
          1   -1    0    0  501    0 -0.00000000000E+00 -0.00000000000E+00 -0.60997952467E+03  0.60997952467E+03  0.00000000000E+00 0. -1.
         25    2    1    2    0    0  0.31884500105E+02  0.47671734767E+02 -0.11320262736E+03  0.17812682522E+03  0.12500046151E+03 0.  0.
          2    1    1    2  501    0 -0.26611972822E+02  0.55307041198E+01 -0.46057532900E+03  0.46137665683E+03  0.00000000000E+00 0. -1.
          1    1    1    2  502    0 -0.52725272837E+01 -0.53202438886E+02  0.21068227725E+03  0.21735988819E+03  0.00000000000E+00 0. -1.
         22    1    3    3    0    0  0.15191529129E+02 -0.42374862876E+02 -0.27822676173E+02  0.52919872170E+02  0.00000000000E+00 0.  1.
         22    1    3    3    0    0  0.16692970977E+02  0.90046597643E+02 -0.85379951183E+02  0.12520695305E+03  0.00000000000E+00 0.  1.
</event>
<event>
 7    1  0.6557591E-006  0.1071814E+03  0.7818608E-02  0.1407950E+00
          2   -1    0    0  502    0  0.00000000000E+00  0.00000000000E+00  0.42018664970E+03  0.42018664970E+03  0.00000000000E+00 0. -1.
          1   -1    0    0  501    0 -0.00000000000E+00 -0.00000000000E+00 -0.95443919744E+03  0.95443919744E+03  0.00000000000E+00 0. -1.
         25    2    1    2    0    0 -0.13058003651E+02 -0.80366817867E+02 -0.34684331113E+03  0.37756486888E+03  0.12500244342E+03 0.  0.
          2    1    1    2  501    0  0.14643529268E+02 -0.27337544136E+02 -0.58465158729E+03  0.58547352868E+03  0.00000000000E+00 0. -1.
          1    1    1    2  502    0 -0.15855256168E+01  0.10770436200E+03  0.39724235067E+03  0.41158744958E+03  0.00000000000E+00 0. -1.
         22    1    3    3    0    0 -0.68820111286E+02 -0.41715131201E+02 -0.20815048484E+03  0.22316582227E+03  0.00000000000E+00 0.  1.
         22    1    3    3    0    0  0.55762107635E+02 -0.38651686666E+02 -0.13869282629E+03  0.15439904661E+03  0.00000000000E+00 0.  1.
</event>
<event>
 7    1  0.6557591E-006  0.5958062E+02  0.7818608E-02  0.1402085E+00
          2   -1    0    0  502    0  0.00000000000E+00  0.00000000000E+00  0.75139991828E+03  0.75139991828E+03  0.00000000000E+00 0. -1.
          1   -1    0    0  501    0 -0.00000000000E+00 -0.00000000000E+00 -0.25119826621E+03  0.25119826621E+03  0.00000000000E+00 0. -1.
         25    2    1    2    0    0  0.21488633875E+02 -0.12090428704E+01  0.72365057650E+02  0.14603066242E+03  0.12500011851E+03 0.  0.
          2    1    1    2  501    0  0.16903285926E+01  0.58396603003E+02 -0.20886561283E+03  0.21688214467E+03  0.00000000000E+00 0. -1.
          1    1    1    2  502    0 -0.23178962468E+02 -0.57187560133E+02  0.63670220725E+03  0.63968537739E+03  0.00000000000E+00 0. -1.
         22    1    3    3    0    0  0.51898751468E+02  0.36532109805E+02  0.58587990790E+01  0.63736967118E+02  0.00000000000E+00 0.  1.
         22    1    3    3    0    0 -0.30410117593E+02 -0.37741152676E+02  0.66506258571E+02  0.82293695302E+02  0.00000000000E+00 0.  1.
</event>
<event>
 7    1  0.6557591E-006  0.6610024E+02  0.7818608E-02  0.1529147E+00
          2   -1    0    0  502    0  0.00000000000E+00  0.00000000000E+00  0.29385470232E+03  0.29385470232E+03  0.00000000000E+00 0. -1.
          1   -1    0    0  501    0 -0.00000000000E+00 -0.00000000000E+00 -0.36854398466E+03  0.36854398466E+03  0.00000000000E+00 0. -1.
         25    2    1    2    0    0  0.65236048620E+02 -0.23955411484E+02 -0.10261173161E+03  0.17601411431E+03  0.12498878828E+03 0.  0.
          2    1    1    2  501    0 -0.52187097641E+02  0.40457905719E+02 -0.22402813823E+03  0.23355714935E+03  0.00000000000E+00 0. -1.
          1    1    1    2  502    0 -0.13048950979E+02 -0.16502494235E+02  0.25195058750E+03  0.25282742332E+03  0.00000000000E+00 0. -1.
         22    1    3    3    0    0  0.57385222197E+02 -0.15992986198E+02 -0.13186476784E+03  0.14469677374E+03  0.00000000000E+00 0.  1.
         22    1    3    3    0    0  0.78508264229E+01 -0.79624252865E+01  0.29253036229E+02  0.31317340573E+02  0.00000000000E+00 0.  1.
</event>
<event>
 7    1  0.6557591E-006  0.7242960E+02  0.7818608E-02  0.1359515E+00
          2   -1    0    0  502    0  0.00000000000E+00  0.00000000000E+00  0.32639889269E+03  0.32639889269E+03  0.00000000000E+00 0. -1.
          1   -1    0    0  501    0 -0.00000000000E+00 -0.00000000000E+00 -0.10387484623E+03  0.10387484623E+03  0.00000000000E+00 0. -1.
         25    2    1    2    0    0 -0.59687864838E+02  0.23726118806E+02  0.91422955726E+02  0.16765751618E+03  0.12500126390E+03 0.  0.
          2    1    1    2  501    0  0.41161947953E+02  0.54103620255E+02 -0.36309833680E+02  0.77070822663E+02  0.00000000000E+00 0. -1.
          1    1    1    2  502    0  0.18525916886E+02 -0.77829739061E+02  0.16741092441E+03  0.18554540008E+03  0.00000000000E+00 0. -1.
         22    1    3    3    0    0  0.30067877193E+02 -0.57639665342E+01  0.61258127731E+02  0.68482543485E+02  0.00000000000E+00 0. -1.
         22    1    3    3    0    0 -0.89755742031E+02  0.29490085340E+02  0.30164827995E+02  0.99174972695E+02  0.00000000000E+00 0. -1.
</event>
<event>
 7    1  0.6557591E-006  0.1626269E+03  0.7818608E-02  0.1323158E+00
          2   -1    0    0  502    0  0.00000000000E+00  0.00000000000E+00  0.11075014495E+04  0.11075014495E+04  0.00000000000E+00 0. -1.
          1   -1    0    0  501    0 -0.00000000000E+00 -0.00000000000E+00 -0.53029775170E+03  0.53029775170E+03  0.00000000000E+00 0. -1.
         25    2    1    2    0    0 -0.15004042696E+03  0.13219023477E+03  0.21487340039E+03  0.31903460052E+03  0.12500444089E+03 0.  0.
          2    1    1    2  501    0  0.11229141400E+03 -0.11504377055E+03 -0.46417199861E+03  0.49122304007E+03  0.00000000000E+00 0. -1.
          1    1    1    2  502    0  0.37749012961E+02 -0.17146464223E+02  0.82650229605E+03  0.82754156064E+03  0.00000000000E+00 0. -1.
         22    1    3    3    0    0  0.12315510699E+02  0.71509801443E+01  0.61348158142E+02  0.62979400031E+02  0.00000000000E+00 0.  1.
         22    1    3    3    0    0 -0.16235593766E+03  0.12503925463E+03  0.15352524224E+03  0.25605520049E+03  0.00000000000E+00 0.  1.
</event>
<event>
 7    1  0.6557591E-006  0.1360836E+03  0.7818608E-02  0.1350405E+00
          2   -1    0    0  502    0  0.00000000000E+00  0.00000000000E+00  0.15919425868E+04  0.15919425868E+04  0.00000000000E+00 0. -1.
          1   -1    0    0  501    0 -0.00000000000E+00 -0.00000000000E+00 -0.13288980667E+04  0.13288980667E+04  0.00000000000E+00 0. -1.
         25    2    1    2    0    0  0.16465905553E+03 -0.52654763275E+02  0.11940664779E+04  0.12129735670E+04  0.12499996763E+03 0.  0.
          2    1    1    2  501    0 -0.13253977936E+03  0.30385444938E+02 -0.13149463608E+04  0.13219583957E+04  0.00000000000E+00 0. -1.
          1    1    1    2  502    0 -0.32119276168E+02  0.22269318337E+02  0.38392440301E+03  0.38590869084E+03  0.00000000000E+00 0. -1.
         22    1    3    3    0    0  0.58777341045E+00 -0.46450864936E+01 -0.17507556045E+01  0.49987449727E+01  0.00000000000E+00 0. -1.
         22    1    3    3    0    0  0.16407128211E+03 -0.48009676782E+02  0.11958172335E+04  0.12079748220E+04  0.00000000000E+00 0. -1.
</event>
<event>
 7    1  0.6557591E-006  0.5644275E+02  0.7818608E-02  0.1423547E+00
          2   -1    0    0  502    0  0.00000000000E+00  0.00000000000E+00  0.11905834683E+03  0.11905834683E+03  0.00000000000E+00 0. -1.
          1   -1    0    0  501    0 -0.00000000000E+00 -0.00000000000E+00 -0.38222760789E+03  0.38222760789E+03  0.00000000000E+00 0. -1.
         25    2    1    2    0    0  0.38796586764E+02 -0.79803315305E+02 -0.32952637660E+02  0.15679790993E+03  0.12500385575E+03 0.  0.
          2    1    1    2  501    0  0.71990857135E+01  0.55130826240E+02 -0.27200270440E+03  0.27762691880E+03  0.00000000000E+00 0. -1.
          1    1    1    2  502    0 -0.45995672478E+02  0.24672489066E+02  0.41786081009E+02  0.66861125996E+02  0.00000000000E+00 0. -1.
         22    1    3    3    0    0 -0.41892317101E+02 -0.52491784102E+02 -0.58913005114E+01  0.67417067958E+02  0.00000000000E+00 0. -1.
         22    1    3    3    0    0  0.80688903866E+02 -0.27311531203E+02 -0.27061337149E+02  0.89380841974E+02  0.00000000000E+00 0. -1.
</event>
<event>
 7    1  0.6557591E-006  0.1406643E+03  0.7818608E-02  0.1390553E+00
          2   -1    0    0  502    0  0.00000000000E+00  0.00000000000E+00  0.14993783888E+03  0.14993783888E+03  0.00000000000E+00 0. -1.
          1   -1    0    0  501    0 -0.00000000000E+00 -0.00000000000E+00 -0.37551332256E+03  0.37551332256E+03  0.00000000000E+00 0. -1.
         25    2    1    2    0    0 -0.56897036159E+02  0.12593119597E+03 -0.10347765724E+02  0.18662288809E+03  0.12500034905E+03 0.  0.
          2    1    1    2  501    0  0.32525846257E+02 -0.13783862067E+03 -0.25441004910E+03  0.29117329738E+03  0.00000000000E+00 0. -1.
          1    1    1    2  502    0  0.24371189902E+02  0.11907424701E+02  0.39182331147E+02  0.47654975966E+02  0.00000000000E+00 0. -1.
         22    1    3    3    0    0 -0.59490166701E+02  0.11853638578E+03 -0.53318547800E+02  0.14294342317E+03  0.00000000000E+00 0. -1.
         22    1    3    3    0    0  0.25931305419E+01  0.73948101901E+01  0.42970782076E+02  0.43679464923E+02  0.00000000000E+00 0. -1.
</event>
<event>
 7    1  0.6557591E-006  0.9401187E+02  0.7818608E-02  0.1408919E+00
          2   -1    0    0  502    0  0.00000000000E+00  0.00000000000E+00  0.22303077907E+04  0.22303077907E+04  0.00000000000E+00 0. -1.
          1   -1    0    0  501    0 -0.00000000000E+00 -0.00000000000E+00 -0.99530688107E+03  0.99530688107E+03  0.00000000000E+00 0. -1.
         25    2    1    2    0    0  0.58987084206E+02  0.17090214075E+02  0.18331654300E+04  0.18384482225E+04  0.12499928535E+03 0.  0.
          2    1    1    2  501    0 -0.93460082856E+02 -0.10539982705E+02 -0.98965119263E+03  0.99411033663E+03  0.00000000000E+00 0. -1.
          1    1    1    2  502    0  0.34472998649E+02 -0.65502313700E+01  0.39148667226E+03  0.39305611269E+03  0.00000000000E+00 0. -1.
         22    1    3    3    0    0  0.81597379786E+00  0.49901749324E+02  0.32547272306E+03  0.32927700171E+03  0.00000000000E+00 0. -1.
         22    1    3    3    0    0  0.58171110409E+02 -0.32811535249E+02  0.15076927070E+04  0.15091712208E+04  0.00000000000E+00 0. -1.
</event>
<event>
 7    1  0.6557591E-006  0.2244237E+03  0.7818608E-02  0.1172697E+00
          2   -1    0    0  502    0  0.00000000000E+00  0.00000000000E+00  0.17870134692E+03  0.17870134692E+03  0.00000000000E+00 0. -1.
          1   -1    0    0  501    0 -0.00000000000E+00 -0.00000000000E+00 -0.12251787952E+04  0.12251787952E+04  0.00000000000E+00 0. -1.
         25    2    1    2    0    0  0.62454446506E+02 -0.17094325621E+03 -0.15596264903E+03  0.27031756156E+03  0.12500032584E+03 0.  0.
          2    1    1    2  501    0  0.57753864183E+02  0.23564332031E+03 -0.95302106742E+03  0.98341875017E+03  0.00000000000E+00 0. -1.
          1    1    1    2  502    0 -0.12020831069E+03 -0.64700064094E+02  0.62506268147E+02  0.15014383041E+03  0.00000000000E+00 0. -1.
         22    1    3    3    0    0 -0.16787594154E+02 -0.16685004180E+02  0.13997421969E+02  0.27498009087E+02  0.00000000000E+00 0. -1.
         22    1    3    3    0    0  0.79242040661E+02 -0.15425825203E+03 -0.16996007100E+03  0.24281955247E+03  0.00000000000E+00 0. -1.
</event>
<event>
 7    1  0.6557591E-006  0.1502096E+03  0.7818608E-02  0.1399724E+00
          2   -1    0    0  502    0  0.00000000000E+00  0.00000000000E+00  0.11046561984E+04  0.11046561984E+04  0.00000000000E+00 0. -1.
          1   -1    0    0  501    0 -0.00000000000E+00 -0.00000000000E+00 -0.45389150052E+03  0.45389150052E+03  0.00000000000E+00 0. -1.
         25    2    1    2    0    0 -0.11964372885E+03 -0.10282440519E+03  0.20722405932E+03  0.28888423100E+03  0.12499923201E+03 0.  0.
          2    1    1    2  501    0  0.12658260626E+03  0.80257660264E+02 -0.39929435468E+03  0.42649786625E+03  0.00000000000E+00 0. -1.
          1    1    1    2  502    0 -0.69388774180E+01  0.22566744927E+02  0.84283499324E+03  0.84316560166E+03  0.00000000000E+00 0. -1.
         22    1    3    3    0    0 -0.33567677738E+02 -0.97755765344E+02  0.16025814568E+03  0.19069780257E+03  0.00000000000E+00 0.  1.
         22    1    3    3    0    0 -0.86076051108E+02 -0.50686398469E+01  0.46965913639E+02  0.98186428432E+02  0.00000000000E+00 0.  1.
</event>
<event>
 7    1  0.6557591E-006  0.8456958E+02  0.7818608E-02  0.1408001E+00
          2   -1    0    0  502    0  0.00000000000E+00  0.00000000000E+00  0.25465023922E+04  0.25465023922E+04  0.00000000000E+00 0. -1.
          1   -1    0    0  501    0 -0.00000000000E+00 -0.00000000000E+00 -0.43950756535E+03  0.43950756535E+03  0.00000000000E+00 0. -1.
         25    2    1    2    0    0 -0.10512353094E+03  0.27189100993E+01  0.15455812974E+04  0.15541919122E+04  0.12503041176E+03 0.  0.
          2    1    1    2  501    0  0.31268597845E+02  0.23788504765E+02 -0.43276646645E+03  0.43454623765E+03  0.00000000000E+00 0. -1.
          1    1    1    2  502    0  0.73854933095E+02 -0.26507414865E+02  0.99417999594E+03  0.99727180774E+03  0.00000000000E+00 0. -1.
         22    1    3    3    0    0 -0.10430635074E+03 -0.42082613533E+02  0.88963425055E+03  0.89671615405E+03  0.00000000000E+00 0.  1.
         22    1    3    3    0    0 -0.81718019818E+00  0.44801523632E+02  0.65594704680E+03  0.65747575811E+03  0.00000000000E+00 0.  1.
</event>
<event>
 7    1  0.6557591E-006  0.1363503E+03  0.7818608E-02  0.1422867E+00
          2   -1    0    0  502    0  0.00000000000E+00  0.00000000000E+00  0.21677641883E+03  0.21677641883E+03  0.00000000000E+00 0. -1.
          1   -1    0    0  501    0 -0.00000000000E+00 -0.00000000000E+00 -0.19645771313E+04  0.19645771313E+04  0.00000000000E+00 0. -1.
         25    2    1    2    0    0 -0.12808988726E+03  0.36772844057E+02 -0.57955686990E+03  0.60767755942E+03  0.12500635778E+03 0.  0.
          2    1    1    2  501    0  0.13641445698E+03 -0.16712330236E+02 -0.13669222768E+04  0.13738139310E+04  0.00000000000E+00 0. -1.
          1    1    1    2  502    0 -0.83245697173E+01 -0.20060513821E+02  0.19867843426E+03  0.19986205973E+03  0.00000000000E+00 0. -1.
         22    1    3    3    0    0 -0.14391254955E+03  0.35783207944E+01 -0.49411752642E+03  0.51466081667E+03  0.00000000000E+00 0.  1.
         22    1    3    3    0    0  0.15822662288E+02  0.33194523262E+02 -0.85439343486E+02  0.93016742750E+02  0.00000000000E+00 0.  1.
</event>
<event>
 7    1  0.6557591E-006  0.5346469E+02  0.7818608E-02  0.1464520E+00
          2   -1    0    0  502    0  0.00000000000E+00  0.00000000000E+00  0.30643533378E+03  0.30643533378E+03  0.00000000000E+00 0. -1.
          1   -1    0    0  501    0 -0.00000000000E+00 -0.00000000000E+00 -0.29264014356E+03  0.29264014356E+03  0.00000000000E+00 0. -1.
         25    2    1    2    0    0 -0.56756910034E+02 -0.18734168051E+02  0.25406942664E+03  0.28939301535E+03  0.12499891157E+03 0.  0.
          2    1    1    2  501    0  0.26901269807E+02  0.46304094624E+02 -0.25932781747E+03  0.26479929080E+03  0.00000000000E+00 0. -1.
          1    1    1    2  502    0  0.29855640227E+02 -0.27569926572E+02  0.19053581048E+02  0.44883171181E+02  0.00000000000E+00 0. -1.
         22    1    3    3    0    0 -0.84614823312E+02 -0.28012039031E+02  0.24155595390E+03  0.25747547751E+03  0.00000000000E+00 0. -1.
         22    1    3    3    0    0  0.27857913278E+02  0.92778709794E+01  0.12513472740E+02  0.31917537846E+02  0.00000000000E+00 0. -1.
</event>
<event>
 7    1  0.6557591E-006  0.1611831E+03  0.7818608E-02  0.1300990E+00
          2   -1    0    0  502    0  0.00000000000E+00  0.00000000000E+00  0.19575487716E+03  0.19575487716E+03  0.00000000000E+00 0. -1.
          1   -1    0    0  501    0 -0.00000000000E+00 -0.00000000000E+00 -0.16198539864E+04  0.16198539864E+04  0.00000000000E+00 0. -1.
         25    2    1    2    0    0  0.10604343468E+03  0.74659690938E+02 -0.54479565520E+03  0.57380031929E+03  0.12500088401E+03 0.  0.
          2    1    1    2  501    0 -0.14807534764E+01  0.51099273955E+02 -0.10228930977E+04  0.10241697212E+04  0.00000000000E+00 0. -1.
          1    1    1    2  502    0 -0.10456268121E+03 -0.12575896489E+03  0.14358964367E+03  0.21763882310E+03  0.00000000000E+00 0. -1.
         22    1    3    3    0    0 -0.25869612056E+02  0.17273028142E+02 -0.15995849100E+03  0.16295494215E+03  0.00000000000E+00 0.  1.
         22    1    3    3    0    0  0.13191304674E+03  0.57386662797E+02 -0.38483716421E+03  0.41084537714E+03  0.00000000000E+00 0.  1.
</event>
<event>
 7    1  0.6557591E-006  0.7813006E+02  0.7818608E-02  0.1367576E+00
          2   -1    0    0  502    0  0.00000000000E+00  0.00000000000E+00  0.15082724162E+03  0.15082724162E+03  0.00000000000E+00 0. -1.
          1   -1    0    0  501    0 -0.00000000000E+00 -0.00000000000E+00 -0.17274028968E+03  0.17274028968E+03  0.00000000000E+00 0. -1.
         25    2    1    2    0    0 -0.10145952551E+03  0.28635994830E+02 -0.21845227340E+02  0.16497358867E+03  0.12500006194E+03 0.  0.
          2    1    1    2  501    0  0.30006407778E+02 -0.50701082519E+02 -0.42469727534E+02  0.72626868535E+02  0.00000000000E+00 0. -1.
          1    1    1    2  502    0  0.71453117731E+02  0.22065087689E+02  0.42401906813E+02  0.85967074101E+02  0.00000000000E+00 0. -1.
         22    1    3    3    0    0 -0.86482035075E+02  0.69244141913E+02  0.10000650339E+02  0.11123806267E+03  0.00000000000E+00 0. -1.
         22    1    3    3    0    0 -0.14977490434E+02 -0.40608147083E+02 -0.31845877679E+02  0.53735525999E+02  0.00000000000E+00 0. -1.
</event>
<event>
 7    1  0.6557591E-006  0.1059543E+03  0.7818608E-02  0.1315337E+00
          2   -1    0    0  502    0  0.00000000000E+00  0.00000000000E+00  0.15579465857E+04  0.15579465857E+04  0.00000000000E+00 0. -1.
          1   -1    0    0  501    0 -0.00000000000E+00 -0.00000000000E+00 -0.31449341685E+03  0.31449341685E+03  0.00000000000E+00 0. -1.
         25    2    1    2    0    0 -0.40923900488E+02  0.58781518623E+02  0.16871911241E+03  0.22185911467E+03  0.12500118123E+03 0.  0.
          2    1    1    2  501    0 -0.63636774790E+02 -0.24661080251E+02 -0.28162153183E+03  0.28977317884E+03  0.00000000000E+00 0. -1.
          1    1    1    2  502    0  0.10456067528E+03 -0.34120438372E+02  0.13563555882E+04  0.13608077090E+04  0.00000000000E+00 0. -1.
         22    1    3    3    0    0 -0.74954700622E+02  0.67892367394E+02  0.89055006064E+02  0.13475301407E+03  0.00000000000E+00 0. -1.
         22    1    3    3    0    0  0.34030800134E+02 -0.91108487705E+01  0.79664106344E+02  0.87106100606E+02  0.00000000000E+00 0. -1.
</event>
<event>
 7    1  0.6557591E-006  0.6164271E+02  0.7818608E-02  0.1527012E+00
          2   -1    0    0  502    0  0.00000000000E+00  0.00000000000E+00  0.11884355129E+03  0.11884355129E+03  0.00000000000E+00 0. -1.
          1   -1    0    0  501    0 -0.00000000000E+00 -0.00000000000E+00 -0.78004185931E+03  0.78004185931E+03  0.00000000000E+00 0. -1.
         25    2    1    2    0    0  0.18089166815E+02  0.70229464510E+02 -0.53529581245E+03  0.55445885846E+03  0.12499449294E+03 0.  0.
          2    1    1    2  501    0  0.13856548013E+01 -0.58219145836E+02 -0.23030114794E+03  0.23755001099E+03  0.00000000000E+00 0. -1.
          1    1    1    2  502    0 -0.19474821616E+02 -0.12010318674E+02  0.10439865236E+03  0.10687654114E+03  0.00000000000E+00 0. -1.
         22    1    3    3    0    0 -0.46120178895E+02  0.53623160532E+02 -0.18751196673E+03  0.20040771420E+03  0.00000000000E+00 0.  1.
         22    1    3    3    0    0  0.64209345710E+02  0.16606303978E+02 -0.34778384572E+03  0.35405114426E+03  0.00000000000E+00 0.  1.
</event>
<event>
 7    1  0.6557591E-006  0.7079620E+02  0.7818608E-02  0.1499992E+00
          2   -1    0    0  502    0  0.00000000000E+00  0.00000000000E+00  0.65057543397E+03  0.65057543397E+03  0.00000000000E+00 0. -1.
          1   -1    0    0  501    0 -0.00000000000E+00 -0.00000000000E+00 -0.73190233756E+02  0.73190233756E+02  0.00000000000E+00 0. -1.
         25    2    1    2    0    0  0.65515662591E+02  0.12496098387E+01  0.94418786979E+02  0.16980505079E+03  0.12499993748E+03 0.  0.
          2    1    1    2  501    0  0.12939535692E+01  0.23870544291E+02 -0.28693100719E+02  0.37346636119E+02  0.00000000000E+00 0. -1.
          1    1    1    2  502    0 -0.66809616160E+02 -0.25120154129E+02  0.51165951396E+03  0.51661398082E+03  0.00000000000E+00 0. -1.
         22    1    3    3    0    0 -0.34334283083E+02 -0.17482281286E+02  0.35352546249E+02  0.52290301970E+02  0.00000000000E+00 0.  1.
         22    1    3    3    0    0  0.99849945674E+02  0.18731891124E+02  0.59066240730E+02  0.11751474882E+03  0.00000000000E+00 0.  1.
</event>
<event>
 7    1  0.6557591E-006  0.2055163E+03  0.7818608E-02  0.1280116E+00
          2   -1    0    0  502    0  0.00000000000E+00  0.00000000000E+00  0.11385269017E+04  0.11385269017E+04  0.00000000000E+00 0. -1.
          1   -1    0    0  501    0 -0.00000000000E+00 -0.00000000000E+00 -0.62511023896E+03  0.62511023896E+03  0.00000000000E+00 0. -1.
         25    2    1    2    0    0 -0.14590524069E+03 -0.86078869153E+02 -0.55106521866E+02  0.21761668163E+03  0.12498952114E+03 0.  0.
          2    1    1    2  501    0  0.17809984281E+03  0.12267450596E+03 -0.46422307118E+03  0.51212464131E+03  0.00000000000E+00 0. -1.
          1    1    1    2  502    0 -0.32194602118E+02 -0.36595636810E+02  0.10327462558E+04  0.10338958177E+04  0.00000000000E+00 0. -1.
         22    1    3    3    0    0 -0.12855373697E+03 -0.42839153326E+02 -0.87113985879E+02  0.16109035627E+03  0.00000000000E+00 0. -1.
         22    1    3    3    0    0 -0.17351503717E+02 -0.43239715827E+02  0.32007464013E+02  0.56526325359E+02  0.00000000000E+00 0. -1.
</event>
<event>
 7    1  0.6557591E-006  0.7343478E+02  0.7818608E-02  0.1354456E+00
          2   -1    0    0  502    0  0.00000000000E+00  0.00000000000E+00  0.71475777354E+03  0.71475777354E+03  0.00000000000E+00 0. -1.
          1   -1    0    0  501    0 -0.00000000000E+00 -0.00000000000E+00 -0.15940093151E+03  0.15940093151E+03  0.00000000000E+00 0. -1.
         25    2    1    2    0    0  0.17699945576E+00  0.36213096308E+02  0.97154757012E+02  0.16240593661E+03  0.12500088705E+03 0.  0.
          2    1    1    2  501    0  0.69948932128E+02 -0.19516307284E+01 -0.11426522667E+03  0.13398956673E+03  0.00000000000E+00 0. -1.
          1    1    1    2  502    0 -0.70125931583E+02 -0.34261465580E+02  0.57246731168E+03  0.57776320171E+03  0.00000000000E+00 0. -1.
         22    1    3    3    0    0  0.32055569450E+02 -0.37610482183E+02  0.42482095860E+02  0.65167755611E+02  0.00000000000E+00 0. -1.
         22    1    3    3    0    0 -0.31878569994E+02  0.73823578491E+02  0.54672661153E+02  0.97238180997E+02  0.00000000000E+00 0. -1.
</event>
<event>
 7    1  0.6557591E-006  0.1160583E+03  0.7818608E-02  0.1366314E+00
          2   -1    0    0  502    0  0.00000000000E+00  0.00000000000E+00  0.21050788280E+03  0.21050788280E+03  0.00000000000E+00 0. -1.
          1   -1    0    0  501    0 -0.00000000000E+00 -0.00000000000E+00 -0.31221917314E+03  0.31221917314E+03  0.00000000000E+00 0. -1.
         25    2    1    2    0    0 -0.32906544979E+01 -0.11842178680E+03 -0.14732109071E+03  0.22663961101E+03  0.12500984568E+03 0.  0.
          2    1    1    2  501    0 -0.38852626773E+02  0.98425025584E+01 -0.10110658967E+03  0.10876094859E+03  0.00000000000E+00 0. -1.
          1    1    1    2  502    0  0.42143281271E+02  0.10857928424E+03  0.14671639004E+03  0.18732649633E+03  0.00000000000E+00 0. -1.
         22    1    3    3    0    0 -0.28929791126E+02 -0.11349780171E+03 -0.15945507152E+03  0.19784995234E+03  0.00000000000E+00 0.  1.
         22    1    3    3    0    0  0.25639136628E+02 -0.49239850837E+01  0.12133980810E+02  0.28789658672E+02  0.00000000000E+00 0.  1.
</event>
<event>
 7    1  0.6557591E-006  0.7750347E+02  0.7818608E-02  0.1378081E+00
          2   -1    0    0  502    0  0.00000000000E+00  0.00000000000E+00  0.15198807289E+04  0.15198807289E+04  0.00000000000E+00 0. -1.
          1   -1    0    0  501    0 -0.00000000000E+00 -0.00000000000E+00 -0.27505912730E+04  0.27505912730E+04  0.00000000000E+00 0. -1.
         25    2    1    2    0    0 -0.53097266141E+02  0.63950114269E+02  0.10845560728E+03  0.18519062610E+03  0.12499604977E+03 0.  0.
          2    1    1    2  501    0  0.35852107389E+00 -0.77552648055E+02 -0.27111289336E+04  0.27122379388E+04  0.00000000000E+00 0. -1.
          1    1    1    2  502    0  0.52738745067E+02  0.13602533787E+02  0.13719627823E+04  0.13730434371E+04  0.00000000000E+00 0. -1.
         22    1    3    3    0    0  0.11158706644E+02  0.53944053423E+02 -0.40584426599E+01  0.55235392553E+02  0.00000000000E+00 0. -1.
         22    1    3    3    0    0 -0.64255972785E+02  0.10006060846E+02  0.11251404994E+03  0.12995523355E+03  0.00000000000E+00 0. -1.
</event>
<event>
 7    1  0.6557591E-006  0.9231677E+02  0.7818608E-02  0.1358373E+00
          2   -1    0    0  502    0  0.00000000000E+00  0.00000000000E+00  0.11249835236E+04  0.11249835236E+04  0.00000000000E+00 0. -1.
          1   -1    0    0  501    0 -0.00000000000E+00 -0.00000000000E+00 -0.13668386297E+04  0.13668386297E+04  0.00000000000E+00 0. -1.
         25    2    1    2    0    0  0.17013043965E+02 -0.57610608398E+02  0.65539604258E+03  0.66990605119E+03  0.12498687506E+03 0.  0.
          2    1    1    2  501    0 -0.70836407912E+02  0.59355823647E+02 -0.13564378177E+04  0.13595824593E+04  0.00000000000E+00 0. -1.
          1    1    1    2  502    0  0.53823363947E+02 -0.17452152492E+01  0.45918666901E+03  0.46233364282E+03  0.00000000000E+00 0. -1.
         22    1    3    3    0    0 -0.48283971262E+02 -0.29750695972E+02  0.16676629543E+03  0.17614608450E+03  0.00000000000E+00 0.  1.
         22    1    3    3    0    0  0.65297015227E+02 -0.27859912426E+02  0.48862974715E+03  0.49375996670E+03  0.00000000000E+00 0.  1.
</event>
<event>
 7    1  0.6557591E-006  0.1772807E+03  0.7818608E-02  0.1255625E+00
          2   -1    0    0  502    0  0.00000000000E+00  0.00000000000E+00  0.12434200030E+04  0.12434200030E+04  0.00000000000E+00 0. -1.
          1   -1    0    0  501    0 -0.00000000000E+00 -0.00000000000E+00 -0.60184572320E+03  0.60184572320E+03  0.00000000000E+00 0. -1.
         25    2    1    2    0    0  0.10683615366E+03  0.81991041864E+02 -0.12020370996E+03  0.21956853638E+03  0.12499966242E+03 0.  0.
          2    1    1    2  501    0 -0.12854492378E+03 -0.15028650316E+03 -0.40817052434E+03  0.45355595841E+03  0.00000000000E+00 0. -1.
          1    1    1    2  502    0  0.21708770126E+02  0.68295461299E+02  0.11699485141E+04  0.11721412314E+04  0.00000000000E+00 0. -1.
         22    1    3    3    0    0  0.12225304124E+03  0.39523104415E+02 -0.53890151717E+02  0.13932706243E+03  0.00000000000E+00 0. -1.
         22    1    3    3    0    0 -0.15416887581E+02  0.42467937449E+02 -0.66313558245E+02  0.80241473945E+02  0.00000000000E+00 0. -1.
</event>
<event>
 7    1  0.6557591E-006  0.1461178E+03  0.7818608E-02  0.1314857E+00
          2   -1    0    0  502    0  0.00000000000E+00  0.00000000000E+00  0.61190381628E+02  0.61190381628E+02  0.00000000000E+00 0. -1.
          1   -1    0    0  501    0 -0.00000000000E+00 -0.00000000000E+00 -0.16909061294E+04  0.16909061294E+04  0.00000000000E+00 0. -1.
         25    2    1    2    0    0 -0.19001355801E+02 -0.12163410145E+03 -0.68010126752E+03  0.70236623711E+03  0.12499876317E+03 0.  0.
          2    1    1    2  501    0  0.41421639623E+02 -0.27471379769E+02 -0.88382386046E+03  0.88522033712E+03  0.00000000000E+00 0. -1.
          1    1    1    2  502    0 -0.22420283821E+02  0.14910548122E+03 -0.65790619816E+02  0.16450993682E+03  0.00000000000E+00 0. -1.
         22    1    3    3    0    0 -0.30652428923E+02  0.16315334574E+02 -0.18714531406E+03  0.19033951276E+03  0.00000000000E+00 0. -1.
         22    1    3    3    0    0  0.11651073122E+02 -0.13794943602E+03 -0.49295595346E+03  0.51202672435E+03  0.00000000000E+00 0. -1.
</event>
<event>
 7    1  0.6557591E-006  0.3644613E+02  0.7818608E-02  0.1579876E+00
          2   -1    0    0  502    0  0.00000000000E+00  0.00000000000E+00  0.15207525813E+04  0.15207525813E+04  0.00000000000E+00 0. -1.
          1   -1    0    0  501    0 -0.00000000000E+00 -0.00000000000E+00 -0.33838900707E+02  0.33838900707E+02  0.00000000000E+00 0. -1.
         25    2    1    2    0    0 -0.43287804314E+02  0.13835854344E+02  0.67892497249E+03  0.69183862481E+03  0.12504519037E+03 0.  0.
          2    1    1    2  501    0  0.89829330925E+01 -0.26094158561E+02 -0.19924873880E+02  0.34038196149E+02  0.00000000000E+00 0. -1.
          1    1    1    2  502    0  0.34304871222E+02  0.12258304217E+02  0.82791358198E+03  0.82871466105E+03  0.00000000000E+00 0. -1.
         22    1    3    3    0    0 -0.61890040312E+02  0.16195152496E+02  0.15641160314E+03  0.16898890393E+03  0.00000000000E+00 0. -1.
         22    1    3    3    0    0  0.18602235997E+02 -0.23592981526E+01  0.52251336936E+03  0.52284972088E+03  0.00000000000E+00 0. -1.
</event>
<event>
 7    1  0.6557591E-006  0.3752610E+02  0.7818608E-02  0.1593117E+00
          2   -1    0    0  502    0  0.00000000000E+00  0.00000000000E+00  0.18619788951E+04  0.18619788951E+04  0.00000000000E+00 0. -1.
          1   -1    0    0  501    0 -0.00000000000E+00 -0.00000000000E+00 -0.76717260624E+03  0.76717260624E+03  0.00000000000E+00 0. -1.
         25    2    1    2    0    0 -0.89023069995E+01 -0.37675147804E+02  0.91690636739E+02  0.15978381261E+03  0.12500010430E+03 0.  0.
          2    1    1    2  501    0  0.24468797886E+02  0.34848385383E+01 -0.73271441654E+03  0.73313114951E+03  0.00000000000E+00 0. -1.
          1    1    1    2  502    0 -0.15566490887E+02  0.34190309266E+02  0.17358300687E+04  0.17362365392E+04  0.00000000000E+00 0. -1.
         22    1    3    3    0    0 -0.28392707322E+02  0.95830347146E+01  0.10313382704E+03  0.10739909991E+03  0.00000000000E+00 0. -1.
         22    1    3    3    0    0  0.19490400322E+02 -0.47258182519E+02 -0.11443190297E+02  0.52384712693E+02  0.00000000000E+00 0. -1.
</event>
<event>
 7    1  0.6557591E-006  0.9589976E+02  0.7818608E-02  0.1352005E+00
          2   -1    0    0  502    0  0.00000000000E+00  0.00000000000E+00  0.56478408544E+03  0.56478408544E+03  0.00000000000E+00 0. -1.
          1   -1    0    0  501    0 -0.00000000000E+00 -0.00000000000E+00 -0.45293140058E+03  0.45293140058E+03  0.00000000000E+00 0. -1.
         25    2    1    2    0    0  0.11708339243E+03  0.90685734337E+02 -0.88756727863E+02  0.21315635593E+03  0.12500180854E+03 0.  0.
          2    1    1    2  501    0 -0.37695589166E+02 -0.39652055493E+02 -0.29500690063E+03  0.30003718831E+03  0.00000000000E+00 0. -1.
          1    1    1    2  502    0 -0.79387803260E+02 -0.51033678844E+02  0.49561631335E+03  0.50452194178E+03  0.00000000000E+00 0. -1.
         22    1    3    3    0    0 -0.16746950885E+02  0.87442309679E+01 -0.47174741466E+02  0.50817105108E+02  0.00000000000E+00 0. -1.
         22    1    3    3    0    0  0.13383034331E+03  0.81941503369E+02 -0.41581986397E+02  0.16233925082E+03  0.00000000000E+00 0. -1.
</event>
<event>
 7    1  0.6557591E-006  0.1082531E+03  0.7818608E-02  0.1276606E+00
          2   -1    0    0  502    0  0.00000000000E+00  0.00000000000E+00  0.11938356788E+04  0.11938356788E+04  0.00000000000E+00 0. -1.
          1   -1    0    0  501    0 -0.00000000000E+00 -0.00000000000E+00 -0.17244535116E+04  0.17244535116E+04  0.00000000000E+00 0. -1.
         25    2    1    2    0    0  0.14061181175E+02  0.41001478353E+02 -0.11552328522E+03  0.17564048836E+03  0.12500045472E+03 0.  0.
          2    1    1    2  501    0 -0.10932645874E+03 -0.32041577400E+02 -0.15748436579E+04  0.15789589875E+04  0.00000000000E+00 0. -1.
          1    1    1    2  502    0  0.95265277567E+02 -0.89599009525E+01  0.11597491104E+04  0.11636897146E+04  0.00000000000E+00 0. -1.
         22    1    3    3    0    0  0.14490978929E+02  0.73049608311E+02 -0.23340835125E+02  0.78045040387E+02  0.00000000000E+00 0. -1.
         22    1    3    3    0    0 -0.42979775363E+00 -0.32048129958E+02 -0.92182450091E+02  0.97595447971E+02  0.00000000000E+00 0. -1.
</event>
<event>
 7    1  0.6557591E-006  0.1015282E+03  0.7818608E-02  0.1392056E+00
          2   -1    0    0  502    0  0.00000000000E+00  0.00000000000E+00  0.34852785015E+04  0.34852785015E+04  0.00000000000E+00 0. -1.
          1   -1    0    0  501    0 -0.00000000000E+00 -0.00000000000E+00 -0.17740686521E+03  0.17740686521E+03  0.00000000000E+00 0. -1.
         25    2    1    2    0    0 -0.86833928353E+02 -0.74160598126E+02  0.18811666107E+03  0.25308675599E+03  0.12500040983E+03 0.  0.
          2    1    1    2  501    0 -0.72395938466E+01  0.36417240837E+02 -0.14174323936E+03  0.14652567370E+03  0.00000000000E+00 0. -1.
          1    1    1    2  502    0  0.94073522200E+02  0.37743357289E+02  0.32614982146E+04  0.32630729370E+04  0.00000000000E+00 0. -1.
         22    1    3    3    0    0 -0.11133611848E+03 -0.82424962213E+02  0.13221997438E+03  0.19149863524E+03  0.00000000000E+00 0. -1.
         22    1    3    3    0    0  0.24502190124E+02  0.82643640871E+01  0.55896686693E+02  0.61588120753E+02  0.00000000000E+00 0. -1.
</event>
<event>
 7    1  0.1204277E-005  0.6193839E+02  0.7818608E-02  0.1400948E+00
          2   -1    0    0  502    0  0.00000000000E+00  0.00000000000E+00  0.26803492060E+04  0.26803492060E+04  0.00000000000E+00 0. -1.
          1   -1    0    0  501    0 -0.00000000000E+00 -0.00000000000E+00 -0.11481702175E+04  0.11481702175E+04  0.00000000000E+00 0. -1.
         25    2    1    2    0    0 -0.48420124333E+01 -0.51654885594E+02 -0.32481153377E+03  0.35187857883E+03  0.12499731789E+03 0.  0.
          2    1    1    2  501    0  0.54720073549E+02  0.14869279369E+02 -0.80847189545E+03  0.81045801104E+03  0.00000000000E+00 0. -1.
          1    1    1    2  502    0 -0.49878061116E+02  0.36785606225E+02  0.26654624177E+04  0.26661828336E+04  0.00000000000E+00 0. -1.
         22    1    3    3    0    0  0.44655285029E+02 -0.17155595334E+02 -0.45138148165E+02  0.65771280602E+02  0.00000000000E+00 0. -1.
         22    1    3    3    0    0 -0.49497297462E+02 -0.34499290260E+02 -0.27967338560E+03  0.28610729823E+03  0.00000000000E+00 0. -1.
</event>
<event>
 7    1  0.6557591E-006  0.9772698E+02  0.7818608E-02  0.1307643E+00
          2   -1    0    0  502    0  0.00000000000E+00  0.00000000000E+00  0.41308021676E+02  0.41308021676E+02  0.00000000000E+00 0. -1.
          1   -1    0    0  501    0 -0.00000000000E+00 -0.00000000000E+00 -0.25449134964E+04  0.25449134964E+04  0.00000000000E+00 0. -1.
         25    2    1    2    0    0  0.45559481706E+02 -0.10474984450E+03 -0.76377812900E+03  0.78232351512E+03  0.12499942269E+03 0.  0.
          2    1    1    2  501    0 -0.78490815109E+02  0.11523021975E+02 -0.16923660807E+04  0.16942244654E+04  0.00000000000E+00 0. -1.
          1    1    1    2  502    0  0.32931333404E+02  0.93226822530E+02 -0.47461265015E+02  0.10967353754E+03  0.00000000000E+00 0. -1.
         22    1    3    3    0    0 -0.12410187918E+01  0.19964472243E+02 -0.27477237924E+03  0.27549951120E+03  0.00000000000E+00 0. -1.
         22    1    3    3    0    0  0.46800500498E+02 -0.12471431675E+03 -0.48900574976E+03  0.50682400392E+03  0.00000000000E+00 0. -1.
</event>
<event>
 7    1  0.6557591E-006  0.3310877E+02  0.7818608E-02  0.1625618E+00
          2   -1    0    0  502    0  0.00000000000E+00  0.00000000000E+00  0.11136754143E+04  0.11136754143E+04  0.00000000000E+00 0. -1.
          1   -1    0    0  501    0 -0.00000000000E+00 -0.00000000000E+00 -0.29535487926E+03  0.29535487926E+03  0.00000000000E+00 0. -1.
         25    2    1    2    0    0  0.22488897211E+02 -0.47402162359E+02  0.46060979847E+02  0.14316641224E+03  0.12498916847E+03 0.  0.
          2    1    1    2  501    0 -0.17788418674E+02  0.14723570151E+02 -0.24599391561E+03  0.24707532834E+03  0.00000000000E+00 0. -1.
          1    1    1    2  502    0 -0.47004785368E+01  0.32678592208E+02  0.10182534708E+04  0.10187885530E+04  0.00000000000E+00 0. -1.
         22    1    3    3    0    0 -0.22223916367E+01 -0.21962327745E+02 -0.42432272108E+02  0.47830749323E+02  0.00000000000E+00 0. -1.
         22    1    3    3    0    0  0.24711288848E+02 -0.25439834614E+02  0.88493251955E+02  0.95335662914E+02  0.00000000000E+00 0. -1.
</event>
<event>
 7    1  0.6557591E-006  0.1134207E+03  0.7818608E-02  0.1400056E+00
          2   -1    0    0  502    0  0.00000000000E+00  0.00000000000E+00  0.24147273477E+02  0.24147273477E+02  0.00000000000E+00 0. -1.
          1   -1    0    0  501    0 -0.00000000000E+00 -0.00000000000E+00 -0.29521848955E+04  0.29521848955E+04  0.00000000000E+00 0. -1.
         25    2    1    2    0    0  0.74358627656E+02  0.11770572442E+03 -0.16146716578E+04  0.16254765107E+04  0.12500192611E+03 0.  0.
          2    1    1    2  501    0 -0.25220689237E+02 -0.18342456634E+02 -0.11661798224E+04  0.11665967200E+04  0.00000000000E+00 0. -1.
          1    1    1    2  502    0 -0.49137938419E+02 -0.99363267789E+02 -0.14718614193E+03  0.18425893833E+03  0.00000000000E+00 0. -1.
         22    1    3    3    0    0  0.37086415024E+02  0.32745553767E+02 -0.11789256326E+04  0.11799632709E+04  0.00000000000E+00 0. -1.
         22    1    3    3    0    0  0.37272212633E+02  0.84960170655E+02 -0.43574602519E+03  0.44551323987E+03  0.00000000000E+00 0. -1.
</event>
<event>
 7    1  0.6557591E-006  0.3528484E+02  0.7818608E-02  0.1575302E+00
          2   -1    0    0  502    0  0.00000000000E+00  0.00000000000E+00  0.33914160696E+04  0.33914160696E+04  0.00000000000E+00 0. -1.
          1   -1    0    0  501    0 -0.00000000000E+00 -0.00000000000E+00 -0.21763687614E+03  0.21763687614E+03  0.00000000000E+00 0. -1.
         25    2    1    2    0    0  0.24403891020E+02 -0.36366231317E+02  0.21055503027E+04  0.21097121387E+04  0.12500071331E+03 0.  0.
          2    1    1    2  501    0 -0.34191385290E+02  0.87233395430E+01 -0.21394307488E+03  0.21683354623E+03  0.00000000000E+00 0. -1.
          1    1    1    2  502    0  0.97874942698E+01  0.27642891774E+02  0.12821719657E+04  0.12825072608E+04  0.00000000000E+00 0. -1.
         22    1    3    3    0    0  0.41090611746E+02 -0.34815270178E+01  0.19246396843E+04  0.19250814200E+04  0.00000000000E+00 0.  1.
         22    1    3    3    0    0 -0.16686720726E+02 -0.32884704300E+02  0.18091061845E+03  0.18463071871E+03  0.00000000000E+00 0.  1.
</event>
<event>
 7    1  0.6557591E-006  0.4353600E+02  0.7818608E-02  0.1496269E+00
          2   -1    0    0  502    0  0.00000000000E+00  0.00000000000E+00  0.15169338668E+04  0.15169338668E+04  0.00000000000E+00 0. -1.
          1   -1    0    0  501    0 -0.00000000000E+00 -0.00000000000E+00 -0.52242892281E+02  0.52242892281E+02  0.00000000000E+00 0. -1.
         25    2    1    2    0    0  0.19348442081E+01  0.76497622963E+01  0.10591683819E+04  0.10665542582E+04  0.12505223672E+03 0.  0.
          2    1    1    2  501    0  0.28581402361E+02 -0.33330519592E+02 -0.37540589657E+02  0.57767776217E+02  0.00000000000E+00 0. -1.
          1    1    1    2  502    0 -0.30516246570E+02  0.25680757296E+02  0.44306318231E+03  0.44485472473E+03  0.00000000000E+00 0. -1.
         22    1    3    3    0    0 -0.52557117237E+02 -0.74459269401E+00  0.79275221125E+03  0.79449284040E+03  0.00000000000E+00 0.  1.
         22    1    3    3    0    0  0.54491961445E+02  0.83943549903E+01  0.26641617066E+03  0.27206141778E+03  0.00000000000E+00 0.  1.
</event>
<event>
 7    1  0.6557591E-006  0.1576396E+03  0.7818608E-02  0.1386473E+00
          2   -1    0    0  502    0  0.00000000000E+00  0.00000000000E+00  0.11264862094E+04  0.11264862094E+04  0.00000000000E+00 0. -1.
          1   -1    0    0  501    0 -0.00000000000E+00 -0.00000000000E+00 -0.10461489127E+03  0.10461489127E+03  0.00000000000E+00 0. -1.
         25    2    1    2    0    0 -0.53756886925E+02 -0.14165405766E+03  0.39067766245E+02  0.20026799617E+03  0.12500121994E+03 0.  0.
          2    1    1    2  501    0 -0.24657158009E+02  0.41982156824E+01 -0.89260492860E+01  0.26557010597E+02  0.00000000000E+00 0. -1.
          1    1    1    2  502    0  0.78414044934E+02  0.13745584198E+03  0.99172960120E+03  0.10042760939E+04  0.00000000000E+00 0. -1.
         22    1    3    3    0    0 -0.42692614284E+02 -0.30307932487E+02  0.66911677388E+02  0.84961183236E+02  0.00000000000E+00 0. -1.
         22    1    3    3    0    0 -0.11064272642E+02 -0.11134612518E+03 -0.27843911143E+02  0.11530681293E+03  0.00000000000E+00 0. -1.
</event>
<event>
 7    1  0.6557591E-006  0.3846931E+02  0.7818608E-02  0.1530800E+00
          2   -1    0    0  502    0  0.00000000000E+00  0.00000000000E+00  0.18001827232E+04  0.18001827232E+04  0.00000000000E+00 0. -1.
          1   -1    0    0  501    0 -0.00000000000E+00 -0.00000000000E+00 -0.31322640665E+03  0.31322640665E+03  0.00000000000E+00 0. -1.
         25    2    1    2    0    0 -0.47238464954E+02 -0.10158677821E+02  0.16919425073E+03  0.21583866602E+03  0.12499985586E+03 0.  0.
          2    1    1    2  501    0  0.15620532286E+02  0.32164732294E+02 -0.28856981782E+03  0.29077673702E+03  0.00000000000E+00 0. -1.
          1    1    1    2  502    0  0.31617932668E+02 -0.22006054473E+02  0.16063318836E+04  0.16067937268E+04  0.00000000000E+00 0. -1.
         22    1    3    3    0    0 -0.17084293125E+02 -0.60352633050E+02  0.13287179383E+03  0.14693272945E+03  0.00000000000E+00 0. -1.
         22    1    3    3    0    0 -0.30154171829E+02  0.50193955230E+02  0.36322456895E+02  0.68905936574E+02  0.00000000000E+00 0. -1.
</event>
<event>
 7    1  0.6557591E-006  0.6240190E+02  0.7818608E-02  0.1446685E+00
          2   -1    0    0  502    0  0.00000000000E+00  0.00000000000E+00  0.65800515203E+03  0.65800515203E+03  0.00000000000E+00 0. -1.
          1   -1    0    0  501    0 -0.00000000000E+00 -0.00000000000E+00 -0.11266016938E+04  0.11266016938E+04  0.00000000000E+00 0. -1.
         25    2    1    2    0    0 -0.36887618112E+02 -0.58366281783E+02  0.61623082471E+02  0.15553239867E+03  0.12500241407E+03 0.  0.
          2    1    1    2  501    0  0.57461080780E+02  0.24452804914E+02 -0.10780263259E+04  0.10798335403E+04  0.00000000000E+00 0. -1.
          1    1    1    2  502    0 -0.20573462668E+02  0.33913476869E+02  0.54780670169E+03  0.54924090680E+03  0.00000000000E+00 0. -1.
         22    1    3    3    0    0 -0.59405591172E+02 -0.87635827491E+02  0.46022565963E+02  0.11544322891E+03  0.00000000000E+00 0.  1.
         22    1    3    3    0    0  0.22517973059E+02  0.29269545708E+02  0.15600516508E+02  0.40089169759E+02  0.00000000000E+00 0.  1.
</event>
<event>
 7    1  0.6557591E-006  0.4749530E+02  0.7818608E-02  0.1501361E+00
          2   -1    0    0  502    0  0.00000000000E+00  0.00000000000E+00  0.25447989718E+04  0.25447989718E+04  0.00000000000E+00 0. -1.
          1   -1    0    0  501    0 -0.00000000000E+00 -0.00000000000E+00 -0.14362716850E+03  0.14362716850E+03  0.00000000000E+00 0. -1.
         25    2    1    2    0    0  0.22893536803E+02  0.29403029198E+02  0.66619248336E+02  0.14646613666E+03  0.12500221113E+03 0.  0.
          2    1    1    2  501    0  0.24558727493E+02 -0.25357144292E+02 -0.10046009606E+03  0.10648167337E+03  0.00000000000E+00 0. -1.
          1    1    1    2  502    0 -0.47452264297E+02 -0.40458849061E+01  0.24350126510E+04  0.24354783303E+04  0.00000000000E+00 0. -1.
         22    1    3    3    0    0 -0.79347595896E+00  0.40988842452E+01  0.98967391092E+02  0.99055413561E+02  0.00000000000E+00 0. -1.
         22    1    3    3    0    0  0.23687012762E+02  0.25304144953E+02 -0.32348142756E+02  0.47410723103E+02  0.00000000000E+00 0. -1.
</event>
<event>
 7    1  0.6557591E-006  0.9674325E+02  0.7818608E-02  0.1295416E+00
          2   -1    0    0  502    0  0.00000000000E+00  0.00000000000E+00  0.17221849555E+04  0.17221849555E+04  0.00000000000E+00 0. -1.
          1   -1    0    0  501    0 -0.00000000000E+00 -0.00000000000E+00 -0.25612538944E+02  0.25612538944E+02  0.00000000000E+00 0. -1.
         25    2    1    2    0    0  0.71220730634E+02  0.42951815745E+00  0.32763232860E+03  0.35782791298E+03  0.12500118240E+03 0.  0.
          2    1    1    2  501    0 -0.12923557928E+02 -0.88739410307E+02  0.24214461950E+03  0.25821641707E+03  0.00000000000E+00 0. -1.
          1    1    1    2  502    0 -0.58297172706E+02  0.88309892149E+02  0.11267954684E+04  0.11317531644E+04  0.00000000000E+00 0. -1.
         22    1    3    3    0    0  0.56261531023E+02  0.13750239066E+02  0.42119738029E+02  0.71613555135E+02  0.00000000000E+00 0. -1.
         22    1    3    3    0    0  0.14959199611E+02 -0.13320720908E+02  0.28551259057E+03  0.28621435784E+03  0.00000000000E+00 0. -1.
</event>
<event>
 7    1  0.6557591E-006  0.8336383E+02  0.7818608E-02  0.1375240E+00
          2   -1    0    0  502    0  0.00000000000E+00  0.00000000000E+00  0.25507479861E+03  0.25507479861E+03  0.00000000000E+00 0. -1.
          1   -1    0    0  501    0 -0.00000000000E+00 -0.00000000000E+00 -0.56773421417E+03  0.56773421417E+03  0.00000000000E+00 0. -1.
         25    2    1    2    0    0 -0.20527592084E+02 -0.70052706328E+02 -0.83079613586E+02  0.16690016325E+03  0.12499871438E+03 0.  0.
          2    1    1    2  501    0  0.50978280283E+02 -0.93509891842E+01 -0.43265374691E+03  0.43574704907E+03  0.00000000000E+00 0. -1.
          1    1    1    2  502    0 -0.30450688198E+02  0.79403695512E+02  0.20307394493E+03  0.22016180046E+03  0.00000000000E+00 0. -1.
         22    1    3    3    0    0  0.32695334065E+02  0.19784165578E+02 -0.10168528717E+02  0.39544873922E+02  0.00000000000E+00 0.  1.
         22    1    3    3    0    0 -0.53222926150E+02 -0.89836871906E+02 -0.72911084870E+02  0.12735528932E+03  0.00000000000E+00 0.  1.
</event>
<event>
 7    1  0.6557591E-006  0.1030038E+03  0.7818608E-02  0.1291889E+00
          2   -1    0    0  502    0  0.00000000000E+00  0.00000000000E+00  0.20414939001E+04  0.20414939001E+04  0.00000000000E+00 0. -1.
          1   -1    0    0  501    0 -0.00000000000E+00 -0.00000000000E+00 -0.36888288921E+02  0.36888288921E+02  0.00000000000E+00 0. -1.
         25    2    1    2    0    0 -0.28463113537E+02  0.64476645703E+02  0.10383784967E+04  0.10482461658E+04  0.12499093992E+03 0.  0.
          2    1    1    2  501    0 -0.81076874689E+02  0.31653666791E+02  0.46010095728E+02  0.98449698524E+02  0.00000000000E+00 0. -1.
          1    1    1    2  502    0  0.10953998823E+03 -0.96130312494E+02  0.92021701874E+03  0.93168632467E+03  0.00000000000E+00 0. -1.
         22    1    3    3    0    0 -0.54725843431E+02  0.88657501472E+02  0.65817182017E+03  0.66636717760E+03  0.00000000000E+00 0. -1.
         22    1    3    3    0    0  0.26262729894E+02 -0.24180855770E+02  0.38020667653E+03  0.38187898823E+03  0.00000000000E+00 0. -1.
</event>
<event>
 7    1  0.6557591E-006  0.1131257E+03  0.7818608E-02  0.1329038E+00
          2   -1    0    0  502    0  0.00000000000E+00  0.00000000000E+00  0.10126738531E+04  0.10126738531E+04  0.00000000000E+00 0. -1.
          1   -1    0    0  501    0 -0.00000000000E+00 -0.00000000000E+00 -0.37336072038E+03  0.37336072038E+03  0.00000000000E+00 0. -1.
         25    2    1    2    0    0  0.14197308754E+03  0.51095711559E+02 -0.16037743311E+03  0.25320316157E+03  0.12499516251E+03 0.  0.
          2    1    1    2  501    0 -0.10056578334E+03 -0.12536309583E+02 -0.15023547929E+03  0.18122178421E+03  0.00000000000E+00 0. -1.
          1    1    1    2  502    0 -0.41407304199E+02 -0.38559401977E+02  0.94992604517E+03  0.95160962774E+03  0.00000000000E+00 0. -1.
         22    1    3    3    0    0  0.28776766686E+02  0.65842149344E+02 -0.10260397006E+03  0.12526318535E+03  0.00000000000E+00 0.  1.
         22    1    3    3    0    0  0.11319632085E+03 -0.14746437785E+02 -0.57773463048E+02  0.12793997622E+03  0.00000000000E+00 0.  1.
</event>
<event>
 7    1  0.6557591E-006  0.1346355E+03  0.7818608E-02  0.1395752E+00
          2   -1    0    0  502    0  0.00000000000E+00  0.00000000000E+00  0.78794657670E+03  0.78794657670E+03  0.00000000000E+00 0. -1.
          1   -1    0    0  501    0 -0.00000000000E+00 -0.00000000000E+00 -0.11111630441E+04  0.11111630441E+04  0.00000000000E+00 0. -1.
         25    2    1    2    0    0 -0.42910378419E+02  0.13119505992E+03 -0.13749243405E+03  0.23147720963E+03  0.12499633927E+03 0.  0.
          2    1    1    2  501    0  0.66176928582E+02 -0.11713488926E+03 -0.92154287294E+03  0.93131156700E+03  0.00000000000E+00 0. -1.
          1    1    1    2  502    0 -0.23266550163E+02 -0.14060170667E+02  0.73581883963E+03  0.73632084414E+03  0.00000000000E+00 0. -1.
         22    1    3    3    0    0 -0.82745844989E+02  0.52444948214E+02 -0.71989549081E+02  0.12157237611E+03  0.00000000000E+00 0.  1.
         22    1    3    3    0    0  0.39835466570E+02  0.78750111709E+02 -0.65502884968E+02  0.10990483352E+03  0.00000000000E+00 0.  1.
</event>
<event>
 7    1  0.6557591E-006  0.1556044E+03  0.7818608E-02  0.1306608E+00
          2   -1    0    0  502    0  0.00000000000E+00  0.00000000000E+00  0.20527384021E+04  0.20527384021E+04  0.00000000000E+00 0. -1.
          1   -1    0    0  501    0 -0.00000000000E+00 -0.00000000000E+00 -0.36778235236E+03  0.36778235236E+03  0.00000000000E+00 0. -1.
         25    2    1    2    0    0  0.12428702952E+03 -0.23868741438E+02 -0.73020144345E+02  0.19228846362E+03  0.12500371690E+03 0.  0.
          2    1    1    2  501    0 -0.17130808305E+03  0.60156673606E+01 -0.20352167624E+03  0.26608968464E+03  0.00000000000E+00 0. -1.
          1    1    1    2  502    0  0.47021053536E+02  0.17853074077E+02  0.19614978703E+04  0.19621426062E+04  0.00000000000E+00 0. -1.
         22    1    3    3    0    0  0.95505701661E+01 -0.33668142105E+02 -0.68644964527E+02  0.77051205949E+02  0.00000000000E+00 0. -1.
         22    1    3    3    0    0  0.11473645935E+03  0.97994006666E+01 -0.43751798180E+01  0.11523725767E+03  0.00000000000E+00 0. -1.
</event>
<event>
 7    1  0.6557591E-006  0.5326327E+02  0.7818608E-02  0.1451383E+00
          2   -1    0    0  502    0  0.00000000000E+00  0.00000000000E+00  0.94635410336E+03  0.94635410336E+03  0.00000000000E+00 0. -1.
          1   -1    0    0  501    0 -0.00000000000E+00 -0.00000000000E+00 -0.12669832776E+03  0.12669832776E+03  0.00000000000E+00 0. -1.
         25    2    1    2    0    0 -0.16016398111E+02 -0.52997698308E+02  0.69118238626E+03  0.70457371461E+03  0.12500298881E+03 0.  0.
          2    1    1    2  501    0 -0.28215271000E+02  0.45345401554E+02 -0.11187785900E+03  0.12397161891E+03  0.00000000000E+00 0. -1.
          1    1    1    2  502    0  0.44231669110E+02  0.76522967540E+01  0.24035124835E+03  0.24450709760E+03  0.00000000000E+00 0. -1.
         22    1    3    3    0    0 -0.92538537760E+01  0.40130434687E+02  0.27337500672E+03  0.27645972563E+03  0.00000000000E+00 0.  1.
         22    1    3    3    0    0 -0.67625443346E+01 -0.93128132995E+02  0.41780737954E+03  0.42811398897E+03  0.00000000000E+00 0.  1.
</event>
<event>
 7    1  0.6557591E-006  0.1220425E+03  0.7818608E-02  0.1364654E+00
          2   -1    0    0  502    0  0.00000000000E+00  0.00000000000E+00  0.59405160382E+02  0.59405160382E+02  0.00000000000E+00 0. -1.
          1   -1    0    0  501    0 -0.00000000000E+00 -0.00000000000E+00 -0.11401619226E+04  0.11401619226E+04  0.00000000000E+00 0. -1.
         25    2    1    2    0    0  0.93860740761E+02  0.58739447641E+02 -0.20162582574E+03  0.26179675595E+03  0.12499762580E+03 0.  0.
          2    1    1    2  501    0 -0.80306674114E+02 -0.94930021093E+02 -0.88918636902E+03  0.89783810883E+03  0.00000000000E+00 0. -1.
          1    1    1    2  502    0 -0.13554066647E+02  0.36190573451E+02  0.10055432515E+02  0.39932218227E+02  0.00000000000E+00 0. -1.
         22    1    3    3    0    0  0.14874767977E+02  0.76005055716E+02 -0.57199536777E+02  0.96279874451E+02  0.00000000000E+00 0. -1.
         22    1    3    3    0    0  0.78985972784E+02 -0.17265608074E+02 -0.14442628896E+03  0.16551688150E+03  0.00000000000E+00 0. -1.
</event>
<event>
 7    1  0.6557591E-006  0.9101043E+02  0.7818608E-02  0.1397277E+00
          2   -1    0    0  502    0  0.00000000000E+00  0.00000000000E+00  0.47122476119E+03  0.47122476119E+03  0.00000000000E+00 0. -1.
          1   -1    0    0  501    0 -0.00000000000E+00 -0.00000000000E+00 -0.14132183531E+03  0.14132183531E+03  0.00000000000E+00 0. -1.
         25    2    1    2    0    0  0.62411703064E+02 -0.57597870321E+02  0.70025611180E+02  0.16655747475E+03  0.12500028331E+03 0.  0.
          2    1    1    2  501    0 -0.27767724972E+02 -0.28416221179E+02 -0.82343694902E+02  0.91427634041E+02  0.00000000000E+00 0. -1.
          1    1    1    2  502    0 -0.34643978092E+02  0.86014091500E+02  0.34222100960E+03  0.35456148771E+03  0.00000000000E+00 0. -1.
         22    1    3    3    0    0 -0.26220578982E+02 -0.28681141673E+02 -0.13745877350E+02  0.41219847088E+02  0.00000000000E+00 0. -1.
         22    1    3    3    0    0  0.88632282046E+02 -0.28916728648E+02  0.83771488530E+02  0.12533762766E+03  0.00000000000E+00 0. -1.
</event>
<event>
 7    1  0.6557591E-006  0.6443892E+02  0.7818608E-02  0.1413105E+00
          2   -1    0    0  502    0  0.00000000000E+00  0.00000000000E+00  0.36158860174E+04  0.36158860174E+04  0.00000000000E+00 0. -1.
          1   -1    0    0  501    0 -0.00000000000E+00 -0.00000000000E+00 -0.35595933992E+03  0.35595933992E+03  0.00000000000E+00 0. -1.
         25    2    1    2    0    0 -0.55985315367E+02  0.99146586929E+02  0.13030928204E+04  0.13140167704E+04  0.12499909302E+03 0.  0.
          2    1    1    2  501    0  0.32479653156E+02 -0.55525541385E+02 -0.34727721555E+03  0.35318476475E+03  0.00000000000E+00 0. -1.
          1    1    1    2  502    0  0.23505662211E+02 -0.43621045544E+02  0.23041110727E+04  0.23046438222E+04  0.00000000000E+00 0. -1.
         22    1    3    3    0    0 -0.49521620748E+02  0.10093419413E+02  0.88763877913E+03  0.88907641418E+03  0.00000000000E+00 0. -1.
         22    1    3    3    0    0 -0.64636946195E+01  0.89053167516E+02  0.41545404122E+03  0.42494035624E+03  0.00000000000E+00 0. -1.
</event>
<event>
 7    1  0.6557591E-006  0.9257155E+02  0.7818608E-02  0.1362905E+00
          2   -1    0    0  502    0  0.00000000000E+00  0.00000000000E+00  0.11064591305E+04  0.11064591305E+04  0.00000000000E+00 0. -1.
          1   -1    0    0  501    0 -0.00000000000E+00 -0.00000000000E+00 -0.21776612172E+04  0.21776612172E+04  0.00000000000E+00 0. -1.
         25    2    1    2    0    0 -0.16374278878E+02 -0.14249155746E+03  0.35450955793E+03  0.40233561922E+03  0.12499985151E+03 0.  0.
          2    1    1    2  501    0  0.37257929642E+01  0.92364102153E+02 -0.21518368414E+04  0.21538214413E+04  0.00000000000E+00 0. -1.
          1    1    1    2  502    0  0.12648485914E+02  0.50127455304E+02  0.72612519679E+03  0.72796328711E+03  0.00000000000E+00 0. -1.
         22    1    3    3    0    0  0.23913169838E+02 -0.71714981003E+01  0.51040392804E+01  0.25481783565E+02  0.00000000000E+00 0.  1.
         22    1    3    3    0    0 -0.40287448716E+02 -0.13532005936E+03  0.34940551865E+03  0.37685383566E+03  0.00000000000E+00 0.  1.
</event>
<event>
 7    1  0.6557591E-006  0.1060928E+03  0.7818608E-02  0.1352324E+00
          2   -1    0    0  502    0  0.00000000000E+00  0.00000000000E+00  0.77836991086E+03  0.77836991086E+03  0.00000000000E+00 0. -1.
          1   -1    0    0  501    0 -0.00000000000E+00 -0.00000000000E+00 -0.10434457918E+03  0.10434457918E+03  0.00000000000E+00 0. -1.
         25    2    1    2    0    0  0.10722179600E+03  0.30503726950E+02  0.22463718546E+03  0.28020461777E+03  0.12500308730E+03 0.  0.
          2    1    1    2  501    0 -0.79475975009E+02 -0.71279316689E+02 -0.37483344223E+02  0.11314668659E+03  0.00000000000E+00 0. -1.
          1    1    1    2  502    0 -0.27745820988E+02  0.40775589739E+02  0.48687149044E+03  0.48936318569E+03  0.00000000000E+00 0. -1.
         22    1    3    3    0    0  0.10075605461E+03  0.37031399296E+02  0.76578648951E+02  0.13186127767E+03  0.00000000000E+00 0. -1.
         22    1    3    3    0    0  0.64657413839E+01 -0.65276723466E+01  0.14805853651E+03  0.14834334010E+03  0.00000000000E+00 0. -1.
</event>
<event>
 7    1  0.6557591E-006  0.8165384E+02  0.7818608E-02  0.1353394E+00
          2   -1    0    0  502    0  0.00000000000E+00  0.00000000000E+00  0.39792270529E+04  0.39792270529E+04  0.00000000000E+00 0. -1.
          1   -1    0    0  501    0 -0.00000000000E+00 -0.00000000000E+00 -0.12870591302E+04  0.12870591302E+04  0.00000000000E+00 0. -1.
         25    2    1    2    0    0  0.29014637562E+02  0.13894644197E+02  0.43333958821E+03  0.45215430086E+03  0.12500161098E+03 0.  0.
          2    1    1    2  501    0  0.60938881612E+01  0.63209291541E+02 -0.12763548931E+04  0.12779336302E+04  0.00000000000E+00 0. -1.
          1    1    1    2  502    0 -0.35108525723E+02 -0.77103935738E+02  0.35351832276E+04  0.35361982521E+04  0.00000000000E+00 0. -1.
         22    1    3    3    0    0  0.38951177526E+02  0.21376096755E+01  0.43493258260E+03  0.43667850303E+03  0.00000000000E+00 0. -1.
         22    1    3    3    0    0 -0.99365399639E+01  0.11757034522E+02 -0.15929943923E+01  0.15475797825E+02  0.00000000000E+00 0. -1.
</event>
<event>
 7    1  0.6557591E-006  0.2628408E+03  0.7818608E-02  0.1224112E+00
          2   -1    0    0  502    0  0.00000000000E+00  0.00000000000E+00  0.17174181235E+04  0.17174181235E+04  0.00000000000E+00 0. -1.
          1   -1    0    0  501    0 -0.00000000000E+00 -0.00000000000E+00 -0.72048796001E+03  0.72048796001E+03  0.00000000000E+00 0. -1.
         25    2    1    2    0    0 -0.27134496237E+03  0.88039674836E+02  0.55887334690E+02  0.31644365465E+03  0.12503647245E+03 0.  0.
          2    1    1    2  501    0  0.25936676475E+03 -0.22553866017E+02 -0.56072642895E+03  0.61821834625E+03  0.00000000000E+00 0. -1.
          1    1    1    2  502    0  0.11978197625E+02 -0.65485808819E+02  0.15017692577E+04  0.15032440826E+04  0.00000000000E+00 0. -1.
         22    1    3    3    0    0  0.11155433062E+02 -0.67450187156E+01 -0.10381553608E+01  0.13077336534E+02  0.00000000000E+00 0.  1.
         22    1    3    3    0    0 -0.28250039543E+03  0.94784693552E+02  0.56925490051E+02  0.30336631812E+03  0.00000000000E+00 0.  1.
</event>
<event>
 7    1  0.6557591E-006  0.1992558E+03  0.7818608E-02  0.1188011E+00
          2   -1    0    0  502    0  0.00000000000E+00  0.00000000000E+00  0.12469672418E+04  0.12469672418E+04  0.00000000000E+00 0. -1.
          1   -1    0    0  501    0 -0.00000000000E+00 -0.00000000000E+00 -0.28616376395E+03  0.28616376395E+03  0.00000000000E+00 0. -1.
         25    2    1    2    0    0 -0.89960619185E+01 -0.76045938321E+02 -0.17669939425E+03  0.22958618135E+03  0.12499289929E+03 0.  0.
          2    1    1    2  501    0 -0.44494342312E+02 -0.12157111980E+03 -0.17413022560E+02  0.13062349338E+03  0.00000000000E+00 0. -1.
          1    1    1    2  502    0  0.53490404230E+02  0.19761705812E+03  0.11549158947E+04  0.11729213310E+04  0.00000000000E+00 0. -1.
         22    1    3    3    0    0 -0.11902531266E+02 -0.10248184867E+02 -0.16115000902E+03  0.16191362189E+03  0.00000000000E+00 0.  1.
         22    1    3    3    0    0  0.29064693475E+01 -0.65797753454E+02 -0.15549385226E+02  0.67672559465E+02  0.00000000000E+00 0.  1.
</event>
<event>
 7    1  0.6557591E-006  0.8040051E+02  0.7818608E-02  0.1500667E+00
          2   -1    0    0  502    0  0.00000000000E+00  0.00000000000E+00  0.42803737232E+03  0.42803737232E+03  0.00000000000E+00 0. -1.
          1   -1    0    0  501    0 -0.00000000000E+00 -0.00000000000E+00 -0.23041496862E+03  0.23041496862E+03  0.00000000000E+00 0. -1.
         25    2    1    2    0    0  0.70157197928E+02  0.48551972402E+02 -0.12473688598E+03  0.19612025417E+03  0.12499814769E+03 0.  0.
          2    1    1    2  501    0  0.50618950912E+01 -0.20332033973E+02 -0.64189670090E+02  0.67522797141E+02  0.00000000000E+00 0. -1.
          1    1    1    2  502    0 -0.75219093019E+02 -0.28219938429E+02  0.38654895977E+03  0.39480928963E+03  0.00000000000E+00 0. -1.
         22    1    3    3    0    0  0.24228937094E+02  0.78702157774E+02 -0.11319740653E+03  0.13998115543E+03  0.00000000000E+00 0.  1.
         22    1    3    3    0    0  0.45928260834E+02 -0.30150185373E+02 -0.11539479451E+02  0.56139098739E+02  0.00000000000E+00 0.  1.
</event>
<event>
 7    1  0.6557591E-006  0.1213072E+03  0.7818608E-02  0.1285741E+00
          2   -1    0    0  502    0  0.00000000000E+00  0.00000000000E+00  0.12608988102E+04  0.12608988102E+04  0.00000000000E+00 0. -1.
          1   -1    0    0  501    0 -0.00000000000E+00 -0.00000000000E+00 -0.94344090685E+02  0.94344090685E+02  0.00000000000E+00 0. -1.
         25    2    1    2    0    0 -0.11660110292E+03 -0.89328960738E+02  0.69035078591E+03  0.71678727747E+03  0.12499725240E+03 0.  0.
          2    1    1    2  501    0  0.12088249745E+01  0.78282913519E+02 -0.54400312714E+02  0.95336613272E+02  0.00000000000E+00 0. -1.
          1    1    1    2  502    0  0.11539227794E+03  0.11046047219E+02  0.53060424633E+03  0.54311901015E+03  0.00000000000E+00 0. -1.
         22    1    3    3    0    0 -0.73926674647E+02 -0.74916264506E+02  0.21574570198E+03  0.24004959453E+03  0.00000000000E+00 0. -1.
         22    1    3    3    0    0 -0.42674428270E+02 -0.14412696231E+02  0.47460508393E+03  0.47673768293E+03  0.00000000000E+00 0. -1.
</event>
<event>
 7    1  0.6557591E-006  0.9848377E+02  0.7818608E-02  0.1430126E+00
          2   -1    0    0  502    0  0.00000000000E+00  0.00000000000E+00  0.16611376842E+04  0.16611376842E+04  0.00000000000E+00 0. -1.
          1   -1    0    0  501    0 -0.00000000000E+00 -0.00000000000E+00 -0.79945636522E+03  0.79945636522E+03  0.00000000000E+00 0. -1.
         25    2    1    2    0    0  0.38626316655E+02  0.87798198391E+02 -0.15636058332E+03  0.22197768025E+03  0.12499977014E+03 0.  0.
          2    1    1    2  501    0 -0.64320388882E+02 -0.75577289010E+02 -0.60612721978E+03  0.61419805079E+03  0.00000000000E+00 0. -1.
          1    1    1    2  502    0  0.25694072227E+02 -0.12220909381E+02  0.16241691221E+04  0.16244183184E+04  0.00000000000E+00 0. -1.
         22    1    3    3    0    0 -0.46096272322E+01  0.89091525174E+02 -0.15483384450E+03  0.17869546139E+03  0.00000000000E+00 0.  1.
         22    1    3    3    0    0  0.43235943887E+02 -0.12933267832E+01 -0.15267388244E+01  0.43282218860E+02  0.00000000000E+00 0.  1.
</event>
<event>
 7    1  0.6557591E-006  0.9847164E+02  0.7818608E-02  0.1305964E+00
          2   -1    0    0  502    0  0.00000000000E+00  0.00000000000E+00  0.11055917894E+04  0.11055917894E+04  0.00000000000E+00 0. -1.
          1   -1    0    0  501    0 -0.00000000000E+00 -0.00000000000E+00 -0.10108421770E+03  0.10108421770E+03  0.00000000000E+00 0. -1.
         25    2    1    2    0    0 -0.21841233190E+02 -0.12308164052E+00  0.28008502976E+01  0.12692539827E+03  0.12500062939E+03 0.  0.
          2    1    1    2  501    0 -0.79374658352E+02 -0.95439670883E+01  0.74325490567E+01  0.80291135761E+02  0.00000000000E+00 0. -1.
          1    1    1    2  502    0  0.10121589154E+03  0.96670487288E+01  0.99427417238E+03  0.99945947311E+03  0.00000000000E+00 0. -1.
         22    1    3    3    0    0 -0.14733356985E+02  0.58124715626E+02 -0.21096742760E+02  0.63565925855E+02  0.00000000000E+00 0. -1.
         22    1    3    3    0    0 -0.71078762047E+01 -0.58247797267E+02  0.23897593058E+02  0.63359472414E+02  0.00000000000E+00 0. -1.
</event>
<event>
 7    1  0.6557591E-006  0.1407148E+03  0.7818608E-02  0.1367234E+00
          2   -1    0    0  502    0  0.00000000000E+00  0.00000000000E+00  0.10116558807E+04  0.10116558807E+04  0.00000000000E+00 0. -1.
          1   -1    0    0  501    0 -0.00000000000E+00 -0.00000000000E+00 -0.16213099201E+04  0.16213099201E+04  0.00000000000E+00 0. -1.
         25    2    1    2    0    0  0.11012413073E+03  0.24899201764E+02 -0.44252966899E+03  0.47350117126E+03  0.12499422716E+03 0.  0.
          2    1    1    2  501    0  0.22048146912E+02  0.24290601826E+02 -0.11580696628E+04  0.11585342023E+04  0.00000000000E+00 0. -1.
          1    1    1    2  502    0 -0.13217227765E+03 -0.49189803590E+02  0.99094529235E+03  0.10009304272E+04  0.00000000000E+00 0. -1.
         22    1    3    3    0    0 -0.10529410450E+01 -0.18925080209E+02 -0.22085415714E+03  0.22166602372E+03  0.00000000000E+00 0. -1.
         22    1    3    3    0    0  0.11117707178E+03  0.43824281974E+02 -0.22167551185E+03  0.25183514754E+03  0.00000000000E+00 0. -1.
</event>
<event>
 7    1  0.6557591E-006  0.1166574E+03  0.7818608E-02  0.1399892E+00
          2   -1    0    0  502    0  0.00000000000E+00  0.00000000000E+00  0.88242624799E+02  0.88242624799E+02  0.00000000000E+00 0. -1.
          1   -1    0    0  501    0 -0.00000000000E+00 -0.00000000000E+00 -0.18379179905E+04  0.18379179905E+04  0.00000000000E+00 0. -1.
         25    2    1    2    0    0  0.70745887396E+02  0.12677648400E+03 -0.11664928607E+03  0.22429394249E+03  0.12499383672E+03 0.  0.
          2    1    1    2  501    0 -0.61570480129E+02 -0.97836794617E+02 -0.16583242569E+04  0.16623484302E+04  0.00000000000E+00 0. -1.
          1    1    1    2  502    0 -0.91754072676E+01 -0.28939689385E+02  0.25298177303E+02  0.39518242561E+02  0.00000000000E+00 0. -1.
         22    1    3    3    0    0  0.69002764606E+02  0.85827241665E+02 -0.10641670686E+02  0.11063879107E+03  0.00000000000E+00 0. -1.
         22    1    3    3    0    0  0.17431227904E+01  0.40949242336E+02 -0.10600761538E+03  0.11365515142E+03  0.00000000000E+00 0. -1.
</event>
<event>
 7    1  0.6557591E-006  0.1067851E+03  0.7818608E-02  0.1272397E+00
          2   -1    0    0  502    0  0.00000000000E+00  0.00000000000E+00  0.19949296782E+04  0.19949296782E+04  0.00000000000E+00 0. -1.
          1   -1    0    0  501    0 -0.00000000000E+00 -0.00000000000E+00 -0.12147873887E+03  0.12147873887E+03  0.00000000000E+00 0. -1.
         25    2    1    2    0    0 -0.80553759389E+02  0.19065947661E+02  0.64648838362E+03  0.66364531696E+03  0.12500183219E+03 0.  0.
          2    1    1    2  501    0 -0.14573953074E+02 -0.99943072201E+02 -0.86743300662E+02  0.13313683938E+03  0.00000000000E+00 0. -1.
          1    1    1    2  502    0  0.95127712462E+02  0.80877124539E+02  0.13137058563E+04  0.13196262607E+04  0.00000000000E+00 0. -1.
         22    1    3    3    0    0 -0.37692728102E+02  0.61787761602E+01  0.39277615569E+02  0.54787317067E+02  0.00000000000E+00 0.  1.
         22    1    3    3    0    0 -0.42861031287E+02  0.12887171501E+02  0.60721076805E+03  0.60885799989E+03  0.00000000000E+00 0.  1.
</event>
<event>
 7    1  0.6557591E-006  0.4275542E+03  0.7818608E-02  0.1165670E+00
          2   -1    0    0  502    0  0.00000000000E+00  0.00000000000E+00  0.12769219975E+04  0.12769219975E+04  0.00000000000E+00 0. -1.
          1   -1    0    0  501    0 -0.00000000000E+00 -0.00000000000E+00 -0.29403260481E+03  0.29403260481E+03  0.00000000000E+00 0. -1.
         25    2    1    2    0    0 -0.26163906193E+02  0.47338232816E+03  0.29548920299E+03  0.57246301739E+03  0.12499863434E+03 0.  0.
          2    1    1    2  501    0  0.14564353718E+01 -0.39975518753E+03  0.10824666354E+03  0.41415416373E+03  0.00000000000E+00 0. -1.
          1    1    1    2  502    0  0.24707470821E+02 -0.73627140631E+02  0.57915352612E+03  0.58433742116E+03  0.00000000000E+00 0. -1.
         22    1    3    3    0    0 -0.35154090996E+02  0.10127044310E+03  0.19192661304E+02  0.10890303489E+03  0.00000000000E+00 0.  1.
         22    1    3    3    0    0  0.89901848030E+01  0.37211188506E+03  0.27629654169E+03  0.46355998250E+03  0.00000000000E+00 0.  1.
</event>
<event>
 7    1  0.6557591E-006  0.7945459E+02  0.7818608E-02  0.1480507E+00
          2   -1    0    0  502    0  0.00000000000E+00  0.00000000000E+00  0.13397282319E+04  0.13397282319E+04  0.00000000000E+00 0. -1.
          1   -1    0    0  501    0 -0.00000000000E+00 -0.00000000000E+00 -0.28347802663E+03  0.28347802663E+03  0.00000000000E+00 0. -1.
         25    2    1    2    0    0 -0.80016357731E+02  0.79061664845E+01  0.34760996104E+03  0.37805412477E+03  0.12500844476E+03 0.  0.
          2    1    1    2  501    0  0.73079794723E+02 -0.31295656442E+02 -0.26220937182E+03  0.27399603862E+03  0.00000000000E+00 0. -1.
          1    1    1    2  502    0  0.69365630083E+01  0.23389489957E+02  0.97084961609E+03  0.97115609518E+03  0.00000000000E+00 0. -1.
         22    1    3    3    0    0 -0.61147481488E+02  0.33619202667E+02  0.33743842847E+03  0.34457794226E+03  0.00000000000E+00 0. -1.
         22    1    3    3    0    0 -0.18868876244E+02 -0.25713036182E+02  0.10171532569E+02  0.33476182506E+02  0.00000000000E+00 0. -1.
</event>
<event>
 7    1  0.6557591E-006  0.1286091E+03  0.7818608E-02  0.1416135E+00
          2   -1    0    0  502    0  0.00000000000E+00  0.00000000000E+00  0.88075807919E+03  0.88075807919E+03  0.00000000000E+00 0. -1.
          1   -1    0    0  501    0 -0.00000000000E+00 -0.00000000000E+00 -0.27972483217E+03  0.27972483217E+03  0.00000000000E+00 0. -1.
         25    2    1    2    0    0 -0.49524477498E+02  0.92983792594E+02 -0.11156703901E+03  0.19791619375E+03  0.12499982399E+03 0.  0.
          2    1    1    2  501    0 -0.79430460768E+01  0.22913202029E+02 -0.11875556680E+03  0.12120640022E+03  0.00000000000E+00 0. -1.
          1    1    1    2  502    0  0.57467523575E+02 -0.11589699462E+03  0.83135585284E+03  0.84136031739E+03  0.00000000000E+00 0. -1.
         22    1    3    3    0    0  0.13996804553E+02 -0.65898242940E+01  0.17234872764E+02  0.23159817812E+02  0.00000000000E+00 0.  1.
         22    1    3    3    0    0 -0.63521282051E+02  0.99573616888E+02 -0.12880191178E+03  0.17475637594E+03  0.00000000000E+00 0.  1.
</event>
<event>
 7    1  0.6557591E-006  0.9705769E+02  0.7818608E-02  0.1335427E+00
          2   -1    0    0  502    0  0.00000000000E+00  0.00000000000E+00  0.40967205725E+02  0.40967205725E+02  0.00000000000E+00 0. -1.
          1   -1    0    0  501    0 -0.00000000000E+00 -0.00000000000E+00 -0.26243191502E+04  0.26243191502E+04  0.00000000000E+00 0. -1.
         25    2    1    2    0    0 -0.54116937148E+02  0.87215181362E+02 -0.87921344148E+03  0.89396720175E+03  0.12500380550E+03 0.  0.
          2    1    1    2  501    0 -0.36792350304E+02 -0.50344742064E+02 -0.16642506345E+04  0.16654183993E+04  0.00000000000E+00 0. -1.
          1    1    1    2  502    0  0.90909287452E+02 -0.36870439298E+02 -0.39887868476E+02  0.10590075491E+03  0.00000000000E+00 0. -1.
         22    1    3    3    0    0 -0.10071990332E+02  0.31086452475E+02 -0.70436205192E+03  0.70511964425E+03  0.00000000000E+00 0. -1.
         22    1    3    3    0    0 -0.44044946816E+02  0.56128728886E+02 -0.17485138956E+03  0.18884755751E+03  0.00000000000E+00 0. -1.
</event>
<event>
 7    1  0.6557591E-006  0.1988570E+03  0.7818608E-02  0.1226613E+00
          2   -1    0    0  502    0  0.00000000000E+00  0.00000000000E+00  0.17966664680E+04  0.17966664680E+04  0.00000000000E+00 0. -1.
          1   -1    0    0  501    0 -0.00000000000E+00 -0.00000000000E+00 -0.31000632185E+03  0.31000632185E+03  0.00000000000E+00 0. -1.
         25    2    1    2    0    0 -0.20145581776E+03 -0.19274453774E+02 -0.21147360023E+02  0.23880178584E+03  0.12499252381E+03 0.  0.
          2    1    1    2  501    0  0.17633286441E+03  0.10124289862E+03 -0.12113148769E+03  0.23667750400E+03  0.00000000000E+00 0. -1.
          1    1    1    2  502    0  0.25122953352E+02 -0.81968444845E+02  0.16289389939E+04  0.16311935000E+04  0.00000000000E+00 0. -1.
         22    1    3    3    0    0 -0.15087682287E+03 -0.30112844246E+02  0.39746115346E+02  0.15890359579E+03  0.00000000000E+00 0. -1.
         22    1    3    3    0    0 -0.50578994885E+02  0.10838390472E+02 -0.60893475369E+02  0.79898190055E+02  0.00000000000E+00 0. -1.
</event>
<event>
 7    1  0.6557591E-006  0.1394619E+03  0.7818608E-02  0.1306623E+00
          2   -1    0    0  502    0  0.00000000000E+00  0.00000000000E+00  0.45619054798E+03  0.45619054798E+03  0.00000000000E+00 0. -1.
          1   -1    0    0  501    0 -0.00000000000E+00 -0.00000000000E+00 -0.42473579486E+03  0.42473579486E+03  0.00000000000E+00 0. -1.
         25    2    1    2    0    0 -0.66499207309E+02  0.63131118171E+02  0.55138546674E+02  0.16453694108E+03  0.12499785196E+03 0.  0.
          2    1    1    2  501    0  0.92169710515E+02 -0.11302494609E+03 -0.35320223209E+03  0.38212787222E+03  0.00000000000E+00 0. -1.
          1    1    1    2  502    0 -0.25670503205E+02  0.49893827915E+02  0.32951843853E+03  0.33426152954E+03  0.00000000000E+00 0. -1.
         22    1    3    3    0    0 -0.43631359058E+02  0.77306585644E+02 -0.14441326470E+02  0.89936397456E+02  0.00000000000E+00 0. -1.
         22    1    3    3    0    0 -0.22867848252E+02 -0.14175467473E+02  0.69579873144E+02  0.74600543620E+02  0.00000000000E+00 0. -1.
</event>
<event>
 7    1  0.6557591E-006  0.2142031E+03  0.7818608E-02  0.1367125E+00
          2   -1    0    0  502    0  0.00000000000E+00  0.00000000000E+00  0.10467370085E+04  0.10467370085E+04  0.00000000000E+00 0. -1.
          1   -1    0    0  501    0 -0.00000000000E+00 -0.00000000000E+00 -0.17800086705E+04  0.17800086705E+04  0.00000000000E+00 0. -1.
         25    2    1    2    0    0 -0.71569969934E+02 -0.21887170772E+03 -0.55585929245E+03  0.61451732459E+03  0.12499961672E+03 0.  0.
          2    1    1    2  501    0  0.18078807994E+02  0.11765053970E+02 -0.11834781005E+04  0.11836746488E+04  0.00000000000E+00 0. -1.
          1    1    1    2  502    0  0.53491161941E+02  0.20710665375E+03  0.10060657310E+04  0.10285537057E+04  0.00000000000E+00 0. -1.
         22    1    3    3    0    0 -0.24348235398E+02 -0.12602464802E+03 -0.44172257277E+03  0.45999334753E+03  0.00000000000E+00 0.  1.
         22    1    3    3    0    0 -0.47221734537E+02 -0.92847059697E+02 -0.11413671968E+03  0.15452397706E+03  0.00000000000E+00 0.  1.
</event>
<event>
 7    1  0.6557591E-006  0.1411837E+03  0.7818608E-02  0.1287573E+00
          2   -1    0    0  502    0  0.00000000000E+00  0.00000000000E+00  0.17001179359E+04  0.17001179359E+04  0.00000000000E+00 0. -1.
          1   -1    0    0  501    0 -0.00000000000E+00 -0.00000000000E+00 -0.15811785821E+03  0.15811785821E+03  0.00000000000E+00 0. -1.
         25    2    1    2    0    0  0.38634204937E+02 -0.11648876888E+03  0.63481715367E+03  0.65854405067E+03  0.12500085207E+03 0.  0.
          2    1    1    2  501    0 -0.55155316491E+02 -0.36465045075E+02 -0.13282213058E+03  0.14836956164E+03  0.00000000000E+00 0. -1.
          1    1    1    2  502    0  0.16521111554E+02  0.15295381396E+03  0.10400050546E+04  0.10513221818E+04  0.00000000000E+00 0. -1.
         22    1    3    3    0    0  0.65930653158E+02 -0.46420953571E+02  0.47652018298E+03  0.48329415550E+03  0.00000000000E+00 0. -1.
         22    1    3    3    0    0 -0.27296448221E+02 -0.70067815312E+02  0.15829697069E+03  0.17524989517E+03  0.00000000000E+00 0. -1.
</event>
<event>
 7    1  0.6557591E-006  0.4255566E+02  0.7818608E-02  0.1564998E+00
          2   -1    0    0  502    0  0.00000000000E+00  0.00000000000E+00  0.11453869882E+03  0.11453869882E+03  0.00000000000E+00 0. -1.
          1   -1    0    0  501    0 -0.00000000000E+00 -0.00000000000E+00 -0.46451762575E+03  0.46451762575E+03  0.00000000000E+00 0. -1.
         25    2    1    2    0    0  0.27116412256E+02  0.19763233737E+02 -0.12171117862E+03  0.17766414356E+03  0.12500020674E+03 0.  0.
          2    1    1    2  501    0  0.15996513171E+02 -0.20411326508E+02 -0.30888330820E+03  0.30997001269E+03  0.00000000000E+00 0. -1.
          1    1    1    2  502    0 -0.43112925428E+02  0.64809277064E+00  0.80615559893E+02  0.91422168319E+02  0.00000000000E+00 0. -1.
         22    1    3    3    0    0 -0.37844965934E+02 -0.12022425796E+02 -0.45350574533E+01  0.39966822674E+02  0.00000000000E+00 0.  1.
         22    1    3    3    0    0  0.64961378190E+02  0.31785659533E+02 -0.11717612117E+03  0.13769732089E+03  0.00000000000E+00 0.  1.
</event>
<event>
 7    1  0.6557591E-006  0.1383034E+03  0.7818608E-02  0.1323203E+00
          2   -1    0    0  502    0  0.00000000000E+00  0.00000000000E+00  0.25006324292E+04  0.25006324292E+04  0.00000000000E+00 0. -1.
          1   -1    0    0  501    0 -0.00000000000E+00 -0.00000000000E+00 -0.68740640531E+03  0.68740640531E+03  0.00000000000E+00 0. -1.
         25    2    1    2    0    0  0.15347588780E+03 -0.10431161406E+03  0.11134884695E+03  0.24992033920E+03  0.12500339702E+03 0.  0.
          2    1    1    2  501    0 -0.38823160516E+02  0.29456113098E+02 -0.61513581134E+03  0.61706317892E+03  0.00000000000E+00 0. -1.
          1    1    1    2  502    0 -0.11465272728E+03  0.74855500964E+02  0.23170129883E+04  0.23210553164E+04  0.00000000000E+00 0. -1.
         22    1    3    3    0    0  0.96604727301E+02 -0.34834739294E+02 -0.51679377066E+01  0.10282334355E+03  0.00000000000E+00 0.  1.
         22    1    3    3    0    0  0.56871160495E+02 -0.69476874769E+02  0.11651678466E+03  0.14709699565E+03  0.00000000000E+00 0.  1.
</event>
<event>
 7    1  0.6557591E-006  0.1091400E+03  0.7818608E-02  0.1404566E+00
          2   -1    0    0  502    0  0.00000000000E+00  0.00000000000E+00  0.71675531597E+03  0.71675531597E+03  0.00000000000E+00 0. -1.
          1   -1    0    0  501    0 -0.00000000000E+00 -0.00000000000E+00 -0.22479331686E+03  0.22479331686E+03  0.00000000000E+00 0. -1.
         25    2    1    2    0    0  0.10716322612E+03  0.70484805766E+02 -0.57740456414E+02  0.18817757494E+03  0.12499909810E+03 0.  0.
          2    1    1    2  501    0 -0.62065056853E+01 -0.30653446050E+02 -0.94783861580E+02  0.99810494857E+02  0.00000000000E+00 0. -1.
          1    1    1    2  502    0 -0.10095672044E+03 -0.39831359716E+02  0.64448631710E+03  0.65356056303E+03  0.00000000000E+00 0. -1.
         22    1    3    3    0    0  0.42143784251E+02 -0.94816479906E+01  0.30189608877E+02  0.52701163970E+02  0.00000000000E+00 0. -1.
         22    1    3    3    0    0  0.65019441872E+02  0.79966453757E+02 -0.87930065291E+02  0.13547641097E+03  0.00000000000E+00 0. -1.
</event>
<event>
 7    1  0.6557591E-006  0.1121586E+03  0.7818608E-02  0.1295111E+00
          2   -1    0    0  502    0  0.00000000000E+00  0.00000000000E+00  0.17688266200E+03  0.17688266200E+03  0.00000000000E+00 0. -1.
          1   -1    0    0  501    0 -0.00000000000E+00 -0.00000000000E+00 -0.28068287847E+03  0.28068287847E+03  0.00000000000E+00 0. -1.
         25    2    1    2    0    0 -0.11676624695E+03  0.13436816759E+03 -0.90342955345E+02  0.23553259114E+03  0.12499836406E+03 0.  0.
          2    1    1    2  501    0  0.49474067617E+02 -0.59744242787E+02 -0.71919052637E+02  0.10577999832E+03  0.00000000000E+00 0. -1.
          1    1    1    2  502    0  0.67292179337E+02 -0.74623924805E+02  0.58461791509E+02  0.11625295101E+03  0.00000000000E+00 0. -1.
         22    1    3    3    0    0 -0.73045810131E+02  0.15216398057E+03 -0.58699969603E+02  0.17870437541E+03  0.00000000000E+00 0. -1.
         22    1    3    3    0    0 -0.43720436823E+02 -0.17795812978E+02 -0.31642985742E+02  0.56828215723E+02  0.00000000000E+00 0. -1.
</event>
<event>
 7    1  0.6557591E-006  0.4377984E+02  0.7818608E-02  0.1507247E+00
          2   -1    0    0  502    0  0.00000000000E+00  0.00000000000E+00  0.96274421407E+02  0.96274421407E+02  0.00000000000E+00 0. -1.
          1   -1    0    0  501    0 -0.00000000000E+00 -0.00000000000E+00 -0.93319194618E+03  0.93319194618E+03  0.00000000000E+00 0. -1.
         25    2    1    2    0    0  0.65155933509E+02  0.23667124240E+02 -0.58760374668E+03  0.60473807943E+03  0.12499821262E+03 0.  0.
          2    1    1    2  501    0 -0.40656777628E+02  0.37751414141E+01 -0.33185654369E+03  0.33435907473E+03  0.00000000000E+00 0. -1.
          1    1    1    2  502    0 -0.24499155881E+02 -0.27442265654E+02  0.82542765600E+02  0.90369213430E+02  0.00000000000E+00 0. -1.
         22    1    3    3    0    0  0.59494203794E+02 -0.28839312214E+02 -0.48355726191E+03  0.48805623832E+03  0.00000000000E+00 0.  1.
         22    1    3    3    0    0  0.56617297156E+01  0.52506436454E+02 -0.10404648476E+03  0.11668184111E+03  0.00000000000E+00 0.  1.
</event>
<event>
 7    1  0.6557591E-006  0.5056939E+02  0.7818608E-02  0.1473387E+00
          2   -1    0    0  502    0  0.00000000000E+00  0.00000000000E+00  0.59181175291E+02  0.59181175291E+02  0.00000000000E+00 0. -1.
          1   -1    0    0  501    0 -0.00000000000E+00 -0.00000000000E+00 -0.80789674944E+03  0.80789674944E+03  0.00000000000E+00 0. -1.
         25    2    1    2    0    0 -0.42693299411E+02 -0.75773645600E+02 -0.29839780013E+03  0.33501063208E+03  0.12500605305E+03 0.  0.
          2    1    1    2  501    0  0.10501154510E+02  0.38925538807E+02 -0.47538403971E+03  0.47709061721E+03  0.00000000000E+00 0. -1.
          1    1    1    2  502    0  0.32192144901E+02  0.36848106793E+02  0.25066265691E+02  0.54976675447E+02  0.00000000000E+00 0. -1.
         22    1    3    3    0    0 -0.78729096030E+02 -0.13206703740E+02 -0.16631488922E+03  0.18448124555E+03  0.00000000000E+00 0.  1.
         22    1    3    3    0    0  0.36035796619E+02 -0.62566941860E+02 -0.13208291091E+03  0.15052938652E+03  0.00000000000E+00 0.  1.
</event>
<event>
 7    1  0.6557591E-006  0.1529755E+03  0.7818608E-02  0.1296030E+00
          2   -1    0    0  502    0  0.00000000000E+00  0.00000000000E+00  0.52711670092E+03  0.52711670092E+03  0.00000000000E+00 0. -1.
          1   -1    0    0  501    0 -0.00000000000E+00 -0.00000000000E+00 -0.15060872523E+03  0.15060872523E+03  0.00000000000E+00 0. -1.
         25    2    1    2    0    0 -0.12846008553E+03 -0.36166909823E+01  0.21490017944E+03  0.27986175037E+03  0.12500175265E+03 0.  0.
          2    1    1    2  501    0  0.14972957291E+03  0.55840548359E+02 -0.58860157882E+02  0.17029864953E+03  0.00000000000E+00 0. -1.
          1    1    1    2  502    0 -0.21269487379E+02 -0.52223857376E+02  0.22046795414E+03  0.22756502625E+03  0.00000000000E+00 0. -1.
         22    1    3    3    0    0  0.74912674845E+01  0.34823719377E+02  0.63304883964E+02  0.72638274026E+02  0.00000000000E+00 0.  1.
         22    1    3    3    0    0 -0.13595135302E+03 -0.38440410359E+02  0.15159529548E+03  0.20722347634E+03  0.00000000000E+00 0.  1.
</event>
<event>
 7    1  0.6557591E-006  0.7652851E+02  0.7818608E-02  0.1499589E+00
          2   -1    0    0  502    0  0.00000000000E+00  0.00000000000E+00  0.96811733783E+03  0.96811733783E+03  0.00000000000E+00 0. -1.
          1   -1    0    0  501    0 -0.00000000000E+00 -0.00000000000E+00 -0.77337563506E+02  0.77337563506E+02  0.00000000000E+00 0. -1.
         25    2    1    2    0    0  0.63566006120E+02  0.51911082521E+02  0.18223129532E+03  0.23573197336E+03  0.12500368254E+03 0.  0.
          2    1    1    2  501    0 -0.69704947902E+02 -0.30601410199E+02 -0.21683508422E+02  0.79154283558E+02  0.00000000000E+00 0. -1.
          1    1    1    2  502    0  0.61389417821E+01 -0.21309672322E+02  0.73023198742E+03  0.73056864441E+03  0.00000000000E+00 0. -1.
         22    1    3    3    0    0  0.28987943331E+02  0.10893318856E+02  0.17935313649E+03  0.18200690323E+03  0.00000000000E+00 0. -1.
         22    1    3    3    0    0  0.34578062789E+02  0.41017763665E+02  0.28781588258E+01  0.53725070131E+02  0.00000000000E+00 0. -1.
</event>
<event>
 7    1  0.6557591E-006  0.1154197E+03  0.7818608E-02  0.1317993E+00
          2   -1    0    0  502    0  0.00000000000E+00  0.00000000000E+00  0.79588205958E+03  0.79588205958E+03  0.00000000000E+00 0. -1.
          1   -1    0    0  501    0 -0.00000000000E+00 -0.00000000000E+00 -0.39522167969E+04  0.39522167969E+04  0.00000000000E+00 0. -1.
         25    2    1    2    0    0 -0.57265674469E+02  0.10830861280E+02 -0.13348372338E+03  0.19193817832E+03  0.12500277941E+03 0.  0.
          2    1    1    2  501    0  0.11722001361E+03  0.13274121074E+01 -0.37873771572E+04  0.37891909459E+04  0.00000000000E+00 0. -1.
          1    1    1    2  502    0 -0.59954339142E+02 -0.12158273388E+02  0.76452614329E+03  0.76696973223E+03  0.00000000000E+00 0. -1.
         22    1    3    3    0    0 -0.77609229959E+02 -0.15193366745E+02 -0.13754337904E+03  0.15865753081E+03  0.00000000000E+00 0. -1.
         22    1    3    3    0    0  0.20343555490E+02  0.26024228025E+02  0.40596556556E+01  0.33280647505E+02  0.00000000000E+00 0. -1.
</event>
<event>
 7    1  0.6557591E-006  0.9118877E+02  0.7818608E-02  0.1401939E+00
          2   -1    0    0  502    0  0.00000000000E+00  0.00000000000E+00  0.11511471510E+03  0.11511471510E+03  0.00000000000E+00 0. -1.
          1   -1    0    0  501    0 -0.00000000000E+00 -0.00000000000E+00 -0.33198430313E+03  0.33198430313E+03  0.00000000000E+00 0. -1.
         25    2    1    2    0    0  0.23938988839E+02  0.66023345162E+02 -0.13932501828E+03  0.19992599485E+03  0.12500714141E+03 0.  0.
          2    1    1    2  501    0  0.37634466744E+02  0.66366696708E+01 -0.13202955515E+03  0.13744890652E+03  0.00000000000E+00 0. -1.
          1    1    1    2  502    0 -0.61573455583E+02 -0.72660014833E+02  0.54484985398E+02  0.10972411686E+03  0.00000000000E+00 0. -1.
         22    1    3    3    0    0  0.83019545510E+00  0.50816372704E+02  0.67366926642E+01  0.51267689506E+02  0.00000000000E+00 0.  1.
         22    1    3    3    0    0  0.23108793384E+02  0.15206972458E+02 -0.14606171095E+03  0.14865830534E+03  0.00000000000E+00 0.  1.
</event>
<event>
 7    1  0.6557591E-006  0.1286769E+03  0.7818608E-02  0.1380566E+00
          2   -1    0    0  502    0  0.00000000000E+00  0.00000000000E+00  0.23708829238E+04  0.23708829238E+04  0.00000000000E+00 0. -1.
          1   -1    0    0  501    0 -0.00000000000E+00 -0.00000000000E+00 -0.76108419393E+02  0.76108419393E+02  0.00000000000E+00 0. -1.
         25    2    1    2    0    0  0.12314576363E+02  0.15835812682E+03  0.14996667511E+04  0.15132263309E+04  0.12499847683E+03 0.  0.
          2    1    1    2  501    0 -0.34496502284E+01 -0.12745862727E+03 -0.10110331810E+02  0.12790551420E+03  0.00000000000E+00 0. -1.
          1    1    1    2  502    0 -0.88649261345E+01 -0.30899499551E+02  0.80521808510E+03  0.80585949803E+03  0.00000000000E+00 0. -1.
         22    1    3    3    0    0 -0.45256704303E+02  0.12335451407E+03  0.85325079388E+03  0.86330841689E+03  0.00000000000E+00 0.  1.
         22    1    3    3    0    0  0.57571280666E+02  0.35003612757E+02  0.64641595720E+03  0.64991791404E+03  0.00000000000E+00 0.  1.
</event>
<event>
 7    1  0.6557591E-006  0.1155538E+03  0.7818608E-02  0.1282249E+00
          2   -1    0    0  502    0  0.00000000000E+00  0.00000000000E+00  0.80340229737E+03  0.80340229737E+03  0.00000000000E+00 0. -1.
          1   -1    0    0  501    0 -0.00000000000E+00 -0.00000000000E+00 -0.17635368877E+03  0.17635368877E+03  0.00000000000E+00 0. -1.
         25    2    1    2    0    0  0.43568618633E+02 -0.13777213619E+03  0.12060188438E+03  0.22594129756E+03  0.12500107755E+03 0.  0.
          2    1    1    2  501    0 -0.92231112561E+02  0.68141270429E+02 -0.93453063757E+02  0.14793000367E+03  0.00000000000E+00 0. -1.
          1    1    1    2  502    0  0.48662493928E+02  0.69630865760E+02  0.59989978798E+03  0.60588468490E+03  0.00000000000E+00 0. -1.
         22    1    3    3    0    0 -0.41633500503E+02 -0.46438291719E+02  0.62106386155E+02  0.88017421589E+02  0.00000000000E+00 0.  1.
         22    1    3    3    0    0  0.85202119136E+02 -0.91333844469E+02  0.58495498225E+02  0.13792387597E+03  0.00000000000E+00 0.  1.
</event>
<event>
 7    1  0.6557591E-006  0.4880992E+02  0.7818608E-02  0.1515163E+00
          2   -1    0    0  502    0  0.00000000000E+00  0.00000000000E+00  0.15285938577E+04  0.15285938577E+04  0.00000000000E+00 0. -1.
          1   -1    0    0  501    0 -0.00000000000E+00 -0.00000000000E+00 -0.45372295376E+02  0.45372295376E+02  0.00000000000E+00 0. -1.
         25    2    1    2    0    0 -0.41732042818E+02 -0.66358058724E+02  0.19518082992E+03  0.24467427581E+03  0.12499995808E+03 0.  0.
          2    1    1    2  501    0  0.10651578504E+02  0.29405216018E+02 -0.80561372673E+01  0.32295885208E+02  0.00000000000E+00 0. -1.
          1    1    1    2  502    0  0.31080464315E+02  0.36952842706E+02  0.12960968697E+04  0.12969959921E+04  0.00000000000E+00 0. -1.
         22    1    3    3    0    0  0.40959816981E+02 -0.46786133630E+02  0.73798876901E+02  0.96503487704E+02  0.00000000000E+00 0.  1.
         22    1    3    3    0    0 -0.82691859799E+02 -0.19571925094E+02  0.12138195302E+03  0.14817078811E+03  0.00000000000E+00 0.  1.
</event>
<event>
 7    1  0.6557591E-006  0.1336807E+03  0.7818608E-02  0.1351704E+00
          2   -1    0    0  502    0  0.00000000000E+00  0.00000000000E+00  0.38471586183E+03  0.38471586183E+03  0.00000000000E+00 0. -1.
          1   -1    0    0  501    0 -0.00000000000E+00 -0.00000000000E+00 -0.17516840928E+04  0.17516840928E+04  0.00000000000E+00 0. -1.
         25    2    1    2    0    0 -0.62897493296E+02 -0.83793375656E+02 -0.12669552888E+03  0.20651948835E+03  0.12498446929E+03 0.  0.
          2    1    1    2  501    0  0.10172541072E+03  0.90175641655E+02 -0.15810276601E+04  0.15868611054E+04  0.00000000000E+00 0. -1.
          1    1    1    2  502    0 -0.38827917423E+02 -0.63822659994E+01  0.34075495808E+03  0.34301936090E+03  0.00000000000E+00 0. -1.
         22    1    3    3    0    0 -0.52979693376E+02  0.15773368724E+02 -0.77030665189E+02  0.94812290609E+02  0.00000000000E+00 0.  1.
         22    1    3    3    0    0 -0.99177999198E+01 -0.99566744379E+02 -0.49664863693E+02  0.11170719774E+03  0.00000000000E+00 0.  1.
</event>
<event>
 7    1  0.6557591E-006  0.5875438E+02  0.7818608E-02  0.1414553E+00
          2   -1    0    0  502    0  0.00000000000E+00  0.00000000000E+00  0.48187313057E+03  0.48187313057E+03  0.00000000000E+00 0. -1.
          1   -1    0    0  501    0 -0.00000000000E+00 -0.00000000000E+00 -0.55196005609E+03  0.55196005609E+03  0.00000000000E+00 0. -1.
         25    2    1    2    0    0  0.66407265293E+02  0.88770344600E+02 -0.25600771689E+03  0.30570566103E+03  0.12500360439E+03 0.  0.
          2    1    1    2  501    0 -0.24999751569E+02 -0.47568529352E+02 -0.26654430118E+03  0.27190736852E+03  0.00000000000E+00 0. -1.
          1    1    1    2  502    0 -0.41407513725E+02 -0.41201815248E+02  0.45246509256E+03  0.45622015711E+03  0.00000000000E+00 0. -1.
         22    1    3    3    0    0  0.12354328566E+01 -0.30220197698E+02 -0.61787024853E+02  0.68792609221E+02  0.00000000000E+00 0. -1.
         22    1    3    3    0    0  0.65171832437E+02  0.11899054230E+03 -0.19422069204E+03  0.23691305181E+03  0.00000000000E+00 0. -1.
</event>
<event>
 7    1  0.6557591E-006  0.6837139E+02  0.7818608E-02  0.1381669E+00
          2   -1    0    0  502    0  0.00000000000E+00  0.00000000000E+00  0.22926493809E+03  0.22926493809E+03  0.00000000000E+00 0. -1.
          1   -1    0    0  501    0 -0.00000000000E+00 -0.00000000000E+00 -0.10312663640E+04  0.10312663640E+04  0.00000000000E+00 0. -1.
         25    2    1    2    0    0  0.94207227210E+02 -0.30306453227E+02 -0.38668046713E+02  0.16405323026E+03  0.12499904702E+03 0.  0.
          2    1    1    2  501    0 -0.39731109754E+02  0.55354821183E+02 -0.92321358311E+03  0.92572460125E+03  0.00000000000E+00 0. -1.
          1    1    1    2  502    0 -0.54476117456E+02 -0.25048367956E+02  0.15988020392E+03  0.17075347058E+03  0.00000000000E+00 0. -1.
         22    1    3    3    0    0  0.19035341536E+02 -0.63698344072E+01 -0.74680751556E+02  0.77331323994E+02  0.00000000000E+00 0.  1.
         22    1    3    3    0    0  0.75171885673E+02 -0.23936618820E+02  0.36012704843E+02  0.86721906265E+02  0.00000000000E+00 0.  1.
</event>
<event>
 7    1  0.6557591E-006  0.4698431E+02  0.7818608E-02  0.1533921E+00
          2   -1    0    0  502    0  0.00000000000E+00  0.00000000000E+00  0.51032993299E+03  0.51032993299E+03  0.00000000000E+00 0. -1.
          1   -1    0    0  501    0 -0.00000000000E+00 -0.00000000000E+00 -0.62462945550E+02  0.62462945550E+02  0.00000000000E+00 0. -1.
         25    2    1    2    0    0  0.20556582856E+02 -0.64232031899E+02  0.18415297392E+03  0.23256395886E+03  0.12500140054E+03 0.  0.
          2    1    1    2  501    0 -0.21913313952E+02  0.18505939524E+02 -0.30856036861E+02  0.42127878380E+02  0.00000000000E+00 0. -1.
          1    1    1    2  502    0  0.13567310960E+01  0.45726092374E+02  0.29457005038E+03  0.29810104130E+03  0.00000000000E+00 0. -1.
         22    1    3    3    0    0 -0.37852047569E+02  0.16044024800E+02  0.70909321846E+02  0.81965359522E+02  0.00000000000E+00 0. -1.
         22    1    3    3    0    0  0.58408630426E+02 -0.80276056699E+02  0.11324365207E+03  0.15059859934E+03  0.00000000000E+00 0. -1.
</event>
<event>
 7    1  0.6557591E-006  0.5987611E+02  0.7818608E-02  0.1423725E+00
          2   -1    0    0  502    0  0.00000000000E+00  0.00000000000E+00  0.10147821386E+04  0.10147821386E+04  0.00000000000E+00 0. -1.
          1   -1    0    0  501    0 -0.00000000000E+00 -0.00000000000E+00 -0.24180276684E+03  0.24180276684E+03  0.00000000000E+00 0. -1.
         25    2    1    2    0    0 -0.45192786433E+02  0.55728806638E+01  0.25526364778E+02  0.13546169322E+03  0.12499932034E+03 0.  0.
          2    1    1    2  501    0  0.43934119106E+02  0.43546489517E+02 -0.18104747883E+03  0.19132353008E+03  0.00000000000E+00 0. -1.
          1    1    1    2  502    0  0.12586673274E+01 -0.49119370181E+02  0.92850048579E+03  0.92979968212E+03  0.00000000000E+00 0. -1.
         22    1    3    3    0    0  0.17604615894E+02 -0.27497265524E+02  0.50574853601E+02  0.60198321645E+02  0.00000000000E+00 0. -1.
         22    1    3    3    0    0 -0.62797402327E+02  0.33070146188E+02 -0.25048488823E+02  0.75263371571E+02  0.00000000000E+00 0. -1.
</event>
<event>
 7    1  0.6557591E-006  0.7302973E+02  0.7818608E-02  0.1379629E+00
          2   -1    0    0  502    0  0.00000000000E+00  0.00000000000E+00  0.72534303950E+03  0.72534303950E+03  0.00000000000E+00 0. -1.
          1   -1    0    0  501    0 -0.00000000000E+00 -0.00000000000E+00 -0.39928775502E+03  0.39928775502E+03  0.00000000000E+00 0. -1.
         25    2    1    2    0    0  0.20759763531E+02 -0.10650503066E+02  0.40612675150E+03  0.42556923394E+03  0.12500333433E+03 0.  0.
          2    1    1    2  501    0 -0.16442456330E+02 -0.71154669872E+02 -0.38061285221E+03  0.38755578267E+03  0.00000000000E+00 0. -1.
          1    1    1    2  502    0 -0.43173072006E+01  0.81805172939E+02  0.30054138519E+03  0.31150577791E+03  0.00000000000E+00 0. -1.
         22    1    3    3    0    0 -0.21660623592E+02 -0.15285817558E+02  0.11933801324E+02  0.29073259997E+02  0.00000000000E+00 0. -1.
         22    1    3    3    0    0  0.42420387123E+02  0.46353144911E+01  0.39419295018E+03  0.39649597395E+03  0.00000000000E+00 0. -1.
</event>
<event>
 7    1  0.6557591E-006  0.8884742E+02  0.7818608E-02  0.1426489E+00
          2   -1    0    0  502    0  0.00000000000E+00  0.00000000000E+00  0.27153885781E+03  0.27153885781E+03  0.00000000000E+00 0. -1.
          1   -1    0    0  501    0 -0.00000000000E+00 -0.00000000000E+00 -0.10571143324E+04  0.10571143324E+04  0.00000000000E+00 0. -1.
         25    2    1    2    0    0  0.36080879868E+01  0.84445875548E+02 -0.52242930074E+03  0.54378437033E+03  0.12499977181E+03 0.  0.
          2    1    1    2  501    0  0.28675816586E+02 -0.87433945533E+02 -0.51893676406E+03  0.52703165216E+03  0.00000000000E+00 0. -1.
          1    1    1    2  502    0 -0.32283904572E+02  0.29880699845E+01  0.25579059017E+03  0.25783716775E+03  0.00000000000E+00 0. -1.
         22    1    3    3    0    0  0.56036043346E+02  0.10554183573E+02 -0.25923838647E+03  0.26543543464E+03  0.00000000000E+00 0. -1.
         22    1    3    3    0    0 -0.52427955360E+02  0.73891691975E+02 -0.26319091427E+03  0.27834893569E+03  0.00000000000E+00 0. -1.
</event>
<event>
 7    1  0.6557591E-006  0.3799015E+03  0.7818608E-02  0.1167859E+00
          2   -1    0    0  502    0  0.00000000000E+00  0.00000000000E+00  0.45075378357E+04  0.45075378357E+04  0.00000000000E+00 0. -1.
          1   -1    0    0  501    0 -0.00000000000E+00 -0.00000000000E+00 -0.10298282387E+03  0.10298282387E+03  0.00000000000E+00 0. -1.
         25    2    1    2    0    0 -0.31936483149E+03 -0.18856203590E+03  0.14479821542E+04  0.14999421979E+04  0.12499896508E+03 0.  0.
          2    1    1    2  501    0 -0.49134991958E+02  0.69642219459E+02 -0.36388212894E+02  0.92673557197E+02  0.00000000000E+00 0. -1.
          1    1    1    2  502    0  0.36849982345E+03  0.11891981644E+03  0.29929610706E+04  0.30179049045E+04  0.00000000000E+00 0. -1.
         22    1    3    3    0    0 -0.11699665882E+03 -0.10271814619E+03  0.40166787572E+03  0.43078569860E+03  0.00000000000E+00 0. -1.
         22    1    3    3    0    0 -0.20236817267E+03 -0.85843889706E+02  0.10463142784E+04  0.10691564993E+04  0.00000000000E+00 0. -1.
</event>
<event>
 7    1  0.6557591E-006  0.3860429E+03  0.7818608E-02  0.1206547E+00
          2   -1    0    0  502    0  0.00000000000E+00  0.00000000000E+00  0.32365961676E+04  0.32365961676E+04  0.00000000000E+00 0. -1.
          1   -1    0    0  501    0 -0.00000000000E+00 -0.00000000000E+00 -0.14388068723E+04  0.14388068723E+04  0.00000000000E+00 0. -1.
         25    2    1    2    0    0 -0.32251563306E+03  0.86014401943E+02  0.16507263902E+04  0.16887679232E+04  0.12499868866E+03 0.  0.
          2    1    1    2  501    0  0.37004358692E+03 -0.11285858330E+03 -0.13929393907E+04  0.14456657505E+04  0.00000000000E+00 0. -1.
          1    1    1    2  502    0 -0.47527953863E+02  0.26844181355E+02  0.15400022958E+04  0.15409693662E+04  0.00000000000E+00 0. -1.
         22    1    3    3    0    0 -0.25886194135E+03  0.11564666894E+03  0.13985779573E+04  0.14270262645E+04  0.00000000000E+00 0. -1.
         22    1    3    3    0    0 -0.63653691706E+02 -0.29632267000E+02  0.25214843287E+03  0.26174165873E+03  0.00000000000E+00 0. -1.
</event>
<event>
 7    1  0.6557591E-006  0.2831302E+03  0.7818608E-02  0.1159617E+00
          2   -1    0    0  502    0  0.00000000000E+00  0.00000000000E+00  0.91234902632E+03  0.91234902632E+03  0.00000000000E+00 0. -1.
          1   -1    0    0  501    0 -0.00000000000E+00 -0.00000000000E+00 -0.13476225884E+04  0.13476225884E+04  0.00000000000E+00 0. -1.
         25    2    1    2    0    0 -0.47190116716E+02  0.27639937975E+03 -0.10426703381E+03  0.32422226729E+03  0.12499976010E+03 0.  0.
          2    1    1    2  501    0 -0.78606691493E+02 -0.27658566496E+03 -0.11100133061E+04  0.11466508544E+04  0.00000000000E+00 0. -1.
          1    1    1    2  502    0  0.12579680821E+03  0.18628520369E+00  0.77900677791E+03  0.78909849302E+03  0.00000000000E+00 0. -1.
         22    1    3    3    0    0 -0.34009722340E+02  0.86204861393E+02  0.22385911344E+02  0.95336605604E+02  0.00000000000E+00 0.  1.
         22    1    3    3    0    0 -0.13180394376E+02  0.19019451836E+03 -0.12665294515E+03  0.22888566169E+03  0.00000000000E+00 0.  1.
</event>
<event>
 7    1  0.6557591E-006  0.1662136E+03  0.7818608E-02  0.1371725E+00
          2   -1    0    0  502    0  0.00000000000E+00  0.00000000000E+00  0.10683911088E+04  0.10683911088E+04  0.00000000000E+00 0. -1.
          1   -1    0    0  501    0 -0.00000000000E+00 -0.00000000000E+00 -0.54536457839E+03  0.54536457839E+03  0.00000000000E+00 0. -1.
         25    2    1    2    0    0  0.41409875224E+01  0.14868015250E+03 -0.72843592375E+02  0.20749686849E+03  0.12500330379E+03 0.  0.
          2    1    1    2  501    0  0.11090735246E+02 -0.17067994337E+03 -0.38695437655E+03  0.42307013249E+03  0.00000000000E+00 0. -1.
          1    1    1    2  502    0 -0.15231722768E+02  0.21999790869E+02  0.98282449931E+03  0.98318868617E+03  0.00000000000E+00 0. -1.
         22    1    3    3    0    0 -0.33211426472E+02  0.78380362328E+02  0.17686444037E+02  0.86944179505E+02  0.00000000000E+00 0.  1.
         22    1    3    3    0    0  0.37352413995E+02  0.70299790171E+02 -0.90530036412E+02  0.12055268899E+03  0.00000000000E+00 0.  1.
</event>
<event>
 7    1  0.6557591E-006  0.5168226E+02  0.7818608E-02  0.1438706E+00
          2   -1    0    0  502    0  0.00000000000E+00  0.00000000000E+00  0.18963149602E+03  0.18963149602E+03  0.00000000000E+00 0. -1.
          1   -1    0    0  501    0 -0.00000000000E+00 -0.00000000000E+00 -0.16462891012E+03  0.16462891012E+03  0.00000000000E+00 0. -1.
         25    2    1    2    0    0 -0.11677806902E+02 -0.63386575308E+02  0.45495828423E+02  0.14780544094E+03  0.12498939501E+03 0.  0.
          2    1    1    2  501    0 -0.34088350546E+02  0.38846366523E+02 -0.99376791258E+02  0.11201251035E+03  0.00000000000E+00 0. -1.
          1    1    1    2  502    0  0.45766157448E+02  0.24540208786E+02  0.78883548736E+02  0.94442454839E+02  0.00000000000E+00 0. -1.
         22    1    3    3    0    0  0.31014142164E+02 -0.78382442131E+02  0.56194257563E+02  0.10130882899E+03  0.00000000000E+00 0.  1.
         22    1    3    3    0    0 -0.42691949066E+02  0.14995866823E+02 -0.10698429140E+02  0.46496611950E+02  0.00000000000E+00 0.  1.
</event>
<event>
 7    1  0.6557591E-006  0.7516591E+02  0.7818608E-02  0.1473510E+00
          2   -1    0    0  502    0  0.00000000000E+00  0.00000000000E+00  0.77763681683E+03  0.77763681683E+03  0.00000000000E+00 0. -1.
          1   -1    0    0  501    0 -0.00000000000E+00 -0.00000000000E+00 -0.61858426760E+03  0.61858426760E+03  0.00000000000E+00 0. -1.
         25    2    1    2    0    0  0.80023784269E+02  0.55468129242E+02  0.39451844182E+03  0.42514790924E+03  0.12500169752E+03 0.  0.
          2    1    1    2  501    0 -0.21670810090E+02 -0.16273153940E+02 -0.59960200912E+03  0.60021413587E+03  0.00000000000E+00 0. -1.
          1    1    1    2  502    0 -0.58352974179E+02 -0.39194975302E+02  0.36413611653E+03  0.37085903932E+03  0.00000000000E+00 0. -1.
         22    1    3    3    0    0  0.54540055618E+02  0.88451096635E+02  0.34557955333E+03  0.36086485260E+03  0.00000000000E+00 0. -1.
         22    1    3    3    0    0  0.25483728650E+02 -0.32982967393E+02  0.48938888492E+02  0.64283056638E+02  0.00000000000E+00 0. -1.
</event>
<event>
 7    1  0.6557591E-006  0.2321519E+03  0.7818608E-02  0.1280525E+00
          2   -1    0    0  502    0  0.00000000000E+00  0.00000000000E+00  0.27106245232E+04  0.27106245232E+04  0.00000000000E+00 0. -1.
          1   -1    0    0  501    0 -0.00000000000E+00 -0.00000000000E+00 -0.14362268435E+04  0.14362268435E+04  0.00000000000E+00 0. -1.
         25    2    1    2    0    0  0.17982130051E+02  0.26958780938E+03  0.23269319516E+03  0.37784803776E+03  0.12498828985E+03 0.  0.
          2    1    1    2  501    0  0.94768733688E+01 -0.41923794320E+02 -0.13578431951E+04  0.13585233005E+04  0.00000000000E+00 0. -1.
          1    1    1    2  502    0 -0.27459003420E+02 -0.22766401506E+03  0.23995476796E+04  0.24104800284E+04  0.00000000000E+00 0. -1.
         22    1    3    3    0    0  0.34351431825E+01  0.13891889228E+03  0.19795448781E+03  0.24185995552E+03  0.00000000000E+00 0.  1.
         22    1    3    3    0    0  0.14546986868E+02  0.13066891710E+03  0.34738707349E+02  0.13598808224E+03  0.00000000000E+00 0.  1.
</event>
<event>
 7    1  0.6557591E-006  0.1583489E+03  0.7818608E-02  0.1253634E+00
          2   -1    0    0  502    0  0.00000000000E+00  0.00000000000E+00  0.19224484396E+04  0.19224484396E+04  0.00000000000E+00 0. -1.
          1   -1    0    0  501    0 -0.00000000000E+00 -0.00000000000E+00 -0.33466328438E+03  0.33466328438E+03  0.00000000000E+00 0. -1.
         25    2    1    2    0    0  0.10286096449E+03 -0.20898245900E+03  0.33290594374E+03  0.42509402478E+03  0.12499806533E+03 0.  0.
          2    1    1    2  501    0 -0.25671300610E+02  0.77699436127E+02 -0.27892008041E+03  0.29067615882E+03  0.00000000000E+00 0. -1.
          1    1    1    2  502    0 -0.77189663884E+02  0.13128302288E+03  0.15337992919E+04  0.15413415404E+04  0.00000000000E+00 0. -1.
         22    1    3    3    0    0  0.18312855405E+02 -0.95559711671E+02  0.51400627434E+02  0.11004109990E+03  0.00000000000E+00 0.  1.
         22    1    3    3    0    0  0.84548109090E+02 -0.11342274733E+03  0.28150531630E+03  0.31505292487E+03  0.00000000000E+00 0.  1.
</event>
<event>
 7    1  0.6557591E-006  0.1338208E+03  0.7818608E-02  0.1373665E+00
          2   -1    0    0  502    0  0.00000000000E+00  0.00000000000E+00  0.20143196658E+03  0.20143196658E+03  0.00000000000E+00 0. -1.
          1   -1    0    0  501    0 -0.00000000000E+00 -0.00000000000E+00 -0.34017048060E+03  0.34017048060E+03  0.00000000000E+00 0. -1.
         25    2    1    2    0    0  0.10308719750E+03  0.35700034633E+02  0.26139505162E+02  0.16795984134E+03  0.12500308721E+03 0.  0.
          2    1    1    2  501    0 -0.12477776431E+03 -0.60180896954E+02 -0.24813748025E+03  0.28418909185E+03  0.00000000000E+00 0. -1.
          1    1    1    2  502    0  0.21690566813E+02  0.24480862322E+02  0.83259461067E+02  0.89453513994E+02  0.00000000000E+00 0. -1.
         22    1    3    3    0    0  0.56626197560E+02  0.20794838189E+02 -0.49442147818E+02  0.77996650738E+02  0.00000000000E+00 0.  1.
         22    1    3    3    0    0  0.46460999936E+02  0.14905196443E+02  0.75581652980E+02  0.89963190602E+02  0.00000000000E+00 0.  1.
</event>
<event>
 7    1  0.6557591E-006  0.1113183E+03  0.7818608E-02  0.1341631E+00
          2   -1    0    0  502    0  0.00000000000E+00  0.00000000000E+00  0.41186456513E+03  0.41186456513E+03  0.00000000000E+00 0. -1.
          1   -1    0    0  501    0 -0.00000000000E+00 -0.00000000000E+00 -0.13912309921E+04  0.13912309921E+04  0.00000000000E+00 0. -1.
         25    2    1    2    0    0  0.13574375290E+03 -0.85529170308E+02 -0.25368003871E+03  0.32514630984E+03  0.12499982135E+03 0.  0.
          2    1    1    2  501    0 -0.38445808035E+02  0.34290948986E+02 -0.10931609801E+04  0.10943741946E+04  0.00000000000E+00 0. -1.
          1    1    1    2  502    0 -0.97297944860E+02  0.51238221322E+02  0.36747459191E+03  0.38357505275E+03  0.00000000000E+00 0. -1.
         22    1    3    3    0    0  0.23322251959E+02 -0.33796059795E+02  0.19795073023E+01  0.41109847278E+02  0.00000000000E+00 0. -1.
         22    1    3    3    0    0  0.11242150094E+03 -0.51733110513E+02 -0.25565954602E+03  0.28403646256E+03  0.00000000000E+00 0. -1.
</event>
<event>
 7    1  0.6557591E-006  0.1339848E+03  0.7818608E-02  0.1338739E+00
          2   -1    0    0  502    0  0.00000000000E+00  0.00000000000E+00  0.35677755574E+04  0.35677755574E+04  0.00000000000E+00 0. -1.
          1   -1    0    0  501    0 -0.00000000000E+00 -0.00000000000E+00 -0.13735643782E+03  0.13735643782E+03  0.00000000000E+00 0. -1.
         25    2    1    2    0    0 -0.13905662660E+03  0.96681992869E+02  0.14001537439E+04  0.14158883097E+04  0.12500018385E+03 0.  0.
          2    1    1    2  501    0  0.33435918654E+02 -0.28427356179E+02 -0.12388334883E+03  0.13142739194E+03  0.00000000000E+00 0. -1.
          1    1    1    2  502    0  0.10562070794E+03 -0.68254636690E+02  0.21541487246E+04  0.21578162936E+04  0.00000000000E+00 0. -1.
         22    1    3    3    0    0 -0.46482712186E+02 -0.43072655545E+01  0.75029869157E+03  0.75174950725E+03  0.00000000000E+00 0.  1.
         22    1    3    3    0    0 -0.92573914409E+02  0.10098925842E+03  0.64985505228E+03  0.66413880245E+03  0.00000000000E+00 0.  1.
</event>
<event>
 7    1  0.6557591E-006  0.2054065E+03  0.7818608E-02  0.1346506E+00
          2   -1    0    0  502    0  0.00000000000E+00  0.00000000000E+00  0.19755305779E+04  0.19755305779E+04  0.00000000000E+00 0. -1.
          1   -1    0    0  501    0 -0.00000000000E+00 -0.00000000000E+00 -0.45402574012E+03  0.45402574012E+03  0.00000000000E+00 0. -1.
         25    2    1    2    0    0  0.18730215374E+03  0.73957057338E+02  0.12728154567E+03  0.26903073602E+03  0.12500080771E+03 0.  0.
          2    1    1    2  501    0  0.12358820561E+02 -0.23748138331E+02 -0.37671270766E+03  0.37766278428E+03  0.00000000000E+00 0. -1.
          1    1    1    2  502    0 -0.19966097430E+03 -0.50208919007E+02  0.17709359997E+04  0.17828627977E+04  0.00000000000E+00 0. -1.
         22    1    3    3    0    0 -0.27764843188E+01 -0.19653841046E+02 -0.33332386126E+01  0.20126917615E+02  0.00000000000E+00 0.  1.
         22    1    3    3    0    0  0.19007863806E+03  0.93610898384E+02  0.13061478429E+03  0.24890381841E+03  0.00000000000E+00 0.  1.
</event>
<event>
 7    1  0.6557591E-006  0.7908373E+02  0.7818608E-02  0.1481547E+00
          2   -1    0    0  502    0  0.00000000000E+00  0.00000000000E+00  0.26615605640E+03  0.26615605640E+03  0.00000000000E+00 0. -1.
          1   -1    0    0  501    0 -0.00000000000E+00 -0.00000000000E+00 -0.44413980951E+03  0.44413980951E+03  0.00000000000E+00 0. -1.
         25    2    1    2    0    0 -0.77255179273E+02 -0.64278233720E+02  0.18734851262E+03  0.24662683506E+03  0.12500110614E+03 0.  0.
          2    1    1    2  501    0  0.53930676127E+02  0.57350214317E+02 -0.40747302524E+03  0.41500823029E+03  0.00000000000E+00 0. -1.
          1    1    1    2  502    0  0.23324503146E+02  0.69280194026E+01  0.42140759505E+02  0.48660800564E+02  0.00000000000E+00 0. -1.
         22    1    3    3    0    0 -0.91142315519E+02 -0.51734347844E+02  0.66018325394E+02  0.12386195426E+03  0.00000000000E+00 0. -1.
         22    1    3    3    0    0  0.13887136246E+02 -0.12543885875E+02  0.12133018723E+03  0.12276488081E+03  0.00000000000E+00 0. -1.
</event>
<event>
 7    1  0.6557591E-006  0.1551597E+03  0.7818608E-02  0.1315586E+00
          2   -1    0    0  502    0  0.00000000000E+00  0.00000000000E+00  0.31853899761E+04  0.31853899761E+04  0.00000000000E+00 0. -1.
          1   -1    0    0  501    0 -0.00000000000E+00 -0.00000000000E+00 -0.50393596217E+03  0.50393596217E+03  0.00000000000E+00 0. -1.
         25    2    1    2    0    0 -0.11052722474E+03 -0.16155280914E+03  0.12152141090E+03  0.26212558099E+03  0.12500715719E+03 0.  0.
          2    1    1    2  501    0  0.39205771364E+02  0.25004446704E+02 -0.43039876260E+03  0.43290346465E+03  0.00000000000E+00 0. -1.
          1    1    1    2  502    0  0.71321453376E+02  0.13654836244E+03  0.29903313656E+04  0.29942968926E+04  0.00000000000E+00 0. -1.
         22    1    3    3    0    0  0.63352398024E+01 -0.99743792385E+02  0.56299297906E+02  0.11471081173E+03  0.00000000000E+00 0. -1.
         22    1    3    3    0    0 -0.11686246454E+03 -0.61809016755E+02  0.65222112998E+02  0.14741476926E+03  0.00000000000E+00 0. -1.
</event>
<event>
 7    1  0.6557591E-006  0.9635913E+02  0.7818608E-02  0.1324912E+00
          2   -1    0    0  502    0  0.00000000000E+00  0.00000000000E+00  0.49589081754E+03  0.49589081754E+03  0.00000000000E+00 0. -1.
          1   -1    0    0  501    0 -0.00000000000E+00 -0.00000000000E+00 -0.34720575750E+03  0.34720575750E+03  0.00000000000E+00 0. -1.
         25    2    1    2    0    0 -0.31272072240E+02 -0.15633341232E+03  0.73574439492E+02  0.21553222052E+03  0.12499144622E+03 0.  0.
          2    1    1    2  501    0  0.19831530829E+02  0.65977134853E+02 -0.26585898680E+03  0.27464026070E+03  0.00000000000E+00 0. -1.
          1    1    1    2  502    0  0.11440541411E+02  0.90356277465E+02  0.34096960735E+03  0.35292409382E+03  0.00000000000E+00 0. -1.
         22    1    3    3    0    0 -0.14817191776E+02  0.79221809788E+01  0.44954552399E+02  0.47991894160E+02  0.00000000000E+00 0. -1.
         22    1    3    3    0    0 -0.16454880464E+02 -0.16425559330E+03  0.28619887093E+02  0.16754032636E+03  0.00000000000E+00 0. -1.
</event>
<event>
 7    1  0.6557591E-006  0.4000887E+03  0.7818608E-02  0.1273483E+00
          2   -1    0    0  502    0  0.00000000000E+00  0.00000000000E+00  0.10974281189E+04  0.10974281189E+04  0.00000000000E+00 0. -1.
          1   -1    0    0  501    0 -0.00000000000E+00 -0.00000000000E+00 -0.11855568306E+04  0.11855568306E+04  0.00000000000E+00 0. -1.
         25    2    1    2    0    0 -0.28805258981E+03  0.30069542403E+03  0.38634095683E+03  0.58161591132E+03  0.12500280337E+03 0.  0.
          2    1    1    2  501    0  0.19080898465E+02 -0.18643672337E+02 -0.10258248470E+04  0.10261716639E+04  0.00000000000E+00 0. -1.
          1    1    1    2  502    0  0.26897169135E+03 -0.28205175170E+03  0.55135517845E+03  0.67519737424E+03  0.00000000000E+00 0. -1.
         22    1    3    3    0    0 -0.12247033810E+02  0.81584527885E+02  0.75252316250E+02  0.11166439060E+03  0.00000000000E+00 0. -1.
         22    1    3    3    0    0 -0.27580555600E+03  0.21911089615E+03  0.31108864058E+03  0.46995152072E+03  0.00000000000E+00 0. -1.
</event>
<event>
 7    1  0.6557591E-006  0.5370332E+02  0.7818608E-02  0.1484226E+00
          2   -1    0    0  502    0  0.00000000000E+00  0.00000000000E+00  0.41121984085E+04  0.41121984085E+04  0.00000000000E+00 0. -1.
          1   -1    0    0  501    0 -0.00000000000E+00 -0.00000000000E+00 -0.79492858451E+02  0.79492858451E+02  0.00000000000E+00 0. -1.
         25    2    1    2    0    0  0.27092103787E+02 -0.55584220511E+02  0.20060853221E+03  0.24431751202E+03  0.12499470318E+03 0.  0.
          2    1    1    2  501    0  0.19675913194E+02  0.29141198009E+02 -0.52072717863E+02  0.62832467141E+02  0.00000000000E+00 0. -1.
          1    1    1    2  502    0 -0.46768016981E+02  0.26443022503E+02  0.38841697357E+04  0.38845412878E+04  0.00000000000E+00 0. -1.
         22    1    3    3    0    0  0.38604229544E+02 -0.72902885053E+02  0.59567684921E+02  0.10175178757E+03  0.00000000000E+00 0. -1.
         22    1    3    3    0    0 -0.11512125757E+02  0.17318664542E+02  0.14104084729E+03  0.14256572444E+03  0.00000000000E+00 0. -1.
</event>
<event>
 7    1  0.6557591E-006  0.6977461E+02  0.7818608E-02  0.1410360E+00
          2   -1    0    0  502    0  0.00000000000E+00  0.00000000000E+00  0.31662032099E+04  0.31662032099E+04  0.00000000000E+00 0. -1.
          1   -1    0    0  501    0 -0.00000000000E+00 -0.00000000000E+00 -0.27482012468E+02  0.27482012468E+02  0.00000000000E+00 0. -1.
         25    2    1    2    0    0 -0.10703484124E+03  0.24169422438E+02  0.13898542165E+04  0.13997715502E+04  0.12500012557E+03 0.  0.
          2    1    1    2  501    0  0.60826110039E+02 -0.31263734862E+02  0.30453240781E+02  0.74864121273E+02  0.00000000000E+00 0. -1.
          1    1    1    2  502    0  0.46208731206E+02  0.70943124239E+01  0.17184137402E+04  0.17190495509E+04  0.00000000000E+00 0. -1.
         22    1    3    3    0    0  0.28517496284E+02  0.91366640391E+01  0.25227314473E+03  0.25404422011E+03  0.00000000000E+00 0.  1.
         22    1    3    3    0    0 -0.13555233753E+03  0.15032758399E+02  0.11375810717E+04  0.11457273300E+04  0.00000000000E+00 0.  1.
</event>
<event>
 7    1  0.6557591E-006  0.5751872E+02  0.7818608E-02  0.1455547E+00
          2   -1    0    0  502    0  0.00000000000E+00  0.00000000000E+00  0.14558933753E+04  0.14558933753E+04  0.00000000000E+00 0. -1.
          1   -1    0    0  501    0 -0.00000000000E+00 -0.00000000000E+00 -0.47965201591E+03  0.47965201591E+03  0.00000000000E+00 0. -1.
         25    2    1    2    0    0 -0.73810147742E+02 -0.55148234497E+02  0.26555688904E+03  0.30763259384E+03  0.12501234259E+03 0.  0.
          2    1    1    2  501    0  0.34616685286E+02  0.45692297745E+02 -0.45647340168E+03  0.46005876518E+03  0.00000000000E+00 0. -1.
          1    1    1    2  502    0  0.39193462456E+02  0.94559367518E+01  0.11671578720E+04  0.11678540322E+04  0.00000000000E+00 0. -1.
         22    1    3    3    0    0  0.33511237158E+01  0.32593173275E+02  0.98208152956E+02  0.10352963963E+03  0.00000000000E+00 0. -1.
         22    1    3    3    0    0 -0.77161271458E+02 -0.87741407772E+02  0.16734873608E+03  0.20410295422E+03  0.00000000000E+00 0. -1.
</event>
<event>
 7    1  0.6557591E-006  0.4752146E+02  0.7818608E-02  0.1497279E+00
          2   -1    0    0  502    0  0.00000000000E+00  0.00000000000E+00  0.84628932221E+03  0.84628932221E+03  0.00000000000E+00 0. -1.
          1   -1    0    0  501    0 -0.00000000000E+00 -0.00000000000E+00 -0.36474166891E+02  0.36474166891E+02  0.00000000000E+00 0. -1.
         25    2    1    2    0    0  0.19555939828E+02  0.47345294480E+02  0.40525624758E+03  0.42717852471E+03  0.12499941632E+03 0.  0.
          2    1    1    2  501    0 -0.43599532031E+02 -0.20169293235E+02 -0.13497654917E+01  0.48057688769E+02  0.00000000000E+00 0. -1.
          1    1    1    2  502    0  0.24043592203E+02 -0.27176001245E+02  0.40590867323E+03  0.40752727562E+03  0.00000000000E+00 0. -1.
         22    1    3    3    0    0  0.50090811793E+02  0.26381531294E+02  0.37528900608E+03  0.37953512710E+03  0.00000000000E+00 0.  1.
         22    1    3    3    0    0 -0.30534871965E+02  0.20963763186E+02  0.29967241503E+02  0.47643397613E+02  0.00000000000E+00 0.  1.
</event>
<event>
 7    1  0.6557591E-006  0.1120727E+03  0.7818608E-02  0.1345822E+00
          2   -1    0    0  502    0  0.00000000000E+00  0.00000000000E+00  0.95926873922E+03  0.95926873922E+03  0.00000000000E+00 0. -1.
          1   -1    0    0  501    0 -0.00000000000E+00 -0.00000000000E+00 -0.12871106269E+03  0.12871106269E+03  0.00000000000E+00 0. -1.
         25    2    1    2    0    0  0.58889758707E+02 -0.47799665526E+02 -0.82443395515E+01  0.14644467458E+03  0.12500104749E+03 0.  0.
          2    1    1    2  501    0  0.77206736139E+00 -0.49349832022E+02 -0.34885895822E+02  0.60440282394E+02  0.00000000000E+00 0. -1.
          1    1    1    2  502    0 -0.59661826069E+02  0.97149497548E+02  0.87368791191E+03  0.88109484494E+03  0.00000000000E+00 0. -1.
         22    1    3    3    0    0 -0.18563973675E+02 -0.45958568716E+02 -0.39018060157E+02  0.63081060355E+02  0.00000000000E+00 0.  1.
         22    1    3    3    0    0  0.77453732383E+02 -0.18410968097E+01  0.30773720606E+02  0.83363614229E+02  0.00000000000E+00 0.  1.
</event>
<event>
 7    1  0.6557591E-006  0.2093210E+03  0.7818608E-02  0.1218956E+00
          2   -1    0    0  502    0  0.00000000000E+00  0.00000000000E+00  0.22232897706E+04  0.22232897706E+04  0.00000000000E+00 0. -1.
          1   -1    0    0  501    0 -0.00000000000E+00 -0.00000000000E+00 -0.48424591906E+03  0.48424591906E+03  0.00000000000E+00 0. -1.
         25    2    1    2    0    0  0.67818046736E+02 -0.28137263568E+03  0.60146951943E+02  0.32095359255E+03  0.12499482056E+03 0.  0.
          2    1    1    2  501    0  0.40824462296E+01  0.88136493513E+02 -0.34301721171E+03  0.35418288410E+03  0.00000000000E+00 0. -1.
          1    1    1    2  502    0 -0.71900492966E+02  0.19323614217E+03  0.20219141114E+04  0.20323992131E+04  0.00000000000E+00 0. -1.
         22    1    3    3    0    0 -0.21569297908E+02 -0.14409125280E+03 -0.20901272094E+01  0.14571167551E+03  0.00000000000E+00 0.  1.
         22    1    3    3    0    0  0.89387344644E+02 -0.13728138288E+03  0.62237079153E+02  0.17524191704E+03  0.00000000000E+00 0.  1.
</event>
<event>
 7    1  0.6557591E-006  0.7372206E+02  0.7818608E-02  0.1488338E+00
          2   -1    0    0  502    0  0.00000000000E+00  0.00000000000E+00  0.20549685664E+03  0.20549685664E+03  0.00000000000E+00 0. -1.
          1   -1    0    0  501    0 -0.00000000000E+00 -0.00000000000E+00 -0.19027703013E+04  0.19027703013E+04  0.00000000000E+00 0. -1.
         25    2    1    2    0    0 -0.61895100732E+02  0.50296880789E+02  0.34662502961E+02  0.15227494983E+03  0.12500156608E+03 0.  0.
          2    1    1    2  501    0  0.39912337248E+02 -0.61963639838E+02 -0.18418357028E+04  0.18433098609E+04  0.00000000000E+00 0. -1.
          1    1    1    2  502    0  0.21982763484E+02  0.11666759049E+02  0.10989975522E+03  0.11268234713E+03  0.00000000000E+00 0. -1.
         22    1    3    3    0    0 -0.42177201585E+02 -0.88673890951E+01 -0.37336401993E+02  0.57022397676E+02  0.00000000000E+00 0.  1.
         22    1    3    3    0    0 -0.19717899146E+02  0.59164269884E+02  0.71998904953E+02  0.95252552156E+02  0.00000000000E+00 0.  1.
</event>
<event>
 7    1  0.6557591E-006  0.1009881E+03  0.7818608E-02  0.1352701E+00
          2   -1    0    0  502    0  0.00000000000E+00  0.00000000000E+00  0.17199456211E+04  0.17199456211E+04  0.00000000000E+00 0. -1.
          1   -1    0    0  501    0 -0.00000000000E+00 -0.00000000000E+00 -0.10927103951E+04  0.10927103951E+04  0.00000000000E+00 0. -1.
         25    2    1    2    0    0  0.36101873889E+02 -0.12018006377E+03  0.88542792575E+03  0.90296965815E+03  0.12499999528E+03 0.  0.
          2    1    1    2  501    0 -0.64911696261E+02  0.77314076913E+02 -0.10807774096E+04  0.10854818303E+04  0.00000000000E+00 0. -1.
          1    1    1    2  502    0  0.28809822372E+02  0.42865986861E+02  0.82258470985E+03  0.82420452776E+03  0.00000000000E+00 0. -1.
         22    1    3    3    0    0  0.43729832348E+02 -0.11578260643E+03  0.43001365837E+03  0.44747028569E+03  0.00000000000E+00 0. -1.
         22    1    3    3    0    0 -0.76279584593E+01 -0.43974573390E+01  0.45541426738E+03  0.45549937246E+03  0.00000000000E+00 0. -1.
</event>
<event>
 7    1  0.6557591E-006  0.2439919E+02  0.7818608E-02  0.1678428E+00
          2   -1    0    0  502    0  0.00000000000E+00  0.00000000000E+00  0.13935107758E+04  0.13935107758E+04  0.00000000000E+00 0. -1.
          1   -1    0    0  501    0 -0.00000000000E+00 -0.00000000000E+00 -0.84571695424E+02  0.84571695424E+02  0.00000000000E+00 0. -1.
         25    2    1    2    0    0 -0.35628739544E+02 -0.25845392224E+02  0.15843487050E+03  0.20654564894E+03  0.12498842156E+03 0.  0.
          2    1    1    2  501    0  0.22664827761E+02  0.52741909230E+01 -0.58152449061E+02  0.62635603606E+02  0.00000000000E+00 0. -1.
          1    1    1    2  502    0  0.12963911783E+02  0.20571201301E+02  0.12086566590E+04  0.12089012187E+04  0.00000000000E+00 0. -1.
         22    1    3    3    0    0 -0.44550992252E+02  0.38743095836E+02  0.11163665544E+03  0.12628761310E+03  0.00000000000E+00 0.  1.
         22    1    3    3    0    0  0.89222527081E+01 -0.64588488060E+02  0.46798215060E+02  0.80258035834E+02  0.00000000000E+00 0.  1.
</event>
<event>
 7    1  0.6557591E-006  0.1211464E+03  0.7818608E-02  0.1273129E+00
          2   -1    0    0  502    0  0.00000000000E+00  0.00000000000E+00  0.11419742559E+04  0.11419742559E+04  0.00000000000E+00 0. -1.
          1   -1    0    0  501    0 -0.00000000000E+00 -0.00000000000E+00 -0.30535772245E+03  0.30535772245E+03  0.00000000000E+00 0. -1.
         25    2    1    2    0    0  0.13200029208E+02 -0.16709461008E+03 -0.14085509478E+03  0.25211078871E+03  0.12499937029E+03 0.  0.
          2    1    1    2  501    0  0.40230974634E+02  0.96667168678E+02 -0.81426154397E+02  0.13263970537E+03  0.00000000000E+00 0. -1.
          1    1    1    2  502    0 -0.53431003842E+02  0.70427441399E+02  0.10588977827E+04  0.10625814843E+04  0.00000000000E+00 0. -1.
         22    1    3    3    0    0  0.64189274869E+02 -0.13080818600E+03 -0.88204724801E+02  0.17032650413E+03  0.00000000000E+00 0. -1.
         22    1    3    3    0    0 -0.50989245661E+02 -0.36286424076E+02 -0.52650369977E+02  0.81784284579E+02  0.00000000000E+00 0. -1.
</event>
<event>
 7    1  0.6557591E-006  0.5605858E+02  0.7818608E-02  0.1417515E+00
          2   -1    0    0  502    0  0.00000000000E+00  0.00000000000E+00  0.22520761143E+03  0.22520761143E+03  0.00000000000E+00 0. -1.
          1   -1    0    0  501    0 -0.00000000000E+00 -0.00000000000E+00 -0.15561228681E+04  0.15561228681E+04  0.00000000000E+00 0. -1.
         25    2    1    2    0    0  0.55800362789E+02  0.18046201859E+02  0.28664561160E+02  0.14102049396E+03  0.12500310701E+03 0.  0.
          2    1    1    2  501    0 -0.11822794313E+02 -0.54797678959E+02 -0.14935467888E+04  0.14945984660E+04  0.00000000000E+00 0. -1.
          1    1    1    2  502    0 -0.43977568476E+02  0.36751477099E+02  0.13396697104E+03  0.14571151955E+03  0.00000000000E+00 0. -1.
         22    1    3    3    0    0  0.92906128027E+02  0.32055209652E+02  0.23219350984E+02  0.10098625328E+03  0.00000000000E+00 0. -1.
         22    1    3    3    0    0 -0.37105765238E+02 -0.14009007793E+02  0.54452101757E+01  0.40034240683E+02  0.00000000000E+00 0. -1.
</event>
<event>
 7    1  0.6557591E-006  0.8104008E+02  0.7818608E-02  0.1407229E+00
          2   -1    0    0  502    0  0.00000000000E+00  0.00000000000E+00  0.15069923599E+04  0.15069923599E+04  0.00000000000E+00 0. -1.
          1   -1    0    0  501    0 -0.00000000000E+00 -0.00000000000E+00 -0.79646597173E+03  0.79646597173E+03  0.00000000000E+00 0. -1.
         25    2    1    2    0    0 -0.10963373987E+03 -0.20881881585E+02  0.48281690848E+03  0.51107065253E+03  0.12500173948E+03 0.  0.
          2    1    1    2  501    0  0.80502116544E+02 -0.83205001319E+01 -0.77982294413E+03  0.78401125354E+03  0.00000000000E+00 0. -1.
          1    1    1    2  502    0  0.29131623328E+02  0.29202381717E+02  0.10075324238E+04  0.10083764256E+04  0.00000000000E+00 0. -1.
         22    1    3    3    0    0 -0.13387138025E+03 -0.34830035764E+00  0.35609278176E+03  0.38042573124E+03  0.00000000000E+00 0.  1.
         22    1    3    3    0    0  0.24237640378E+02 -0.20533581227E+02  0.12672412671E+03  0.13064492130E+03  0.00000000000E+00 0.  1.
</event>
<event>
 7    1  0.6557591E-006  0.1691063E+03  0.7818608E-02  0.1320444E+00
          2   -1    0    0  502    0  0.00000000000E+00  0.00000000000E+00  0.69262996492E+03  0.69262996492E+03  0.00000000000E+00 0. -1.
          1   -1    0    0  501    0 -0.00000000000E+00 -0.00000000000E+00 -0.25396755804E+04  0.25396755804E+04  0.00000000000E+00 0. -1.
         25    2    1    2    0    0 -0.18563574720E+03  0.30145253521E+02  0.73764985523E+02  0.23756650851E+03  0.12500882340E+03 0.  0.
          2    1    1    2  501    0  0.19141852768E+02 -0.36085311786E+02 -0.24446776749E+04  0.24450189150E+04  0.00000000000E+00 0. -1.
          1    1    1    2  502    0  0.16649389443E+03  0.59400582644E+01  0.52386707395E+03  0.54972012183E+03  0.00000000000E+00 0. -1.
         22    1    3    3    0    0 -0.58588626903E+01  0.43018586478E+02  0.27823927853E+02  0.51566423337E+02  0.00000000000E+00 0.  1.
         22    1    3    3    0    0 -0.17977688451E+03 -0.12873332957E+02  0.45941057670E+02  0.18600008517E+03  0.00000000000E+00 0.  1.
</event>
<event>
 7    1  0.6557591E-006  0.4393788E+02  0.7818608E-02  0.1484468E+00
          2   -1    0    0  502    0  0.00000000000E+00  0.00000000000E+00  0.28470553602E+04  0.28470553602E+04  0.00000000000E+00 0. -1.
          1   -1    0    0  501    0 -0.00000000000E+00 -0.00000000000E+00 -0.52923206820E+02  0.52923206820E+02  0.00000000000E+00 0. -1.
         25    2    1    2    0    0 -0.55155362329E+01 -0.17661256237E+00  0.29148549671E+03  0.31720524694E+03  0.12499968626E+03 0.  0.
          2    1    1    2  501    0  0.68359487073E+01  0.44094650201E+02 -0.27388640547E+02  0.52356527789E+02  0.00000000000E+00 0. -1.
          1    1    1    2  502    0 -0.13204124744E+01 -0.43918037638E+02  0.25300352972E+04  0.25304167922E+04  0.00000000000E+00 0. -1.
         22    1    3    3    0    0 -0.52930774054E+02  0.17296861352E+02  0.23459256324E+03  0.24111100966E+03  0.00000000000E+00 0. -1.
         22    1    3    3    0    0  0.47415237821E+02 -0.17473473914E+02  0.56892933470E+02  0.76094237279E+02  0.00000000000E+00 0. -1.
</event>
<event>
 7    1  0.6557591E-006  0.9897492E+02  0.7818608E-02  0.1386580E+00
          2   -1    0    0  502    0  0.00000000000E+00  0.00000000000E+00  0.22686481875E+04  0.22686481875E+04  0.00000000000E+00 0. -1.
          1   -1    0    0  501    0 -0.00000000000E+00 -0.00000000000E+00 -0.75451612969E+02  0.75451612969E+02  0.00000000000E+00 0. -1.
         25    2    1    2    0    0 -0.64110073525E+02 -0.54798619223E+02  0.36930290914E+03  0.39890251032E+03  0.12500233538E+03 0.  0.
          2    1    1    2  501    0  0.45945310300E+02  0.90214840745E+02 -0.18038438805E+02  0.10283518028E+03  0.00000000000E+00 0. -1.
          1    1    1    2  502    0  0.18164763225E+02 -0.35416221522E+02  0.18419321042E+04  0.18423621099E+04  0.00000000000E+00 0. -1.
         22    1    3    3    0    0 -0.73480780115E+02 -0.38696392919E+02  0.10466615489E+03  0.13361077745E+03  0.00000000000E+00 0.  1.
         22    1    3    3    0    0  0.93707065902E+01 -0.16102226303E+02  0.26463675425E+03  0.26529173288E+03  0.00000000000E+00 0.  1.
</event>
<event>
 7    1  0.6557591E-006  0.9094245E+02  0.7818608E-02  0.1410540E+00
          2   -1    0    0  502    0  0.00000000000E+00  0.00000000000E+00  0.57249091540E+03  0.57249091540E+03  0.00000000000E+00 0. -1.
          1   -1    0    0  501    0 -0.00000000000E+00 -0.00000000000E+00 -0.11318307213E+04  0.11318307213E+04  0.00000000000E+00 0. -1.
         25    2    1    2    0    0  0.74290922906E+02 -0.97722573766E+02 -0.83282811781E+03  0.85105606437E+03  0.12499963296E+03 0.  0.
          2    1    1    2  501    0 -0.31039840166E+02  0.17873779978E+02 -0.28510135241E+03  0.28734252180E+03  0.00000000000E+00 0. -1.
          1    1    1    2  502    0 -0.43251082739E+02  0.79848793789E+02  0.55858966432E+03  0.56592305053E+03  0.00000000000E+00 0. -1.
         22    1    3    3    0    0  0.10715979924E+02 -0.10446177993E+03 -0.40101629227E+03  0.41453728706E+03  0.00000000000E+00 0.  1.
         22    1    3    3    0    0  0.63574942981E+02  0.67392061669E+01 -0.43181182553E+03  0.43651877731E+03  0.00000000000E+00 0.  1.
</event>
<event>
 7    1  0.6557591E-006  0.1329402E+03  0.7818608E-02  0.1357511E+00
          2   -1    0    0  502    0  0.00000000000E+00  0.00000000000E+00  0.20866192888E+04  0.20866192888E+04  0.00000000000E+00 0. -1.
          1   -1    0    0  501    0 -0.00000000000E+00 -0.00000000000E+00 -0.13584635355E+04  0.13584635355E+04  0.00000000000E+00 0. -1.
         25    2    1    2    0    0  0.36239747342E+02 -0.90545649448E+02 -0.24122557762E+02  0.16038293290E+03  0.12501581280E+03 0.  0.
          2    1    1    2  501    0  0.22408957582E+01 -0.37602069821E+02 -0.12637125096E+04  0.12642738011E+04  0.00000000000E+00 0. -1.
          1    1    1    2  502    0 -0.38480643100E+02  0.12814771927E+03  0.20159908206E+04  0.20204260904E+04  0.00000000000E+00 0. -1.
         22    1    3    3    0    0  0.45961690580E+02 -0.26008379175E+02  0.42000261168E+02  0.67475437949E+02  0.00000000000E+00 0. -1.
         22    1    3    3    0    0 -0.97219432378E+01 -0.64537270273E+02 -0.66122818930E+02  0.92907494949E+02  0.00000000000E+00 0. -1.
</event>
<event>
 7    1  0.6557591E-006  0.1077463E+03  0.7818608E-02  0.1367119E+00
          2   -1    0    0  502    0  0.00000000000E+00  0.00000000000E+00  0.14945912850E+04  0.14945912850E+04  0.00000000000E+00 0. -1.
          1   -1    0    0  501    0 -0.00000000000E+00 -0.00000000000E+00 -0.17694417843E+03  0.17694417843E+03  0.00000000000E+00 0. -1.
         25    2    1    2    0    0  0.10216221890E+03 -0.70225834326E+02  0.26911971762E+03  0.32158783993E+03  0.12499811840E+03 0.  0.
          2    1    1    2  501    0 -0.62654697670E+02  0.86904109754E+02 -0.13123144616E+03  0.16940964522E+03  0.00000000000E+00 0. -1.
          1    1    1    2  502    0 -0.39507521226E+02 -0.16678275428E+02  0.11797588352E+04  0.11805379783E+04  0.00000000000E+00 0. -1.
         22    1    3    3    0    0  0.12974478571E+03 -0.50889363699E+02  0.19033829040E+03  0.23590697647E+03  0.00000000000E+00 0.  1.
         22    1    3    3    0    0 -0.27582566814E+02 -0.19336470627E+02  0.78781427226E+02  0.85680863465E+02  0.00000000000E+00 0.  1.
</event>
<event>
 7    1  0.6557591E-006  0.8943834E+02  0.7818608E-02  0.1330928E+00
          2   -1    0    0  502    0  0.00000000000E+00  0.00000000000E+00  0.30380728533E+04  0.30380728533E+04  0.00000000000E+00 0. -1.
          1   -1    0    0  501    0 -0.00000000000E+00 -0.00000000000E+00 -0.15283222602E+03  0.15283222602E+03  0.00000000000E+00 0. -1.
         25    2    1    2    0    0  0.30903367550E+02 -0.80846752381E+02 -0.73367727285E+01  0.15221652882E+03  0.12499931166E+03 0.  0.
          2    1    1    2  501    0 -0.89661635502E+02  0.42095543912E+02 -0.38863268001E+02  0.10640299478E+03  0.00000000000E+00 0. -1.
          1    1    1    2  502    0  0.58758267952E+02  0.38751208469E+02  0.29314406680E+04  0.29322855557E+04  0.00000000000E+00 0. -1.
         22    1    3    3    0    0  0.68816460386E+02 -0.49733242663E+02 -0.39418329353E+02  0.93610391169E+02  0.00000000000E+00 0.  1.
         22    1    3    3    0    0 -0.37913092836E+02 -0.31113509718E+02  0.32081556624E+02  0.58606137654E+02  0.00000000000E+00 0.  1.
</event>
<event>
 7    1  0.7618388E-006  0.1345634E+03  0.7818608E-02  0.1223254E+00
          2   -1    0    0  502    0  0.00000000000E+00  0.00000000000E+00  0.17140721970E+04  0.17140721970E+04  0.00000000000E+00 0. -1.
          1   -1    0    0  501    0 -0.00000000000E+00 -0.00000000000E+00 -0.11550564101E+04  0.11550564101E+04  0.00000000000E+00 0. -1.
         25    2    1    2    0    0 -0.83254461087E+02 -0.12818884010E+03 -0.29475943901E+03  0.35478484912E+03  0.12500191304E+03 0.  0.
          2    1    1    2  501    0  0.13753520629E+03  0.50592114737E+01 -0.82186514340E+03  0.83330897182E+03  0.00000000000E+00 0. -1.
          1    1    1    2  502    0 -0.54280745200E+02  0.12312962862E+03  0.16756403694E+04  0.16810347861E+04  0.00000000000E+00 0. -1.
         22    1    3    3    0    0 -0.24514018010E+02 -0.61366506223E+02 -0.24866279842E+02  0.70605361257E+02  0.00000000000E+00 0. -1.
         22    1    3    3    0    0 -0.58740443076E+02 -0.66822333876E+02 -0.26989315916E+03  0.28417948786E+03  0.00000000000E+00 0. -1.
</event>
<event>
 7    1  0.6557591E-006  0.2703303E+02  0.7818608E-02  0.1643763E+00
          2   -1    0    0  502    0  0.00000000000E+00  0.00000000000E+00  0.13387087626E+04  0.13387087626E+04  0.00000000000E+00 0. -1.
          1   -1    0    0  501    0 -0.00000000000E+00 -0.00000000000E+00 -0.12178283831E+03  0.12178283831E+03  0.00000000000E+00 0. -1.
         25    2    1    2    0    0  0.47624513752E+01 -0.27653229728E+02 -0.36121599745E+02  0.13310303224E+03  0.12499706063E+03 0.  0.
          2    1    1    2  501    0  0.19579255788E+02  0.20135208012E+02 -0.31721051402E+02  0.42367428066E+02  0.00000000000E+00 0. -1.
          1    1    1    2  502    0 -0.24341707163E+02  0.75180217160E+01  0.12847685754E+04  0.12850211406E+04  0.00000000000E+00 0. -1.
         22    1    3    3    0    0  0.14874433264E+02  0.39061483269E+02 -0.49003178815E+02  0.64407761753E+02  0.00000000000E+00 0.  1.
         22    1    3    3    0    0 -0.10111981889E+02 -0.66714712996E+02  0.12881579070E+02  0.68695270487E+02  0.00000000000E+00 0.  1.
</event>
<event>
 7    1  0.6557591E-006  0.1713326E+03  0.7818608E-02  0.1275448E+00
          2   -1    0    0  502    0  0.00000000000E+00  0.00000000000E+00  0.45792292130E+03  0.45792292130E+03  0.00000000000E+00 0. -1.
          1   -1    0    0  501    0 -0.00000000000E+00 -0.00000000000E+00 -0.47492473428E+03  0.47492473428E+03  0.00000000000E+00 0. -1.
         25    2    1    2    0    0 -0.10517822832E+03  0.16516666120E+03 -0.17506269653E+03  0.29088500093E+03  0.12499860145E+03 0.  0.
          2    1    1    2  501    0 -0.25031468926E+02 -0.55771397559E+02 -0.21950784356E+03  0.22786117837E+03  0.00000000000E+00 0. -1.
          1    1    1    2  502    0  0.13020969725E+03 -0.10939526364E+03  0.37756872712E+03  0.41410147628E+03  0.00000000000E+00 0. -1.
         22    1    3    3    0    0 -0.81276083440E+02  0.31937637925E+02 -0.29645309554E+02  0.92220707187E+02  0.00000000000E+00 0.  1.
         22    1    3    3    0    0 -0.23902144885E+02  0.13322902327E+03 -0.14541738698E+03  0.19866429374E+03  0.00000000000E+00 0.  1.
</event>
<event>
 7    1  0.6557591E-006  0.7175953E+02  0.7818608E-02  0.1513622E+00
          2   -1    0    0  502    0  0.00000000000E+00  0.00000000000E+00  0.22818302388E+03  0.22818302388E+03  0.00000000000E+00 0. -1.
          1   -1    0    0  501    0 -0.00000000000E+00 -0.00000000000E+00 -0.16445500971E+04  0.16445500971E+04  0.00000000000E+00 0. -1.
         25    2    1    2    0    0  0.45186871186E+02 -0.25036293006E+02 -0.98834199763E+02  0.16751582185E+03  0.12499872892E+03 0.  0.
          2    1    1    2  501    0 -0.66391915347E+02  0.28553894627E+02 -0.15099122110E+04  0.15116408622E+04  0.00000000000E+00 0. -1.
          1    1    1    2  502    0  0.21205044162E+02 -0.35176016207E+01  0.19237933756E+03  0.19357643694E+03  0.00000000000E+00 0. -1.
         22    1    3    3    0    0  0.14221291182E+02 -0.68165054783E+02 -0.89839361662E+02  0.11366543327E+03  0.00000000000E+00 0. -1.
         22    1    3    3    0    0  0.30965580004E+02  0.43128761777E+02 -0.89948381003E+01  0.53850388577E+02  0.00000000000E+00 0. -1.
</event>
<event>
 7    1  0.6557591E-006  0.4623423E+02  0.7818608E-02  0.1488347E+00
          2   -1    0    0  502    0  0.00000000000E+00  0.00000000000E+00  0.31085453604E+03  0.31085453604E+03  0.00000000000E+00 0. -1.
          1   -1    0    0  501    0 -0.00000000000E+00 -0.00000000000E+00 -0.12727182755E+04  0.12727182755E+04  0.00000000000E+00 0. -1.
         25    2    1    2    0    0  0.35261528749E+02  0.77471794733E+02 -0.28856375837E+03  0.32579012593E+03  0.12499963648E+03 0.  0.
          2    1    1    2  501    0 -0.11837591934E+02 -0.37873659718E+02 -0.96331960748E+03  0.96413650945E+03  0.00000000000E+00 0. -1.
          1    1    1    2  502    0 -0.23423936815E+02 -0.39598135015E+02  0.29001962636E+03  0.29364617619E+03  0.00000000000E+00 0. -1.
         22    1    3    3    0    0  0.47246428214E+02  0.10319428578E+03 -0.17384390190E+03  0.20761259071E+03  0.00000000000E+00 0.  1.
         22    1    3    3    0    0 -0.11984899465E+02 -0.25722491044E+02 -0.11471985647E+03  0.11817753522E+03  0.00000000000E+00 0.  1.
</event>
<event>
 7    1  0.6557591E-006  0.1004893E+03  0.7818608E-02  0.1295298E+00
          2   -1    0    0  502    0  0.00000000000E+00  0.00000000000E+00  0.35249814448E+04  0.35249814448E+04  0.00000000000E+00 0. -1.
          1   -1    0    0  501    0 -0.00000000000E+00 -0.00000000000E+00 -0.43079399951E+03  0.43079399951E+03  0.00000000000E+00 0. -1.
         25    2    1    2    0    0 -0.48763217770E+02  0.10483579286E+03  0.37798535640E+02  0.17441125864E+03  0.12498865137E+03 0.  0.
          2    1    1    2  501    0 -0.37071368119E+02 -0.94736311288E+02 -0.35479183793E+03  0.36908874715E+03  0.00000000000E+00 0. -1.
          1    1    1    2  502    0  0.85834585889E+02 -0.10099481574E+02  0.34111807476E+04  0.34122754386E+04  0.00000000000E+00 0. -1.
         22    1    3    3    0    0 -0.96488117922E+01  0.86060204100E+02 -0.31919827231E+02  0.92294819298E+02  0.00000000000E+00 0.  1.
         22    1    3    3    0    0 -0.39114405978E+02  0.18775588762E+02  0.69718362872E+02  0.82116439340E+02  0.00000000000E+00 0.  1.
</event>
<event>
 7    1  0.6557591E-006  0.7179365E+02  0.7818608E-02  0.1382496E+00
          2   -1    0    0  502    0  0.00000000000E+00  0.00000000000E+00  0.29326558308E+03  0.29326558308E+03  0.00000000000E+00 0. -1.
          1   -1    0    0  501    0 -0.00000000000E+00 -0.00000000000E+00 -0.39727038785E+03  0.39727038785E+03  0.00000000000E+00 0. -1.
         25    2    1    2    0    0 -0.31272041245E+02 -0.28307323944E+02 -0.33218943146E+02  0.13604243304E+03  0.12499920100E+03 0.  0.
          2    1    1    2  501    0  0.75285923503E+02 -0.74658005835E+01 -0.30462245315E+03  0.31387664363E+03  0.00000000000E+00 0. -1.
          1    1    1    2  502    0 -0.44013882258E+02  0.35773124528E+02  0.23383659152E+03  0.24061689426E+03  0.00000000000E+00 0. -1.
         22    1    3    3    0    0 -0.67228431556E+02 -0.80870190565E+00  0.16063991791E+02  0.69125739349E+02  0.00000000000E+00 0. -1.
         22    1    3    3    0    0  0.35956390310E+02 -0.27498622039E+02 -0.49282934937E+02  0.66916693689E+02  0.00000000000E+00 0. -1.
</event>
<event>
 7    1  0.6557591E-006  0.9989293E+02  0.7818608E-02  0.1437036E+00
          2   -1    0    0  502    0  0.00000000000E+00  0.00000000000E+00  0.17185714843E+04  0.17185714843E+04  0.00000000000E+00 0. -1.
          1   -1    0    0  501    0 -0.00000000000E+00 -0.00000000000E+00 -0.76804733031E+03  0.76804733031E+03  0.00000000000E+00 0. -1.
         25    2    1    2    0    0 -0.41419727331E+02 -0.11197288065E+03 -0.34883098920E+03  0.38930834307E+03  0.12499762854E+03 0.  0.
          2    1    1    2  501    0 -0.81723282485E+01  0.25341258297E+02 -0.39706460708E+03  0.39795636509E+03  0.00000000000E+00 0. -1.
          1    1    1    2  502    0  0.49592055580E+02  0.86631622357E+02  0.16964197503E+04  0.16993541065E+04  0.00000000000E+00 0. -1.
         22    1    3    3    0    0 -0.80766841354E+02 -0.43902944876E+02 -0.15610306595E+03  0.18115992501E+03  0.00000000000E+00 0. -1.
         22    1    3    3    0    0  0.39347114023E+02 -0.68069935777E+02 -0.19272792325E+03  0.20814841805E+03  0.00000000000E+00 0. -1.
</event>
<event>
 7    1  0.6557591E-006  0.8032733E+02  0.7818608E-02  0.1391238E+00
          2   -1    0    0  502    0  0.00000000000E+00  0.00000000000E+00  0.26389966821E+04  0.26389966821E+04  0.00000000000E+00 0. -1.
          1   -1    0    0  501    0 -0.00000000000E+00 -0.00000000000E+00 -0.67744855867E+02  0.67744855867E+02  0.00000000000E+00 0. -1.
         25    2    1    2    0    0 -0.48213264908E+02  0.15890835941E+02  0.22296024756E+03  0.26060930341E+03  0.12501559685E+03 0.  0.
          2    1    1    2  501    0 -0.38542928453E+01  0.47081018762E+02 -0.36651582350E+02  0.59789768270E+02  0.00000000000E+00 0. -1.
          1    1    1    2  502    0  0.52067557753E+02 -0.62971854703E+02  0.23849431610E+04  0.23863424663E+04  0.00000000000E+00 0. -1.
         22    1    3    3    0    0 -0.77776776229E+02  0.19912124246E+02  0.21533452378E+03  0.22981443981E+03  0.00000000000E+00 0. -1.
         22    1    3    3    0    0  0.29563511321E+02 -0.40212883057E+01  0.76257237715E+01  0.30794863603E+02  0.00000000000E+00 0. -1.
</event>
<event>
 7    1  0.6557591E-006  0.1030153E+03  0.7818608E-02  0.1363357E+00
          2   -1    0    0  502    0  0.00000000000E+00  0.00000000000E+00  0.47352380378E+03  0.47352380378E+03  0.00000000000E+00 0. -1.
          1   -1    0    0  501    0 -0.00000000000E+00 -0.00000000000E+00 -0.25080092690E+03  0.25080092690E+03  0.00000000000E+00 0. -1.
         25    2    1    2    0    0 -0.89467734729E+02 -0.46641846608E+02  0.36066097674E+03  0.39481832454E+03  0.12500092736E+03 0.  0.
          2    1    1    2  501    0  0.10336357159E+03  0.24948323548E+01 -0.21559396490E+03  0.23910460016E+03  0.00000000000E+00 0. -1.
          1    1    1    2  502    0 -0.13895836859E+02  0.44147014253E+02  0.77655865036E+02  0.90401805978E+02  0.00000000000E+00 0. -1.
         22    1    3    3    0    0  0.58104291528E+01 -0.48612138300E+02  0.21677687415E+03  0.22223661769E+03  0.00000000000E+00 0.  1.
         22    1    3    3    0    0 -0.95278163882E+02  0.19702916917E+01  0.14388410259E+03  0.17258170685E+03  0.00000000000E+00 0.  1.
</event>
<event>
 7    1  0.6557591E-006  0.6161293E+02  0.7818608E-02  0.1438170E+00
          2   -1    0    0  502    0  0.00000000000E+00  0.00000000000E+00  0.12219608827E+04  0.12219608827E+04  0.00000000000E+00 0. -1.
          1   -1    0    0  501    0 -0.00000000000E+00 -0.00000000000E+00 -0.44856026744E+02  0.44856026744E+02  0.00000000000E+00 0. -1.
         25    2    1    2    0    0  0.84662939012E+02  0.56919669704E+02  0.33368517503E+03  0.37066032064E+03  0.12504245366E+03 0.  0.
          2    1    1    2  501    0 -0.36945352690E+02 -0.21615326514E+02 -0.72541637413E+01  0.43414333086E+02  0.00000000000E+00 0. -1.
          1    1    1    2  502    0 -0.47717586322E+02 -0.35304343190E+02  0.85067384471E+03  0.85274225577E+03  0.00000000000E+00 0. -1.
         22    1    3    3    0    0  0.76644328102E+01  0.79882974190E+02  0.18493602478E+03  0.20159703955E+03  0.00000000000E+00 0. -1.
         22    1    3    3    0    0  0.76998506201E+02 -0.22963304486E+02  0.14874915025E+03  0.16906328109E+03  0.00000000000E+00 0. -1.
</event>
<event>
 7    1  0.6557591E-006  0.9713879E+02  0.7818608E-02  0.1316994E+00
          2   -1    0    0  502    0  0.00000000000E+00  0.00000000000E+00  0.26436792857E+04  0.26436792857E+04  0.00000000000E+00 0. -1.
          1   -1    0    0  501    0 -0.00000000000E+00 -0.00000000000E+00 -0.37029023449E+03  0.37029023449E+03  0.00000000000E+00 0. -1.
         25    2    1    2    0    0 -0.65709347933E+02 -0.12479662908E+03 -0.28831906131E+02  0.19065169901E+03  0.12499949795E+03 0.  0.
          2    1    1    2  501    0  0.67826609493E+02  0.27901784122E+02 -0.25445083243E+03  0.26480971402E+03  0.00000000000E+00 0. -1.
          1    1    1    2  502    0 -0.21172615598E+01  0.96894844962E+02  0.25566717898E+04  0.25585081071E+04  0.00000000000E+00 0. -1.
         22    1    3    3    0    0 -0.23736862289E+02 -0.42484087343E+02 -0.73400557890E+02  0.88068031698E+02  0.00000000000E+00 0. -1.
         22    1    3    3    0    0 -0.41972485645E+02 -0.82312541741E+02  0.44568651758E+02  0.10258366731E+03  0.00000000000E+00 0. -1.
</event>
<event>
 7    1  0.6557591E-006  0.1132511E+03  0.7818608E-02  0.1346964E+00
          2   -1    0    0  502    0  0.00000000000E+00  0.00000000000E+00  0.88399020485E+03  0.88399020485E+03  0.00000000000E+00 0. -1.
          1   -1    0    0  501    0 -0.00000000000E+00 -0.00000000000E+00 -0.11990739731E+04  0.11990739731E+04  0.00000000000E+00 0. -1.
         25    2    1    2    0    0 -0.59210924330E+02 -0.59062581237E+02 -0.45820579385E+03  0.48226778993E+03  0.12504139163E+03 0.  0.
          2    1    1    2  501    0  0.10613159020E+03  0.70798679458E+02 -0.72257399007E+03  0.73375032442E+03  0.00000000000E+00 0. -1.
          1    1    1    2  502    0 -0.46920665874E+02 -0.11736098221E+02  0.86569601567E+03  0.86704606361E+03  0.00000000000E+00 0. -1.
         22    1    3    3    0    0  0.58260952386E+01  0.16694980587E+02 -0.25742344034E+03  0.25803002422E+03  0.00000000000E+00 0. -1.
         22    1    3    3    0    0 -0.65037019569E+02 -0.75757561824E+02 -0.20078235352E+03  0.22423776571E+03  0.00000000000E+00 0. -1.
</event>
<event>
 7    1  0.6557591E-006  0.2462940E+03  0.7818608E-02  0.1195606E+00
          2   -1    0    0  502    0  0.00000000000E+00  0.00000000000E+00  0.57791860497E+03  0.57791860497E+03  0.00000000000E+00 0. -1.
          1   -1    0    0  501    0 -0.00000000000E+00 -0.00000000000E+00 -0.20139136814E+03  0.20139136814E+03  0.00000000000E+00 0. -1.
         25    2    1    2    0    0  0.23227888638E+03  0.13216000306E+03  0.24399984258E+03  0.38285871567E+03  0.12500050208E+03 0.  0.
          2    1    1    2  501    0 -0.15373658310E+03 -0.18793140748E+03  0.13292589038E+02  0.24316628842E+03  0.00000000000E+00 0. -1.
          1    1    1    2  502    0 -0.78542303273E+02  0.55771404423E+02  0.11923480521E+03  0.15328496902E+03  0.00000000000E+00 0. -1.
         22    1    3    3    0    0  0.21648053231E+03  0.11160125217E+03  0.25681335376E+03  0.35393750723E+03  0.00000000000E+00 0. -1.
         22    1    3    3    0    0  0.15798354066E+02  0.20558750887E+02 -0.12813511171E+02  0.28921208442E+02  0.00000000000E+00 0. -1.
</event>
<event>
 7    1  0.6557591E-006  0.1204241E+03  0.7818608E-02  0.1325160E+00
          2   -1    0    0  502    0  0.00000000000E+00  0.00000000000E+00  0.96316175614E+03  0.96316175614E+03  0.00000000000E+00 0. -1.
          1   -1    0    0  501    0 -0.00000000000E+00 -0.00000000000E+00 -0.53504604937E+03  0.53504604937E+03  0.00000000000E+00 0. -1.
         25    2    1    2    0    0 -0.51477501756E+00  0.16333024978E+03  0.26572448301E+02  0.20738103108E+03  0.12499504612E+03 0.  0.
          2    1    1    2  501    0  0.27291020697E+02 -0.47757071045E+02 -0.43875799003E+03  0.44219239191E+03  0.00000000000E+00 0. -1.
          1    1    1    2  502    0 -0.26776245680E+02 -0.11557317873E+03  0.84030124850E+03  0.84863438253E+03  0.00000000000E+00 0. -1.
         22    1    3    3    0    0  0.58466979997E+02  0.11063804586E+03  0.28195872747E+02  0.12827381721E+03  0.00000000000E+00 0.  1.
         22    1    3    3    0    0 -0.58981755015E+02  0.52692203915E+02 -0.16234244461E+01  0.79107213862E+02  0.00000000000E+00 0.  1.
</event>
<event>
 7    1  0.6557591E-006  0.5925597E+02  0.7818608E-02  0.1403193E+00
          2   -1    0    0  502    0  0.00000000000E+00  0.00000000000E+00  0.55772248769E+02  0.55772248769E+02  0.00000000000E+00 0. -1.
          1   -1    0    0  501    0 -0.00000000000E+00 -0.00000000000E+00 -0.25152885174E+04  0.25152885174E+04  0.00000000000E+00 0. -1.
         25    2    1    2    0    0 -0.43538076844E+01  0.42760661791E+01 -0.36697926825E+03  0.38773276443E+03  0.12500269158E+03 0.  0.
          2    1    1    2  501    0  0.60910564881E+02  0.95828773219E+01 -0.21186243083E+04  0.21195213819E+04  0.00000000000E+00 0. -1.
          1    1    1    2  502    0 -0.56556757197E+02 -0.13858943501E+02  0.26087307953E+02  0.63806619844E+02  0.00000000000E+00 0. -1.
         22    1    3    3    0    0  0.32399896104E+02  0.25686351683E+02 -0.38451551700E+02  0.56462941462E+02  0.00000000000E+00 0.  1.
         22    1    3    3    0    0 -0.36753703789E+02 -0.21410285504E+02 -0.32852771655E+03  0.33126982297E+03  0.00000000000E+00 0.  1.
</event>
<event>
 7    1  0.6557591E-006  0.3747051E+02  0.7818608E-02  0.1627059E+00
          2   -1    0    0  502    0  0.00000000000E+00  0.00000000000E+00  0.19759764585E+03  0.19759764585E+03  0.00000000000E+00 0. -1.
          1   -1    0    0  501    0 -0.00000000000E+00 -0.00000000000E+00 -0.13566298518E+03  0.13566298518E+03  0.00000000000E+00 0. -1.
         25    2    1    2    0    0 -0.54486866533E+01 -0.17984184561E+02  0.28701412271E+02  0.12962710454E+03  0.12500518423E+03 0.  0.
          2    1    1    2  501    0 -0.10867765591E+02 -0.17066580733E+02 -0.80763285166E+02  0.83259142066E+02  0.00000000000E+00 0. -1.
          1    1    1    2  502    0  0.16316452245E+02  0.35050765294E+02  0.11399653356E+03  0.12037438443E+03  0.00000000000E+00 0. -1.
         22    1    3    3    0    0  0.57942001972E+02 -0.84157783594E+01  0.29394903785E+02  0.65514588348E+02  0.00000000000E+00 0. -1.
         22    1    3    3    0    0 -0.63390688625E+02 -0.95684062018E+01 -0.69349151447E+00  0.64112516189E+02  0.00000000000E+00 0. -1.
</event>
<event>
 7    1  0.6557591E-006  0.1095458E+03  0.7818608E-02  0.1338309E+00
          2   -1    0    0  502    0  0.00000000000E+00  0.00000000000E+00  0.95562436191E+03  0.95562436191E+03  0.00000000000E+00 0. -1.
          1   -1    0    0  501    0 -0.00000000000E+00 -0.00000000000E+00 -0.22237079373E+04  0.22237079373E+04  0.00000000000E+00 0. -1.
         25    2    1    2    0    0  0.53214322158E+02 -0.13378970166E+03 -0.93598721622E+02  0.21240629905E+03  0.12499706730E+03 0.  0.
          2    1    1    2  501    0 -0.47745623078E+02  0.24964892789E+02 -0.20670412036E+04  0.20677432693E+04  0.00000000000E+00 0. -1.
          1    1    1    2  502    0 -0.54686990809E+01  0.10882480887E+03  0.89255634987E+03  0.89918273081E+03  0.00000000000E+00 0. -1.
         22    1    3    3    0    0 -0.17733421393E+02 -0.76047730683E+02 -0.92327989097E+02  0.12092224422E+03  0.00000000000E+00 0. -1.
         22    1    3    3    0    0  0.70947743551E+02 -0.57741970975E+02 -0.12707325257E+01  0.91484054830E+02  0.00000000000E+00 0. -1.
</event>
<event>
 7    1  0.6557591E-006  0.8009381E+02  0.7818608E-02  0.1460901E+00
          2   -1    0    0  502    0  0.00000000000E+00  0.00000000000E+00  0.95403304177E+03  0.95403304177E+03  0.00000000000E+00 0. -1.
          1   -1    0    0  501    0 -0.00000000000E+00 -0.00000000000E+00 -0.68729145469E+03  0.68729145469E+03  0.00000000000E+00 0. -1.
         25    2    1    2    0    0 -0.57873793605E+02  0.11697220123E+02  0.17936119702E+03  0.22645447210E+03  0.12499995197E+03 0.  0.
          2    1    1    2  501    0 -0.24342049199E+02 -0.13524387328E+02 -0.66119998845E+03  0.66178612039E+03  0.00000000000E+00 0. -1.
          1    1    1    2  502    0  0.82215842804E+02  0.18271672042E+01  0.74858037851E+03  0.75308390398E+03  0.00000000000E+00 0. -1.
         22    1    3    3    0    0  0.88478313981E+01  0.44685115431E+01  0.15460430315E+03  0.15492172949E+03  0.00000000000E+00 0.  1.
         22    1    3    3    0    0 -0.66721625003E+02  0.72287085802E+01  0.24756893865E+02  0.71532742605E+02  0.00000000000E+00 0.  1.
</event>
<event>
 7    1  0.6557591E-006  0.1061760E+03  0.7818608E-02  0.1348465E+00
          2   -1    0    0  502    0  0.00000000000E+00  0.00000000000E+00  0.67283452359E+03  0.67283452359E+03  0.00000000000E+00 0. -1.
          1   -1    0    0  501    0 -0.00000000000E+00 -0.00000000000E+00 -0.46697080042E+02  0.46697080042E+02  0.00000000000E+00 0. -1.
         25    2    1    2    0    0  0.11451238508E+03 -0.51414785482E+02  0.37900829346E+03  0.41836581558E+03  0.12500441044E+03 0.  0.
          2    1    1    2  501    0 -0.69662695541E+02  0.75547382733E+02  0.92135922776E+02  0.13801929740E+03  0.00000000000E+00 0. -1.
          1    1    1    2  502    0 -0.44849689541E+02 -0.24132597251E+02  0.15499322731E+03  0.16314649066E+03  0.00000000000E+00 0. -1.
         22    1    3    3    0    0 -0.12666095614E+02 -0.44214951527E+02  0.66138747165E+02  0.80558834359E+02  0.00000000000E+00 0. -1.
         22    1    3    3    0    0  0.12717848069E+03 -0.71998339550E+01  0.31286954630E+03  0.33780698122E+03  0.00000000000E+00 0. -1.
</event>
<event>
 7    1  0.6557591E-006  0.5974440E+02  0.7818608E-02  0.1528618E+00
          2   -1    0    0  502    0  0.00000000000E+00  0.00000000000E+00  0.20109157908E+03  0.20109157908E+03  0.00000000000E+00 0. -1.
          1   -1    0    0  501    0 -0.00000000000E+00 -0.00000000000E+00 -0.29076522560E+03  0.29076522560E+03  0.00000000000E+00 0. -1.
         25    2    1    2    0    0  0.38756244690E+02  0.29279843423E+02 -0.52549084545E+02  0.14403123732E+03  0.12499694118E+03 0.  0.
          2    1    1    2  501    0  0.19560909645E+02 -0.12765664177E+02 -0.18580408279E+03  0.18726651743E+03  0.00000000000E+00 0. -1.
          1    1    1    2  502    0 -0.58317154334E+02 -0.16514179246E+02  0.14867952082E+03  0.16055904994E+03  0.00000000000E+00 0. -1.
         22    1    3    3    0    0 -0.27424592076E+02  0.35699394393E+02 -0.62264508660E+02  0.76833742908E+02  0.00000000000E+00 0. -1.
         22    1    3    3    0    0  0.66180836766E+02 -0.64195509694E+01  0.97154241151E+01  0.67197494413E+02  0.00000000000E+00 0. -1.
</event>
<event>
 7    1  0.6557591E-006  0.9392344E+02  0.7818608E-02  0.1339799E+00
          2   -1    0    0  502    0  0.00000000000E+00  0.00000000000E+00  0.79334010000E+03  0.79334010000E+03  0.00000000000E+00 0. -1.
          1   -1    0    0  501    0 -0.00000000000E+00 -0.00000000000E+00 -0.77746810820E+03  0.77746810820E+03  0.00000000000E+00 0. -1.
         25    2    1    2    0    0 -0.10205684922E+03  0.11204909561E+03 -0.32319033194E+03  0.37821545381E+03  0.12499735416E+03 0.  0.
          2    1    1    2  501    0  0.27579001575E+02 -0.55565621408E+02 -0.42163502429E+03  0.42617394725E+03  0.00000000000E+00 0. -1.
          1    1    1    2  502    0  0.74477847642E+02 -0.56483474202E+02  0.76069734802E+03  0.76641880714E+03  0.00000000000E+00 0. -1.
         22    1    3    3    0    0 -0.69336838749E+02 -0.98707449590E+01 -0.10753098143E+03  0.12832747477E+03  0.00000000000E+00 0. -1.
         22    1    3    3    0    0 -0.32720010468E+02  0.12191984057E+03 -0.21565935050E+03  0.24988797904E+03  0.00000000000E+00 0. -1.
</event>
<event>
 7    1  0.6557591E-006  0.2877916E+03  0.7818608E-02  0.1228833E+00
          2   -1    0    0  502    0  0.00000000000E+00  0.00000000000E+00  0.88764518373E+03  0.88764518373E+03  0.00000000000E+00 0. -1.
          1   -1    0    0  501    0 -0.00000000000E+00 -0.00000000000E+00 -0.10474613238E+04  0.10474613238E+04  0.00000000000E+00 0. -1.
         25    2    1    2    0    0  0.22461229591E+03 -0.22678522948E+03  0.16004792522E+01  0.34279968444E+03  0.12500735312E+03 0.  0.
          2    1    1    2  501    0  0.25859114515E+01  0.57833638510E+02 -0.84782411312E+03  0.84979829575E+03  0.00000000000E+00 0. -1.
          1    1    1    2  502    0 -0.22719820736E+03  0.16895159097E+03  0.68640749384E+03  0.74250852730E+03  0.00000000000E+00 0. -1.
         22    1    3    3    0    0  0.12670561575E+03 -0.90942103640E+02  0.57561921117E+02  0.16624726776E+03  0.00000000000E+00 0. -1.
         22    1    3    3    0    0  0.97906680168E+02 -0.13584312584E+03 -0.55961441865E+02  0.17655241668E+03  0.00000000000E+00 0. -1.
</event>
<event>
 7    1  0.6557591E-006  0.4289864E+02  0.7818608E-02  0.1576597E+00
          2   -1    0    0  502    0  0.00000000000E+00  0.00000000000E+00  0.20963095393E+04  0.20963095393E+04  0.00000000000E+00 0. -1.
          1   -1    0    0  501    0 -0.00000000000E+00 -0.00000000000E+00 -0.96345696778E+03  0.96345696778E+03  0.00000000000E+00 0. -1.
         25    2    1    2    0    0  0.39241520946E+02 -0.23655397394E+02  0.39693877136E+03  0.41867123857E+03  0.12500297197E+03 0.  0.
          2    1    1    2  501    0 -0.19148769481E+02 -0.14346048208E+02 -0.95216683307E+03  0.95246740756E+03  0.00000000000E+00 0. -1.
          1    1    1    2  502    0 -0.20092751465E+02  0.38001445602E+02  0.16880806332E+04  0.16886278609E+04  0.00000000000E+00 0. -1.
         22    1    3    3    0    0  0.64903229429E+02  0.17028150987E+02  0.32683866887E+03  0.33365536499E+03  0.00000000000E+00 0. -1.
         22    1    3    3    0    0 -0.25661708484E+02 -0.40683548381E+02  0.70100102487E+02  0.85015873576E+02  0.00000000000E+00 0. -1.
</event>
<event>
 7    1  0.6557591E-006  0.6428706E+02  0.7818608E-02  0.1421581E+00
          2   -1    0    0  502    0  0.00000000000E+00  0.00000000000E+00  0.14308563542E+03  0.14308563542E+03  0.00000000000E+00 0. -1.
          1   -1    0    0  501    0 -0.00000000000E+00 -0.00000000000E+00 -0.83889917856E+03  0.83889917856E+03  0.00000000000E+00 0. -1.
         25    2    1    2    0    0 -0.37756040364E+01  0.23757518674E+02 -0.13029915000E+03  0.18215653464E+03  0.12499783895E+03 0.  0.
          2    1    1    2  501    0 -0.34703057405E+02  0.30983765895E+02 -0.67224752978E+03  0.67385535335E+03  0.00000000000E+00 0. -1.
          1    1    1    2  502    0  0.38478661441E+02 -0.54741284569E+02  0.10673313665E+03  0.12597292598E+03  0.00000000000E+00 0. -1.
         22    1    3    3    0    0  0.44846965768E+01 -0.40843664475E+02 -0.55926181857E+01  0.41467997412E+02  0.00000000000E+00 0.  1.
         22    1    3    3    0    0 -0.82603006132E+01  0.64601183150E+02 -0.12470653182E+03  0.14068853723E+03  0.00000000000E+00 0.  1.
</event>
<event>
 7    1  0.6557591E-006  0.2979016E+02  0.7818608E-02  0.1611754E+00
          2   -1    0    0  502    0  0.00000000000E+00  0.00000000000E+00  0.78468929260E+02  0.78468929260E+02  0.00000000000E+00 0. -1.
          1   -1    0    0  501    0 -0.00000000000E+00 -0.00000000000E+00 -0.16200414806E+04  0.16200414806E+04  0.00000000000E+00 0. -1.
         25    2    1    2    0    0 -0.49477841483E+01  0.14291927278E+02 -0.59437494451E+03  0.60756429388E+03  0.12499622707E+03 0.  0.
          2    1    1    2  501    0 -0.24909150397E+02 -0.12436604295E+02 -0.10157601837E+04  0.10161416661E+04  0.00000000000E+00 0. -1.
          1    1    1    2  502    0  0.29856934545E+02 -0.18553229831E+01  0.68562576882E+02  0.74804449817E+02  0.00000000000E+00 0. -1.
         22    1    3    3    0    0  0.55137462214E+02  0.31363400613E+02 -0.30350570021E+03  0.31006372361E+03  0.00000000000E+00 0.  1.
         22    1    3    3    0    0 -0.60085246363E+02 -0.17071473335E+02 -0.29086924430E+03  0.29750057027E+03  0.00000000000E+00 0.  1.
</event>
<event>
 7    1  0.6557591E-006  0.8502442E+02  0.7818608E-02  0.1387906E+00
          2   -1    0    0  502    0  0.00000000000E+00  0.00000000000E+00  0.79420528456E+03  0.79420528456E+03  0.00000000000E+00 0. -1.
          1   -1    0    0  501    0 -0.00000000000E+00 -0.00000000000E+00 -0.23307089546E+03  0.23307089546E+03  0.00000000000E+00 0. -1.
         25    2    1    2    0    0  0.41877658515E+02  0.47870621389E+01  0.17139090965E+03  0.21627905912E+03  0.12500053302E+03 0.  0.
          2    1    1    2  501    0 -0.83961424364E+02 -0.22961324690E+02 -0.20070725462E+03  0.21876961688E+03  0.00000000000E+00 0. -1.
          1    1    1    2  502    0  0.42083765849E+02  0.18174262551E+02  0.59045073407E+03  0.59222750403E+03  0.00000000000E+00 0. -1.
         22    1    3    3    0    0  0.23093737296E+01 -0.55416917474E+02  0.47784511754E+02  0.73210159903E+02  0.00000000000E+00 0.  1.
         22    1    3    3    0    0  0.39568284786E+02  0.60203979613E+02  0.12360639790E+03  0.14306889922E+03  0.00000000000E+00 0.  1.
</event>
<event>
 7    1  0.6557591E-006  0.1248674E+03  0.7818608E-02  0.1310184E+00
          2   -1    0    0  502    0  0.00000000000E+00  0.00000000000E+00  0.89946407997E+03  0.89946407997E+03  0.00000000000E+00 0. -1.
          1   -1    0    0  501    0 -0.00000000000E+00 -0.00000000000E+00 -0.57875939135E+03  0.57875939135E+03  0.00000000000E+00 0. -1.
         25    2    1    2    0    0  0.17086774035E+03  0.17282452189E+02  0.66629467099E+02  0.22260656641E+03  0.12497891693E+03 0.  0.
          2    1    1    2  501    0 -0.12137827497E+03  0.17814087598E+02 -0.49200748889E+03  0.50707139189E+03  0.00000000000E+00 0. -1.
          1    1    1    2  502    0 -0.49489465380E+02 -0.35096539786E+02  0.74608271041E+03  0.74854551302E+03  0.00000000000E+00 0. -1.
         22    1    3    3    0    0  0.56231894644E+01 -0.34540819812E+02 -0.47041090910E+01  0.35310297866E+02  0.00000000000E+00 0. -1.
         22    1    3    3    0    0  0.16524455089E+03  0.51823272000E+02  0.71333576190E+02  0.18729626855E+03  0.00000000000E+00 0. -1.
</event>
<event>
 7    1  0.6557591E-006  0.4677469E+02  0.7818608E-02  0.1544234E+00
          2   -1    0    0  502    0  0.00000000000E+00  0.00000000000E+00  0.14883402285E+04  0.14883402285E+04  0.00000000000E+00 0. -1.
          1   -1    0    0  501    0 -0.00000000000E+00 -0.00000000000E+00 -0.30920121912E+03  0.30920121912E+03  0.00000000000E+00 0. -1.
         25    2    1    2    0    0  0.10720085168E+02 -0.17687770338E+02  0.43028673493E+03  0.44855186495E+03  0.12499729538E+03 0.  0.
          2    1    1    2  501    0 -0.15802876599E+02  0.44141755998E+02 -0.29806290679E+03  0.30172789386E+03  0.00000000000E+00 0. -1.
          1    1    1    2  502    0  0.50827914317E+01 -0.26453985659E+02  0.10469151813E+04  0.10472616889E+04  0.00000000000E+00 0. -1.
         22    1    3    3    0    0  0.46441481692E+02  0.12934190158E+02  0.68760480704E+02  0.83976831349E+02  0.00000000000E+00 0.  1.
         22    1    3    3    0    0 -0.35721396524E+02 -0.30621960496E+02  0.36152625422E+03  0.36457503360E+03  0.00000000000E+00 0.  1.
</event>
<event>
 7    1  0.6557591E-006  0.1297388E+03  0.7818608E-02  0.1425225E+00
          2   -1    0    0  502    0  0.00000000000E+00  0.00000000000E+00  0.82283975042E+03  0.82283975042E+03  0.00000000000E+00 0. -1.
          1   -1    0    0  501    0 -0.00000000000E+00 -0.00000000000E+00 -0.10867337394E+04  0.10867337394E+04  0.00000000000E+00 0. -1.
         25    2    1    2    0    0 -0.11668844124E+03 -0.81860308810E+02 -0.43359537310E+03  0.47323084484E+03  0.12500072982E+03 0.  0.
          2    1    1    2  501    0  0.21555578654E+02 -0.61591042360E+01 -0.62788976538E+03  0.62828984951E+03  0.00000000000E+00 0. -1.
          1    1    1    2  502    0  0.95132862585E+02  0.88019413046E+02  0.79759114946E+03  0.80805279550E+03  0.00000000000E+00 0. -1.
         22    1    3    3    0    0 -0.39543415026E+02  0.32806847693E+02 -0.11655935134E+03  0.12738152658E+03  0.00000000000E+00 0.  1.
         22    1    3    3    0    0 -0.77145026213E+02 -0.11466715650E+03 -0.31703602175E+03  0.34584931826E+03  0.00000000000E+00 0.  1.
</event>
<event>
 7    1  0.6557591E-006  0.8958675E+02  0.7818608E-02  0.1307176E+00
          2   -1    0    0  502    0  0.00000000000E+00  0.00000000000E+00  0.14238473107E+04  0.14238473107E+04  0.00000000000E+00 0. -1.
          1   -1    0    0  501    0 -0.00000000000E+00 -0.00000000000E+00 -0.11346776672E+03  0.11346776672E+03  0.00000000000E+00 0. -1.
         25    2    1    2    0    0 -0.88173769069E+02 -0.49587216251E+02  0.74621292998E+02  0.17727955406E+03  0.12500478931E+03 0.  0.
          2    1    1    2  501    0  0.56654533522E+01  0.86724488923E+02 -0.29322935585E+02  0.91722782841E+02  0.00000000000E+00 0. -1.
          1    1    1    2  502    0  0.82508315716E+02 -0.37137272673E+02  0.12650811866E+04  0.12683127406E+04  0.00000000000E+00 0. -1.
         22    1    3    3    0    0 -0.11970541553E+03 -0.29142938841E+02  0.55766941152E+02  0.13523553200E+03  0.00000000000E+00 0. -1.
         22    1    3    3    0    0  0.31531646458E+02 -0.20444277410E+02  0.18854351846E+02  0.42044022057E+02  0.00000000000E+00 0. -1.
</event>
<event>
 7    1  0.6557591E-006  0.1053371E+03  0.7818608E-02  0.1376148E+00
          2   -1    0    0  502    0  0.00000000000E+00  0.00000000000E+00  0.17404860695E+04  0.17404860695E+04  0.00000000000E+00 0. -1.
          1   -1    0    0  501    0 -0.00000000000E+00 -0.00000000000E+00 -0.27444612691E+03  0.27444612691E+03  0.00000000000E+00 0. -1.
         25    2    1    2    0    0 -0.73358208793E+02  0.11241868652E+03  0.21654657221E+02  0.18468620963E+03  0.12498273470E+03 0.  0.
          2    1    1    2  501    0  0.72387069848E+02 -0.71717238844E+02 -0.17920267963E+03  0.20614764276E+03  0.00000000000E+00 0. -1.
          1    1    1    2  502    0  0.97113894594E+00 -0.40701447673E+02  0.16235879650E+04  0.16240983440E+04  0.00000000000E+00 0. -1.
         22    1    3    3    0    0 -0.10066460543E+03  0.11680052728E+03  0.95259176462E+01  0.15448776349E+03  0.00000000000E+00 0. -1.
         22    1    3    3    0    0  0.27306396637E+02 -0.43818407686E+01  0.12128739575E+02  0.30198446143E+02  0.00000000000E+00 0. -1.
</event>
<event>
 7    1  0.6557591E-006  0.6882248E+02  0.7818608E-02  0.1387571E+00
          2   -1    0    0  502    0  0.00000000000E+00  0.00000000000E+00  0.96242539734E+03  0.96242539734E+03  0.00000000000E+00 0. -1.
          1   -1    0    0  501    0 -0.00000000000E+00 -0.00000000000E+00 -0.74346190365E+02  0.74346190365E+02  0.00000000000E+00 0. -1.
         25    2    1    2    0    0 -0.47284372062E+02 -0.23050291350E+02  0.38735186326E+03  0.41040608430E+03  0.12499824114E+03 0.  0.
          2    1    1    2  501    0  0.26638977698E+02 -0.50149091039E+02 -0.46797388173E+02  0.73583707468E+02  0.00000000000E+00 0. -1.
          1    1    1    2  502    0  0.20645394364E+02  0.73199382390E+02  0.54752473189E+03  0.55278179594E+03  0.00000000000E+00 0. -1.
         22    1    3    3    0    0  0.24781889109E+02  0.16680777509E+02  0.25383207085E+02  0.39200734279E+02  0.00000000000E+00 0.  1.
         22    1    3    3    0    0 -0.72066261171E+02 -0.39731068859E+02  0.36196865617E+03  0.37120535002E+03  0.00000000000E+00 0.  1.
</event>
<event>
 7    1  0.6557591E-006  0.1372238E+03  0.7818608E-02  0.1371139E+00
          2   -1    0    0  502    0  0.00000000000E+00  0.00000000000E+00  0.40506333657E+03  0.40506333657E+03  0.00000000000E+00 0. -1.
          1   -1    0    0  501    0 -0.00000000000E+00 -0.00000000000E+00 -0.10070938462E+04  0.10070938462E+04  0.00000000000E+00 0. -1.
         25    2    1    2    0    0  0.12555696114E+03 -0.10866592867E+03 -0.19010864516E+03  0.28167254864E+03  0.12500117258E+03 0.  0.
          2    1    1    2  501    0 -0.10247443513E+03  0.85690020957E+02 -0.76466306173E+03  0.77624312397E+03  0.00000000000E+00 0. -1.
          1    1    1    2  502    0 -0.23082526008E+02  0.22975907713E+02  0.35274119721E+03  0.35424151020E+03  0.00000000000E+00 0. -1.
         22    1    3    3    0    0  0.12228859199E+03 -0.43688321112E+02 -0.16929727653E+03  0.21336526656E+03  0.00000000000E+00 0.  1.
         22    1    3    3    0    0  0.32683691535E+01 -0.64977607557E+02 -0.20811368625E+02  0.68307282078E+02  0.00000000000E+00 0.  1.
</event>
<event>
 7    1  0.6557591E-006  0.1999346E+03  0.7818608E-02  0.1242971E+00
          2   -1    0    0  502    0  0.00000000000E+00  0.00000000000E+00  0.11620892091E+04  0.11620892091E+04  0.00000000000E+00 0. -1.
          1   -1    0    0  501    0 -0.00000000000E+00 -0.00000000000E+00 -0.45627207960E+03  0.45627207960E+03  0.00000000000E+00 0. -1.
         25    2    1    2    0    0  0.25922334860E+00  0.16900538125E+03  0.36280386080E+02  0.21331915917E+03  0.12500364460E+03 0.  0.
          2    1    1    2  501    0  0.68108468637E+02  0.23702875827E+02 -0.35400501215E+03  0.36127570975E+03  0.00000000000E+00 0. -1.
          1    1    1    2  502    0 -0.68367691986E+02 -0.19270825708E+03  0.10235417556E+04  0.10437664198E+04  0.00000000000E+00 0. -1.
         22    1    3    3    0    0  0.35382653875E+02  0.68248943598E+00  0.19879009541E+02  0.40590306816E+02  0.00000000000E+00 0.  1.
         22    1    3    3    0    0 -0.35123430527E+02  0.16832289182E+03  0.16401376539E+02  0.17272885235E+03  0.00000000000E+00 0.  1.
</event>
<event>
 7    1  0.6557591E-006  0.8400008E+02  0.7818608E-02  0.1374053E+00
          2   -1    0    0  502    0  0.00000000000E+00  0.00000000000E+00  0.29555325535E+03  0.29555325535E+03  0.00000000000E+00 0. -1.
          1   -1    0    0  501    0 -0.00000000000E+00 -0.00000000000E+00 -0.30758203322E+04  0.30758203322E+04  0.00000000000E+00 0. -1.
         25    2    1    2    0    0  0.12260535500E+03 -0.14623765602E+02 -0.46836592640E+03  0.50023740850E+03  0.12499958503E+03 0.  0.
          2    1    1    2  501    0 -0.40869078997E+02  0.32055552742E+02 -0.25850070894E+04  0.25855288613E+04  0.00000000000E+00 0. -1.
          1    1    1    2  502    0 -0.81736276002E+02 -0.17431787141E+02  0.27310593902E+03  0.28560731774E+03  0.00000000000E+00 0. -1.
         22    1    3    3    0    0  0.12452175551E+03  0.21407004182E+02 -0.42722020814E+03  0.44551210272E+03  0.00000000000E+00 0.  1.
         22    1    3    3    0    0 -0.19164005129E+01 -0.36030769784E+02 -0.41145718260E+02  0.54725305785E+02  0.00000000000E+00 0.  1.
</event>
<event>
 7    1  0.6557591E-006  0.1526410E+03  0.7818608E-02  0.1413315E+00
          2   -1    0    0  502    0  0.00000000000E+00  0.00000000000E+00  0.45635417579E+02  0.45635417579E+02  0.00000000000E+00 0. -1.
          1   -1    0    0  501    0 -0.00000000000E+00 -0.00000000000E+00 -0.24601951007E+04  0.24601951007E+04  0.00000000000E+00 0. -1.
         25    2    1    2    0    0  0.10218315890E+02  0.13564500210E+03 -0.86246157338E+03  0.88202600459E+03  0.12500370651E+03 0.  0.
          2    1    1    2  501    0 -0.53868910522E+01  0.20177620807E+02 -0.14180411513E+04  0.14181949308E+04  0.00000000000E+00 0. -1.
          1    1    1    2  502    0 -0.48314248377E+01 -0.15582262291E+03 -0.13405695850E+03  0.20560958295E+03  0.00000000000E+00 0. -1.
         22    1    3    3    0    0  0.32993908141E+02  0.14164722611E+03 -0.55758193448E+03  0.57623792681E+03  0.00000000000E+00 0.  1.
         22    1    3    3    0    0 -0.22775592251E+02 -0.60022240048E+01 -0.30487963890E+03  0.30578807778E+03  0.00000000000E+00 0.  1.
</event>
<event>
 7    1  0.6557591E-006  0.1367252E+03  0.7818608E-02  0.1323168E+00
          2   -1    0    0  502    0  0.00000000000E+00  0.00000000000E+00  0.54821138289E+03  0.54821138289E+03  0.00000000000E+00 0. -1.
          1   -1    0    0  501    0 -0.00000000000E+00 -0.00000000000E+00 -0.31196373804E+03  0.31196373804E+03  0.00000000000E+00 0. -1.
         25    2    1    2    0    0 -0.68556055224E+02  0.13178419219E+03  0.30775687464E+03  0.36387790446E+03  0.12500331775E+03 0.  0.
          2    1    1    2  501    0  0.99555573021E+02 -0.93435889198E+02 -0.26420159259E+03  0.29739545900E+03  0.00000000000E+00 0. -1.
          1    1    1    2  502    0 -0.30999517796E+02 -0.38348302991E+02  0.19269236279E+03  0.19890175747E+03  0.00000000000E+00 0. -1.
         22    1    3    3    0    0 -0.54800502389E+02  0.15258016483E+03  0.29311500215E+03  0.33496299236E+03  0.00000000000E+00 0.  1.
         22    1    3    3    0    0 -0.13755552835E+02 -0.20795972645E+02  0.14641872489E+02  0.28914912105E+02  0.00000000000E+00 0.  1.
</event>
<event>
 7    1  0.6557591E-006  0.6582365E+02  0.7818608E-02  0.1385540E+00
          2   -1    0    0  502    0  0.00000000000E+00  0.00000000000E+00  0.43743680903E+03  0.43743680903E+03  0.00000000000E+00 0. -1.
          1   -1    0    0  501    0 -0.00000000000E+00 -0.00000000000E+00 -0.14015153177E+03  0.14015153177E+03  0.00000000000E+00 0. -1.
         25    2    1    2    0    0 -0.16977736942E+02  0.35891278039E+01 -0.57605028508E+02  0.13872872583E+03  0.12500477859E+03 0.  0.
          2    1    1    2  501    0 -0.29523146811E+02 -0.52640667109E+02 -0.15532330101E+02  0.62321018202E+02  0.00000000000E+00 0. -1.
          1    1    1    2  502    0  0.46500883753E+02  0.49051539305E+02  0.37042263587E+03  0.37653859677E+03  0.00000000000E+00 0. -1.
         22    1    3    3    0    0 -0.35887425138E+02 -0.13293685240E+02  0.29302068281E+02  0.48200005766E+02  0.00000000000E+00 0.  1.
         22    1    3    3    0    0  0.18909688195E+02  0.16882813044E+02 -0.86907096789E+02  0.90528720063E+02  0.00000000000E+00 0.  1.
</event>
<event>
 7    1  0.6557591E-006  0.1963303E+03  0.7818608E-02  0.1346509E+00
          2   -1    0    0  502    0  0.00000000000E+00  0.00000000000E+00  0.19200704817E+04  0.19200704817E+04  0.00000000000E+00 0. -1.
          1   -1    0    0  501    0 -0.00000000000E+00 -0.00000000000E+00 -0.20790009787E+04  0.20790009787E+04  0.00000000000E+00 0. -1.
         25    2    1    2    0    0 -0.21499482905E+03 -0.59662992445E+01 -0.41202614764E+03  0.48129978064E+03  0.12500223701E+03 0.  0.
          2    1    1    2  501    0  0.19384705319E+02  0.20216376370E+02 -0.16271166978E+04  0.16273577409E+04  0.00000000000E+00 0. -1.
          1    1    1    2  502    0  0.19561012373E+03 -0.14250077126E+02  0.18802123484E+04  0.18904139389E+04  0.00000000000E+00 0. -1.
         22    1    3    3    0    0 -0.20597504794E+03 -0.42825937132E+02 -0.35884437460E+03  0.41596762668E+03  0.00000000000E+00 0.  1.
         22    1    3    3    0    0 -0.90197811039E+01  0.36859637888E+02 -0.53181773044E+02  0.65332153956E+02  0.00000000000E+00 0.  1.
</event>
<event>
 7    1  0.6557591E-006  0.8969127E+02  0.7818608E-02  0.1355866E+00
          2   -1    0    0  502    0  0.00000000000E+00  0.00000000000E+00  0.11720479961E+04  0.11720479961E+04  0.00000000000E+00 0. -1.
          1   -1    0    0  501    0 -0.00000000000E+00 -0.00000000000E+00 -0.86979183978E+03  0.86979183978E+03  0.00000000000E+00 0. -1.
         25    2    1    2    0    0 -0.11035926853E+03 -0.10414645330E+02 -0.95245686403E+02  0.19231106692E+03  0.12499669072E+03 0.  0.
          2    1    1    2  501    0  0.72344445785E+02  0.52366707450E+02 -0.72254931787E+03  0.72804773720E+03  0.00000000000E+00 0. -1.
          1    1    1    2  502    0  0.38014822746E+02 -0.41952062120E+02  0.11200511606E+04  0.11214810317E+04  0.00000000000E+00 0. -1.
         22    1    3    3    0    0 -0.88649109910E+02 -0.37261950483E+02 -0.11704250104E+03  0.15147958507E+03  0.00000000000E+00 0. -1.
         22    1    3    3    0    0 -0.21710158620E+02  0.26847305154E+02  0.21796814641E+02  0.40831481847E+02  0.00000000000E+00 0. -1.
</event>
<event>
 7    1  0.6557591E-006  0.9396001E+02  0.7818608E-02  0.1406321E+00
          2   -1    0    0  502    0  0.00000000000E+00  0.00000000000E+00  0.23132717221E+03  0.23132717221E+03  0.00000000000E+00 0. -1.
          1   -1    0    0  501    0 -0.00000000000E+00 -0.00000000000E+00 -0.21653977268E+03  0.21653977268E+03  0.00000000000E+00 0. -1.
         25    2    1    2    0    0 -0.26024159342E+02 -0.10179292111E+03 -0.81168367221E+02  0.18235280795E+03  0.12500074829E+03 0.  0.
          2    1    1    2  501    0  0.50087845224E+02  0.75245250977E+02 -0.58029324994E+02  0.10741528100E+03  0.00000000000E+00 0. -1.
          1    1    1    2  502    0 -0.24063685883E+02  0.26547670132E+02  0.15398509174E+03  0.15809885593E+03  0.00000000000E+00 0. -1.
         22    1    3    3    0    0 -0.27527675068E+02 -0.97159902396E+01  0.27366921632E+02  0.40014019550E+02  0.00000000000E+00 0.  1.
         22    1    3    3    0    0  0.15035157261E+01 -0.92076930870E+02 -0.10853528885E+03  0.14233878840E+03  0.00000000000E+00 0.  1.
</event>
<event>
 7    1  0.6557591E-006  0.5804810E+02  0.7818608E-02  0.1442464E+00
          2   -1    0    0  502    0  0.00000000000E+00  0.00000000000E+00  0.29922171947E+03  0.29922171947E+03  0.00000000000E+00 0. -1.
          1   -1    0    0  501    0 -0.00000000000E+00 -0.00000000000E+00 -0.60438457519E+03  0.60438457519E+03  0.00000000000E+00 0. -1.
         25    2    1    2    0    0 -0.92994255854E+02  0.28045434456E+02 -0.28853706734E+03  0.32911680404E+03  0.12501901237E+03 0.  0.
          2    1    1    2  501    0  0.52036917821E+02 -0.11971503629E+02 -0.29138129372E+03  0.29623338105E+03  0.00000000000E+00 0. -1.
          1    1    1    2  502    0  0.40957338033E+02 -0.16073930827E+02  0.27475550535E+03  0.27825610957E+03  0.00000000000E+00 0. -1.
         22    1    3    3    0    0  0.30970360131E+02  0.11587970799E+02 -0.53865611812E+02  0.63205604259E+02  0.00000000000E+00 0.  1.
         22    1    3    3    0    0 -0.12396461598E+03  0.16457463657E+02 -0.23467145553E+03  0.26591119978E+03  0.00000000000E+00 0.  1.
</event>
<event>
 7    1  0.6557591E-006  0.1325932E+03  0.7818608E-02  0.1327054E+00
          2   -1    0    0  502    0  0.00000000000E+00  0.00000000000E+00  0.14309725159E+04  0.14309725159E+04  0.00000000000E+00 0. -1.
          1   -1    0    0  501    0 -0.00000000000E+00 -0.00000000000E+00 -0.38106775179E+03  0.38106775179E+03  0.00000000000E+00 0. -1.
         25    2    1    2    0    0  0.13742018424E+03  0.10554430725E+03  0.11541542510E+03  0.24283579131E+03  0.12499837343E+03 0.  0.
          2    1    1    2  501    0 -0.89757741571E+02 -0.93642438157E+02 -0.30359580729E+03  0.33014507811E+03  0.00000000000E+00 0. -1.
          1    1    1    2  502    0 -0.47662442670E+02 -0.11901869097E+02  0.12380851463E+04  0.12390593983E+04  0.00000000000E+00 0. -1.
         22    1    3    3    0    0 -0.60393220009E+01  0.38632100976E+01  0.57144160963E+02  0.57592125631E+02  0.00000000000E+00 0.  1.
         22    1    3    3    0    0  0.14345950624E+03  0.10168109716E+03  0.58271264139E+02  0.18524366568E+03  0.00000000000E+00 0.  1.
</event>
<event>
 7    1  0.6557591E-006  0.1659626E+03  0.7818608E-02  0.1248923E+00
          2   -1    0    0  502    0  0.00000000000E+00  0.00000000000E+00  0.21603810116E+04  0.21603810116E+04  0.00000000000E+00 0. -1.
          1   -1    0    0  501    0 -0.00000000000E+00 -0.00000000000E+00 -0.31159129384E+03  0.31159129384E+03  0.00000000000E+00 0. -1.
         25    2    1    2    0    0 -0.15868500490E+03  0.12389978771E+03  0.73559355394E+03  0.77282285667E+03  0.12500081210E+03 0.  0.
          2    1    1    2  501    0  0.41201536334E+01 -0.81726325388E+02 -0.28258941399E+03  0.29419881854E+03  0.00000000000E+00 0. -1.
          1    1    1    2  502    0  0.15456485126E+03 -0.42173462320E+02  0.13957855778E+04  0.14049506302E+04  0.00000000000E+00 0. -1.
         22    1    3    3    0    0 -0.73761436879E+02  0.12124097286E+03  0.56072895870E+03  0.57840910107E+03  0.00000000000E+00 0. -1.
         22    1    3    3    0    0 -0.84923568016E+02  0.26588148511E+01  0.17486459524E+03  0.19441375560E+03  0.00000000000E+00 0. -1.
</event>
<event>
 7    1  0.6557591E-006  0.3532035E+02  0.7818608E-02  0.1570949E+00
          2   -1    0    0  502    0  0.00000000000E+00  0.00000000000E+00  0.15841580545E+03  0.15841580545E+03  0.00000000000E+00 0. -1.
          1   -1    0    0  501    0 -0.00000000000E+00 -0.00000000000E+00 -0.55020253534E+03  0.55020253534E+03  0.00000000000E+00 0. -1.
         25    2    1    2    0    0  0.58899204038E+02  0.27455438744E+02 -0.53139868403E+01  0.14098430890E+03  0.12500167818E+03 0.  0.
          2    1    1    2  501    0 -0.30746759019E+02 -0.16803308709E+02 -0.47388799270E+03  0.47518159055E+03  0.00000000000E+00 0. -1.
          1    1    1    2  502    0 -0.28152445020E+02 -0.10652130035E+02  0.87415249657E+02  0.92452441328E+02  0.00000000000E+00 0. -1.
         22    1    3    3    0    0  0.19137484499E+02  0.18354092154E+02  0.59080292420E+02  0.64757987648E+02  0.00000000000E+00 0. -1.
         22    1    3    3    0    0  0.39761719539E+02  0.91013465896E+01 -0.64394279261E+02  0.76226321254E+02  0.00000000000E+00 0. -1.
</event>
<event>
 7    1  0.6557591E-006  0.1016281E+03  0.7818608E-02  0.1372707E+00
          2   -1    0    0  502    0  0.00000000000E+00  0.00000000000E+00  0.19028634211E+04  0.19028634211E+04  0.00000000000E+00 0. -1.
          1   -1    0    0  501    0 -0.00000000000E+00 -0.00000000000E+00 -0.13363763102E+03  0.13363763102E+03  0.00000000000E+00 0. -1.
         25    2    1    2    0    0 -0.80603895742E+02  0.87034541663E+02  0.80173422693E+03  0.82004528937E+03  0.12499802615E+03 0.  0.
          2    1    1    2  501    0  0.90919746902E+02 -0.44868338063E+02 -0.10332447169E+03  0.14476019683E+03  0.00000000000E+00 0. -1.
          1    1    1    2  502    0 -0.10315851159E+02 -0.42166203600E+02  0.10708160349E+04  0.10716955660E+04  0.00000000000E+00 0. -1.
         22    1    3    3    0    0 -0.60969912498E+02  0.39293501537E+02  0.71816292988E+03  0.72181666880E+03  0.00000000000E+00 0.  1.
         22    1    3    3    0    0 -0.19633983245E+02  0.47741040126E+02  0.83571297044E+02  0.98228620575E+02  0.00000000000E+00 0.  1.
</event>
<event>
 7    1  0.6557591E-006  0.8008707E+02  0.7818608E-02  0.1450604E+00
          2   -1    0    0  502    0  0.00000000000E+00  0.00000000000E+00  0.29470170628E+03  0.29470170628E+03  0.00000000000E+00 0. -1.
          1   -1    0    0  501    0 -0.00000000000E+00 -0.00000000000E+00 -0.30967943953E+03  0.30967943953E+03  0.00000000000E+00 0. -1.
         25    2    1    2    0    0  0.41565870626E+02 -0.79146959051E+02  0.59699243187E+02  0.16487332885E+03  0.12500900847E+03 0.  0.
          2    1    1    2  501    0 -0.58486093639E+02  0.54342980427E+02 -0.24958422474E+03  0.26204211095E+03  0.00000000000E+00 0. -1.
          1    1    1    2  502    0  0.16920223013E+02  0.24803978624E+02  0.17490724830E+03  0.17746570601E+03  0.00000000000E+00 0. -1.
         22    1    3    3    0    0  0.42534021593E+02 -0.11192718325E+03  0.38292980014E+02  0.12571073805E+03  0.00000000000E+00 0.  1.
         22    1    3    3    0    0 -0.96815096717E+00  0.32780224198E+02  0.21406263173E+02  0.39162590795E+02  0.00000000000E+00 0.  1.
</event>
<event>
 7    1  0.6557591E-006  0.1035112E+03  0.7818608E-02  0.1292400E+00
          2   -1    0    0  502    0  0.00000000000E+00  0.00000000000E+00  0.78173300558E+03  0.78173300558E+03  0.00000000000E+00 0. -1.
          1   -1    0    0  501    0 -0.00000000000E+00 -0.00000000000E+00 -0.30856179373E+03  0.30856179373E+03  0.00000000000E+00 0. -1.
         25    2    1    2    0    0  0.89159184094E+02 -0.80243737550E+02  0.33742953374E+03  0.37930441499E+03  0.12499892586E+03 0.  0.
          2    1    1    2  501    0 -0.10386273186E+03 -0.46907886697E+01 -0.27359123590E+03  0.29268008974E+03  0.00000000000E+00 0. -1.
          1    1    1    2  502    0  0.14703547768E+02  0.84934526219E+02  0.40933291401E+03  0.41831029459E+03  0.00000000000E+00 0. -1.
         22    1    3    3    0    0  0.11489417729E+03 -0.41836587705E+02  0.28032017973E+03  0.30582736177E+03  0.00000000000E+00 0. -1.
         22    1    3    3    0    0 -0.25734993191E+02 -0.38407149845E+02  0.57109354009E+02  0.73477053215E+02  0.00000000000E+00 0. -1.
</event>
<event>
 7    1  0.6557591E-006  0.8746649E+02  0.7818608E-02  0.1447107E+00
          2   -1    0    0  502    0  0.00000000000E+00  0.00000000000E+00  0.24803523035E+04  0.24803523035E+04  0.00000000000E+00 0. -1.
          1   -1    0    0  501    0 -0.00000000000E+00 -0.00000000000E+00 -0.63058117999E+02  0.63058117999E+02  0.00000000000E+00 0. -1.
         25    2    1    2    0    0  0.53424637166E+02 -0.73187034853E+02  0.14743653987E+04  0.14824268537E+04  0.12500205416E+03 0.  0.
          2    1    1    2  501    0 -0.71004429171E+02  0.51123075982E+02 -0.26286792307E+02  0.91357502755E+02  0.00000000000E+00 0. -1.
          1    1    1    2  502    0  0.17579792005E+02  0.22063958870E+02  0.96921557910E+03  0.96962606511E+03  0.00000000000E+00 0. -1.
         22    1    3    3    0    0  0.75677535521E+02 -0.93240645573E+02  0.12972200727E+04  0.13027666040E+04  0.00000000000E+00 0. -1.
         22    1    3    3    0    0 -0.22252898355E+02  0.20053610720E+02  0.17714532601E+03  0.17966024968E+03  0.00000000000E+00 0. -1.
</event>
<event>
 7    1  0.6557591E-006  0.6225639E+02  0.7818608E-02  0.1477056E+00
          2   -1    0    0  502    0  0.00000000000E+00  0.00000000000E+00  0.64428337030E+03  0.64428337030E+03  0.00000000000E+00 0. -1.
          1   -1    0    0  501    0 -0.00000000000E+00 -0.00000000000E+00 -0.23708330899E+03  0.23708330899E+03  0.00000000000E+00 0. -1.
         25    2    1    2    0    0  0.62307512917E+02  0.18665887616E+01  0.27424694697E+03  0.30776960689E+03  0.12500013074E+03 0.  0.
          2    1    1    2  501    0 -0.61340842362E+01 -0.31310129588E+02 -0.21629578684E+03  0.21863627011E+03  0.00000000000E+00 0. -1.
          1    1    1    2  502    0 -0.56173428681E+02  0.29443540827E+02  0.34924890118E+03  0.35496080228E+03  0.00000000000E+00 0. -1.
         22    1    3    3    0    0  0.77121268538E+02  0.47982225953E+02  0.16732377107E+03  0.19038704902E+03  0.00000000000E+00 0. -1.
         22    1    3    3    0    0 -0.14813755620E+02 -0.46115637191E+02  0.10692317590E+03  0.11738255787E+03  0.00000000000E+00 0. -1.
</event>
<event>
 7    1  0.6557591E-006  0.9774263E+02  0.7818608E-02  0.1340225E+00
          2   -1    0    0  502    0  0.00000000000E+00  0.00000000000E+00  0.75602234621E+03  0.75602234621E+03  0.00000000000E+00 0. -1.
          1   -1    0    0  501    0 -0.00000000000E+00 -0.00000000000E+00 -0.62500795899E+02  0.62500795899E+02  0.00000000000E+00 0. -1.
         25    2    1    2    0    0  0.81807105012E+02 -0.79524089117E+02  0.18024628388E+03  0.24724540792E+03  0.12500034282E+03 0.  0.
          2    1    1    2  501    0 -0.93428231149E+02  0.21282354562E+02  0.57710892917E+02  0.11185848270E+03  0.00000000000E+00 0. -1.
          1    1    1    2  502    0  0.11621126137E+02  0.58241734555E+02  0.45556437352E+03  0.45941925149E+03  0.00000000000E+00 0. -1.
         22    1    3    3    0    0  0.45912820072E+02 -0.85777740311E+02  0.18642928019E+03  0.21028952492E+03  0.00000000000E+00 0.  1.
         22    1    3    3    0    0  0.35894284940E+02  0.62536511937E+01 -0.61829963158E+01  0.36955882996E+02  0.00000000000E+00 0.  1.
</event>
<event>
 7    1  0.6557591E-006  0.6964627E+02  0.7818608E-02  0.1377355E+00
          2   -1    0    0  502    0  0.00000000000E+00  0.00000000000E+00  0.22523348928E+04  0.22523348928E+04  0.00000000000E+00 0. -1.
          1   -1    0    0  501    0 -0.00000000000E+00 -0.00000000000E+00 -0.29994146940E+03  0.29994146940E+03  0.00000000000E+00 0. -1.
         25    2    1    2    0    0  0.18747558907E+02  0.16462358572E+02 -0.10269091408E+03  0.16368261198E+03  0.12499637360E+03 0.  0.
          2    1    1    2  501    0 -0.66100590744E+02 -0.54869549345E+02 -0.15524227425E+03  0.17742637700E+03  0.00000000000E+00 0. -1.
          1    1    1    2  502    0  0.47353031838E+02  0.38407190772E+02  0.22103266118E+04  0.22111673733E+04  0.00000000000E+00 0. -1.
         22    1    3    3    0    0  0.92317132479E+01 -0.28647699549E+01 -0.12917900919E+03  0.12954013992E+03  0.00000000000E+00 0.  1.
         22    1    3    3    0    0  0.95158456588E+01  0.19327128527E+02  0.26488095106E+02  0.34142472055E+02  0.00000000000E+00 0.  1.
</event>
<event>
 7    1  0.6557591E-006  0.7549721E+02  0.7818608E-02  0.1398295E+00
          2   -1    0    0  502    0  0.00000000000E+00  0.00000000000E+00  0.17403061828E+04  0.17403061828E+04  0.00000000000E+00 0. -1.
          1   -1    0    0  501    0 -0.00000000000E+00 -0.00000000000E+00 -0.22373977121E+03  0.22373977121E+03  0.00000000000E+00 0. -1.
         25    2    1    2    0    0  0.34777542155E+02  0.51437196392E+02 -0.98335027753E+02  0.17072905848E+03  0.12499348429E+03 0.  0.
          2    1    1    2  501    0  0.37527410239E+02 -0.29133851549E+02 -0.81978899262E+02  0.94750344324E+02  0.00000000000E+00 0. -1.
          1    1    1    2  502    0 -0.72304952394E+02 -0.22303344843E+02  0.16968803386E+04  0.16985665512E+04  0.00000000000E+00 0. -1.
         22    1    3    3    0    0  0.62504873894E+02 -0.13311930085E+02 -0.70062563197E+02  0.94830530447E+02  0.00000000000E+00 0. -1.
         22    1    3    3    0    0 -0.27727331740E+02  0.64749126477E+02 -0.28272464556E+02  0.75898528029E+02  0.00000000000E+00 0. -1.
</event>
<event>
 7    1  0.6557591E-006  0.9748607E+02  0.7818608E-02  0.1442044E+00
          2   -1    0    0  502    0  0.00000000000E+00  0.00000000000E+00  0.12281140106E+04  0.12281140106E+04  0.00000000000E+00 0. -1.
          1   -1    0    0  501    0 -0.00000000000E+00 -0.00000000000E+00 -0.36224712515E+03  0.36224712515E+03  0.00000000000E+00 0. -1.
         25    2    1    2    0    0  0.95527940873E+02  0.16828604154E+01 -0.17932587119E+03  0.23855929263E+03  0.12499739403E+03 0.  0.
          2    1    1    2  501    0 -0.20605934002E+01  0.26200083058E+02 -0.15017704340E+03  0.15245928887E+03  0.00000000000E+00 0. -1.
          1    1    1    2  502    0 -0.93467347473E+02 -0.27882943473E+02  0.11953698001E+04  0.11993425543E+04  0.00000000000E+00 0. -1.
         22    1    3    3    0    0  0.60877820895E+02 -0.60059693418E+02 -0.84551534845E+02  0.12025904496E+03  0.00000000000E+00 0.  1.
         22    1    3    3    0    0  0.34650119977E+02  0.61742553834E+02 -0.94774336341E+02  0.11830024766E+03  0.00000000000E+00 0.  1.
</event>
<event>
 7    1  0.6557591E-006  0.1179711E+03  0.7818608E-02  0.1406398E+00
          2   -1    0    0  502    0  0.00000000000E+00  0.00000000000E+00  0.21113067908E+04  0.21113067908E+04  0.00000000000E+00 0. -1.
          1   -1    0    0  501    0 -0.00000000000E+00 -0.00000000000E+00 -0.17919096160E+03  0.17919096160E+03  0.00000000000E+00 0. -1.
         25    2    1    2    0    0 -0.49355023578E+02  0.10079757593E+03  0.40621166913E+03  0.43957850557E+03  0.12500109105E+03 0.  0.
          2    1    1    2  501    0  0.76055898893E+02 -0.90772495302E+02 -0.14079472205E+03  0.18397635559E+03  0.00000000000E+00 0. -1.
          1    1    1    2  502    0 -0.26700875316E+02 -0.10025080625E+02  0.16666988821E+04  0.16669428912E+04  0.00000000000E+00 0. -1.
         22    1    3    3    0    0 -0.11907862832E+01 -0.26249668722E+02  0.31657030512E+02  0.41141592833E+02  0.00000000000E+00 0. -1.
         22    1    3    3    0    0 -0.48164237294E+02  0.12704724465E+03  0.37455463861E+03  0.39843691274E+03  0.00000000000E+00 0. -1.
</event>
<event>
 7    1  0.6557591E-006  0.7300625E+02  0.7818608E-02  0.1427596E+00
          2   -1    0    0  502    0  0.00000000000E+00  0.00000000000E+00  0.35415416846E+03  0.35415416846E+03  0.00000000000E+00 0. -1.
          1   -1    0    0  501    0 -0.00000000000E+00 -0.00000000000E+00 -0.35406205109E+03  0.35406205109E+03  0.00000000000E+00 0. -1.
         25    2    1    2    0    0 -0.12552662187E+02 -0.42276006462E+02  0.30725600774E+02  0.13606857987E+03  0.12500306330E+03 0.  0.
          2    1    1    2  501    0  0.19968549380E+02 -0.33646413884E+02 -0.29469872726E+03  0.29728465144E+03  0.00000000000E+00 0. -1.
          1    1    1    2  502    0 -0.74158871930E+01  0.75922420345E+02  0.26406524385E+03  0.27486298824E+03  0.00000000000E+00 0. -1.
         22    1    3    3    0    0  0.80629988213E+01  0.45166038111E+00  0.72444502605E+02  0.72893222626E+02  0.00000000000E+00 0.  1.
         22    1    3    3    0    0 -0.20615661009E+02 -0.42727666843E+02 -0.41718901831E+02  0.63175357242E+02  0.00000000000E+00 0.  1.
</event>
<event>
 7    1  0.6557591E-006  0.3620796E+02  0.7818608E-02  0.1592466E+00
          2   -1    0    0  502    0  0.00000000000E+00  0.00000000000E+00  0.18199917888E+04  0.18199917888E+04  0.00000000000E+00 0. -1.
          1   -1    0    0  501    0 -0.00000000000E+00 -0.00000000000E+00 -0.14610034461E+03  0.14610034461E+03  0.00000000000E+00 0. -1.
         25    2    1    2    0    0 -0.43645336753E+02 -0.30547345070E+02  0.98169689608E+03  0.99105541927E+03  0.12499597021E+03 0.  0.
          2    1    1    2  501    0  0.25715629169E+02  0.26748877195E+00 -0.13987695830E+03  0.14222140695E+03  0.00000000000E+00 0. -1.
          1    1    1    2  502    0  0.17929707584E+02  0.30279856298E+02  0.83207150642E+03  0.83281530721E+03  0.00000000000E+00 0. -1.
         22    1    3    3    0    0 -0.38252520038E+02 -0.78573732456E+02  0.60902701604E+03  0.61526497786E+03  0.00000000000E+00 0.  1.
         22    1    3    3    0    0 -0.53928167141E+01  0.48026387386E+02  0.37266988005E+03  0.37579044141E+03  0.00000000000E+00 0.  1.
</event>
<event>
 7    1  0.6557591E-006  0.5479782E+02  0.7818608E-02  0.1462291E+00
          2   -1    0    0  502    0  0.00000000000E+00  0.00000000000E+00  0.89426851312E+03  0.89426851312E+03  0.00000000000E+00 0. -1.
          1   -1    0    0  501    0 -0.00000000000E+00 -0.00000000000E+00 -0.82915400827E+03  0.82915400827E+03  0.00000000000E+00 0. -1.
         25    2    1    2    0    0 -0.28621300849E+02  0.38732440111E+02 -0.49674626833E+02  0.14287165108E+03  0.12500143739E+03 0.  0.
          2    1    1    2  501    0  0.37154421676E+02  0.15592827539E+02 -0.73143390195E+03  0.73254292724E+03  0.00000000000E+00 0. -1.
          1    1    1    2  502    0 -0.85331208263E+01 -0.54325267649E+02  0.84622303364E+03  0.84800794308E+03  0.00000000000E+00 0. -1.
         22    1    3    3    0    0 -0.14408361073E+02  0.77252890972E+02 -0.20848923001E+00  0.78585326239E+02  0.00000000000E+00 0. -1.
         22    1    3    3    0    0 -0.14212939776E+02 -0.38520450861E+02 -0.49466137603E+02  0.64286324836E+02  0.00000000000E+00 0. -1.
</event>
<event>
 7    1  0.6557591E-006  0.1168967E+03  0.7818608E-02  0.1305917E+00
          2   -1    0    0  502    0  0.00000000000E+00  0.00000000000E+00  0.12190470286E+04  0.12190470286E+04  0.00000000000E+00 0. -1.
          1   -1    0    0  501    0 -0.00000000000E+00 -0.00000000000E+00 -0.63737788247E+03  0.63737788247E+03  0.00000000000E+00 0. -1.
         25    2    1    2    0    0  0.75666726924E+02  0.33239721270E+02  0.68131725409E+02  0.16461304655E+03  0.12500076181E+03 0.  0.
          2    1    1    2  501    0  0.42944053101E+02 -0.51914685917E+02 -0.58392573873E+03  0.58779979131E+03  0.00000000000E+00 0. -1.
          1    1    1    2  502    0 -0.11861078003E+03  0.18674964647E+02  0.10974631595E+04  0.11040120732E+04  0.00000000000E+00 0. -1.
         22    1    3    3    0    0  0.34289832979E+02  0.85394939755E+01  0.10052070532E+03  0.10655105725E+03  0.00000000000E+00 0.  1.
         22    1    3    3    0    0  0.41376893945E+02  0.24700227294E+02 -0.32388979915E+02  0.58061989295E+02  0.00000000000E+00 0.  1.
</event>
<event>
 7    1  0.6557591E-006  0.1064739E+03  0.7818608E-02  0.1340144E+00
          2   -1    0    0  502    0  0.00000000000E+00  0.00000000000E+00  0.81889334342E+03  0.81889334342E+03  0.00000000000E+00 0. -1.
          1   -1    0    0  501    0 -0.00000000000E+00 -0.00000000000E+00 -0.50739062712E+03  0.50739062712E+03  0.00000000000E+00 0. -1.
         25    2    1    2    0    0 -0.21287653381E+02 -0.78020680860E+02  0.99472022355E+02  0.17904458419E+03  0.12498755565E+03 0.  0.
          2    1    1    2  501    0  0.75836209208E+02  0.77001269214E+02 -0.46023968480E+03  0.47275881118E+03  0.00000000000E+00 0. -1.
          1    1    1    2  502    0 -0.54548555827E+02  0.10194116454E+01  0.67227037874E+03  0.67448057517E+03  0.00000000000E+00 0. -1.
         22    1    3    3    0    0  0.29778325909E+02 -0.51824788742E+02  0.10558278148E+03  0.12132716583E+03  0.00000000000E+00 0.  1.
         22    1    3    3    0    0 -0.51065979290E+02 -0.26195892117E+02 -0.61107591285E+01  0.57717418357E+02  0.00000000000E+00 0.  1.
</event>
<event>
 7    1  0.6557591E-006  0.1076109E+03  0.7818608E-02  0.1414184E+00
          2   -1    0    0  502    0  0.00000000000E+00  0.00000000000E+00  0.10823246358E+04  0.10823246358E+04  0.00000000000E+00 0. -1.
          1   -1    0    0  501    0 -0.00000000000E+00 -0.00000000000E+00 -0.24621089277E+03  0.24621089277E+03  0.00000000000E+00 0. -1.
         25    2    1    2    0    0  0.10451938487E+03 -0.79707536622E+02  0.15851826520E+03  0.24087171213E+03  0.12495418397E+03 0.  0.
          2    1    1    2  501    0 -0.13117527714E+02  0.26338526112E+02 -0.20078497186E+03  0.20292952574E+03  0.00000000000E+00 0. -1.
          1    1    1    2  502    0 -0.91401857158E+02  0.53369010510E+02  0.87838044965E+03  0.88473429068E+03  0.00000000000E+00 0. -1.
         22    1    3    3    0    0  0.10207073754E+03 -0.44510905352E+01  0.66197904537E+02  0.12173910725E+03  0.00000000000E+00 0.  1.
         22    1    3    3    0    0  0.24486473343E+01 -0.75256446087E+02  0.92320360668E+02  0.11913260488E+03  0.00000000000E+00 0.  1.
</event>
<event>
 7    1  0.6557591E-006  0.1271787E+03  0.7818608E-02  0.1379382E+00
          2   -1    0    0  502    0  0.00000000000E+00  0.00000000000E+00  0.98135444542E+03  0.98135444542E+03  0.00000000000E+00 0. -1.
          1   -1    0    0  501    0 -0.00000000000E+00 -0.00000000000E+00 -0.58782493534E+03  0.58782493534E+03  0.00000000000E+00 0. -1.
         25    2    1    2    0    0 -0.15757576039E+03  0.34117590379E+01  0.35065146357E+01  0.20120040835E+03  0.12501019284E+03 0.  0.
          2    1    1    2  501    0  0.12480291672E+03 -0.13095515776E+01 -0.48069909618E+03  0.49663779962E+03  0.00000000000E+00 0. -1.
          1    1    1    2  502    0  0.32772843679E+02 -0.21022074603E+01  0.87072209162E+03  0.87134117279E+03  0.00000000000E+00 0. -1.
         22    1    3    3    0    0 -0.11033851451E+03  0.59120029548E+02  0.18783456433E+02  0.12658034568E+03  0.00000000000E+00 0.  1.
         22    1    3    3    0    0 -0.47237245887E+02 -0.55708270510E+02 -0.15276941797E+02  0.74620062670E+02  0.00000000000E+00 0.  1.
</event>
<event>
 7    1  0.6557591E-006  0.8206314E+02  0.7818608E-02  0.1446718E+00
          2   -1    0    0  502    0  0.00000000000E+00  0.00000000000E+00  0.17432708034E+04  0.17432708034E+04  0.00000000000E+00 0. -1.
          1   -1    0    0  501    0 -0.00000000000E+00 -0.00000000000E+00 -0.74946688907E+03  0.74946688907E+03  0.00000000000E+00 0. -1.
         25    2    1    2    0    0 -0.50505159636E+02 -0.20271219643E+02 -0.52249711967E+02  0.14600030572E+03  0.12499745347E+03 0.  0.
          2    1    1    2  501    0  0.73799322156E+02  0.39421126707E+02 -0.64751606884E+03  0.65289924536E+03  0.00000000000E+00 0. -1.
          1    1    1    2  502    0 -0.23294162519E+02 -0.19149907064E+02  0.16935696952E+04  0.16938381414E+04  0.00000000000E+00 0. -1.
         22    1    3    3    0    0 -0.75586290140E+02 -0.19626043598E+02 -0.77770515946E+02  0.11021216809E+03  0.00000000000E+00 0.  1.
         22    1    3    3    0    0  0.25081130504E+02 -0.64517604537E+00  0.25520803979E+02  0.35788137633E+02  0.00000000000E+00 0.  1.
</event>
<event>
 7    1  0.6557591E-006  0.5414987E+02  0.7818608E-02  0.1448301E+00
          2   -1    0    0  502    0  0.00000000000E+00  0.00000000000E+00  0.16641167745E+04  0.16641167745E+04  0.00000000000E+00 0. -1.
          1   -1    0    0  501    0 -0.00000000000E+00 -0.00000000000E+00 -0.17328965768E+03  0.17328965768E+03  0.00000000000E+00 0. -1.
         25    2    1    2    0    0 -0.11382625564E+02  0.14863216290E+00  0.76698919229E+02  0.14709723890E+03  0.12500114889E+03 0.  0.
          2    1    1    2  501    0  0.55480094200E+02 -0.99247774827E+01 -0.13199608337E+03  0.14352528726E+03  0.00000000000E+00 0. -1.
          1    1    1    2  502    0 -0.44097468636E+02  0.97761453198E+01  0.15461242810E+04  0.15467839060E+04  0.00000000000E+00 0. -1.
         22    1    3    3    0    0 -0.41953517937E+02 -0.50591537356E+02  0.33412039559E+02  0.73729001803E+02  0.00000000000E+00 0. -1.
         22    1    3    3    0    0  0.30570892373E+02  0.50740169519E+02  0.43286879670E+02  0.73368237097E+02  0.00000000000E+00 0. -1.
</event>
<event>
 7    1  0.6557591E-006  0.6621375E+02  0.7818608E-02  0.1415747E+00
          2   -1    0    0  502    0  0.00000000000E+00  0.00000000000E+00  0.42910065341E+04  0.42910065341E+04  0.00000000000E+00 0. -1.
          1   -1    0    0  501    0 -0.00000000000E+00 -0.00000000000E+00 -0.31527844828E+02  0.31527844828E+02  0.00000000000E+00 0. -1.
         25    2    1    2    0    0  0.80615917665E+01  0.19650426055E+02  0.12319227159E+03  0.17680556906E+03  0.12503097602E+03 0.  0.
          2    1    1    2  501    0 -0.50617150966E+01  0.46973241379E+02  0.12111624799E+03  0.13000481488E+03  0.00000000000E+00 0. -1.
          1    1    1    2  502    0 -0.29998766699E+01 -0.66623667434E+02  0.40151701697E+04  0.40157239950E+04  0.00000000000E+00 0. -1.
         22    1    3    3    0    0 -0.73460773690E+01 -0.52467735240E+02  0.54928624349E+02  0.76315017309E+02  0.00000000000E+00 0.  1.
         22    1    3    3    0    0  0.15407669135E+02  0.72118161295E+02  0.68263647244E+02  0.10049055175E+03  0.00000000000E+00 0.  1.
</event>
<event>
 7    1  0.6557591E-006  0.1013319E+03  0.7818608E-02  0.1285434E+00
          2   -1    0    0  502    0  0.00000000000E+00  0.00000000000E+00  0.33374322883E+04  0.33374322883E+04  0.00000000000E+00 0. -1.
          1   -1    0    0  501    0 -0.00000000000E+00 -0.00000000000E+00 -0.39972145919E+03  0.39972145919E+03  0.00000000000E+00 0. -1.
         25    2    1    2    0    0 -0.79364365794E+02 -0.16981425774E+02  0.26817986730E+03  0.30681083399E+03  0.12500150099E+03 0.  0.
          2    1    1    2  501    0  0.68750930820E+02 -0.76415374966E+02 -0.37272290181E+03  0.38663724802E+03  0.00000000000E+00 0. -1.
          1    1    1    2  502    0  0.10613434973E+02  0.93396800740E+02  0.30422538636E+04  0.30437056655E+04  0.00000000000E+00 0. -1.
         22    1    3    3    0    0  0.28521409114E+02 -0.20734287854E+02  0.10832510858E+03  0.11391975518E+03  0.00000000000E+00 0.  1.
         22    1    3    3    0    0 -0.10788577491E+03  0.37528620802E+01  0.15985475872E+03  0.19289107882E+03  0.00000000000E+00 0.  1.
</event>
<event>
 7    1  0.6557591E-006  0.5948021E+02  0.7818608E-02  0.1410031E+00
          2   -1    0    0  502    0  0.00000000000E+00  0.00000000000E+00  0.53641127690E+03  0.53641127690E+03  0.00000000000E+00 0. -1.
          1   -1    0    0  501    0 -0.00000000000E+00 -0.00000000000E+00 -0.66092292595E+03  0.66092292595E+03  0.00000000000E+00 0. -1.
         25    2    1    2    0    0  0.58502650058E+02 -0.67302907422E+02 -0.15631587628E+02  0.15435411209E+03  0.12501441507E+03 0.  0.
          2    1    1    2  501    0 -0.59095095975E+00  0.54979071183E+02 -0.57273174310E+03  0.57536483821E+03  0.00000000000E+00 0. -1.
          1    1    1    2  502    0 -0.57911699098E+02  0.12323836239E+02  0.46385168167E+03  0.46761525255E+03  0.00000000000E+00 0. -1.
         22    1    3    3    0    0  0.79292487721E+02 -0.50562682111E+02  0.32347867372E+02  0.99449826319E+02  0.00000000000E+00 0. -1.
         22    1    3    3    0    0 -0.20789837663E+02 -0.16740225311E+02 -0.47979455000E+02  0.54904285768E+02  0.00000000000E+00 0. -1.
</event>
<event>
 7    1  0.6557591E-006  0.3317084E+02  0.7818608E-02  0.1565989E+00
          2   -1    0    0  502    0  0.00000000000E+00  0.00000000000E+00  0.28074801237E+03  0.28074801237E+03  0.00000000000E+00 0. -1.
          1   -1    0    0  501    0 -0.00000000000E+00 -0.00000000000E+00 -0.38969484615E+03  0.38969484615E+03  0.00000000000E+00 0. -1.
         25    2    1    2    0    0  0.13142553565E+02 -0.14994295694E+02 -0.14296754956E+03  0.19097024984E+03  0.12502943845E+03 0.  0.
          2    1    1    2  501    0 -0.32321211249E+02 -0.12070136424E+02 -0.22030631701E+03  0.22299152945E+03  0.00000000000E+00 0. -1.
          1    1    1    2  502    0  0.19178657684E+02  0.27064432119E+02  0.25432703279E+03  0.25648107924E+03  0.00000000000E+00 0. -1.
         22    1    3    3    0    0 -0.23625449580E+02  0.40470147542E+02 -0.19590653879E+02  0.50791617708E+02  0.00000000000E+00 0. -1.
         22    1    3    3    0    0  0.36768003145E+02 -0.55464443236E+02 -0.12337689568E+03  0.14017863213E+03  0.00000000000E+00 0. -1.
</event>
<event>
 7    1  0.6557591E-006  0.6213506E+02  0.7818608E-02  0.1440280E+00
          2   -1    0    0  502    0  0.00000000000E+00  0.00000000000E+00  0.67939393586E+03  0.67939393586E+03  0.00000000000E+00 0. -1.
          1   -1    0    0  501    0 -0.00000000000E+00 -0.00000000000E+00 -0.46795161915E+02  0.46795161915E+02  0.00000000000E+00 0. -1.
         25    2    1    2    0    0 -0.20939918200E+00  0.55383021355E+02  0.35269730887E+03  0.37826962850E+03  0.12500078901E+03 0.  0.
          2    1    1    2  501    0  0.41687762275E+02 -0.27669983563E+01 -0.15841718008E+02  0.44682052692E+02  0.00000000000E+00 0. -1.
          1    1    1    2  502    0 -0.41478363093E+02 -0.52616022998E+02  0.29574318308E+03  0.30323741659E+03  0.00000000000E+00 0. -1.
         22    1    3    3    0    0 -0.32265969156E+02  0.61305313161E+02  0.90091554724E+02  0.11364823985E+03  0.00000000000E+00 0.  1.
         22    1    3    3    0    0  0.32056569974E+02 -0.59222918066E+01  0.26260575415E+03  0.26462138865E+03  0.00000000000E+00 0.  1.
</event>
<event>
 7    1  0.6557591E-006  0.1361332E+03  0.7818608E-02  0.1350484E+00
          2   -1    0    0  502    0  0.00000000000E+00  0.00000000000E+00  0.15391758507E+03  0.15391758507E+03  0.00000000000E+00 0. -1.
          1   -1    0    0  501    0 -0.00000000000E+00 -0.00000000000E+00 -0.28671351064E+04  0.28671351064E+04  0.00000000000E+00 0. -1.
         25    2    1    2    0    0 -0.10817644395E+03 -0.12631533071E+00 -0.40544859684E+03  0.43785277126E+03  0.12499730252E+03 0.  0.
          2    1    1    2  501    0 -0.27708873504E+02  0.27507006129E+02 -0.24104054087E+04  0.24107216038E+04  0.00000000000E+00 0. -1.
          1    1    1    2  502    0  0.13588531746E+03 -0.27380690799E+02  0.10263648419E+03  0.17247831637E+03  0.00000000000E+00 0. -1.
         22    1    3    3    0    0 -0.11804440676E+03  0.21374014126E+02 -0.21723227927E+03  0.24815558347E+03  0.00000000000E+00 0.  1.
         22    1    3    3    0    0  0.98679628114E+01 -0.21500329457E+02 -0.18821631756E+03  0.18969718779E+03  0.00000000000E+00 0.  1.
</event>
<event>
 7    1  0.6557591E-006  0.1149752E+03  0.7818608E-02  0.1316424E+00
          2   -1    0    0  502    0  0.00000000000E+00  0.00000000000E+00  0.26700947386E+04  0.26700947386E+04  0.00000000000E+00 0. -1.
          1   -1    0    0  501    0 -0.00000000000E+00 -0.00000000000E+00 -0.19117974636E+04  0.19117974636E+04  0.00000000000E+00 0. -1.
         25    2    1    2    0    0  0.15728025715E+03  0.68460809879E+02 -0.44449292437E+03  0.49256788941E+03  0.12500081632E+03 0.  0.
          2    1    1    2  501    0 -0.10387079057E+03 -0.36421814623E+02 -0.14408010801E+04  0.14449994610E+04  0.00000000000E+00 0. -1.
          1    1    1    2  502    0 -0.53409466581E+02 -0.32038995256E+02  0.26435912796E+04  0.26443248518E+04  0.00000000000E+00 0. -1.
         22    1    3    3    0    0  0.69394031462E+01 -0.21901247001E+02 -0.13398867057E+03  0.13594404649E+03  0.00000000000E+00 0. -1.
         22    1    3    3    0    0  0.15034085400E+03  0.90362056880E+02 -0.31050425380E+03  0.35662384291E+03  0.00000000000E+00 0. -1.
</event>
<event>
 7    1  0.6557591E-006  0.8607599E+02  0.7818608E-02  0.1353790E+00
          2   -1    0    0  502    0  0.00000000000E+00  0.00000000000E+00  0.56577619121E+03  0.56577619121E+03  0.00000000000E+00 0. -1.
          1   -1    0    0  501    0 -0.00000000000E+00 -0.00000000000E+00 -0.91956977293E+03  0.91956977293E+03  0.00000000000E+00 0. -1.
         25    2    1    2    0    0  0.84743532860E+02 -0.14444631463E+02  0.32085919349E+03  0.35491560976E+03  0.12499741705E+03 0.  0.
          2    1    1    2  501    0 -0.32015953472E+01  0.59952134946E+02 -0.89192374541E+03  0.89394209898E+03  0.00000000000E+00 0. -1.
          1    1    1    2  502    0 -0.81541937513E+02 -0.45507503484E+02  0.21727097020E+03  0.23648825539E+03  0.00000000000E+00 0. -1.
         22    1    3    3    0    0  0.10823780186E+03 -0.39100217912E+02  0.21719846489E+03  0.24580362475E+03  0.00000000000E+00 0. -1.
         22    1    3    3    0    0 -0.23494269002E+02  0.24655586449E+02  0.10366072860E+03  0.10911198501E+03  0.00000000000E+00 0. -1.
</event>
<event>
 7    1  0.6557591E-006  0.8676895E+02  0.7818608E-02  0.1394834E+00
          2   -1    0    0  502    0  0.00000000000E+00  0.00000000000E+00  0.13069893841E+04  0.13069893841E+04  0.00000000000E+00 0. -1.
          1   -1    0    0  501    0 -0.00000000000E+00 -0.00000000000E+00 -0.49437167941E+03  0.49437167941E+03  0.00000000000E+00 0. -1.
         25    2    1    2    0    0  0.51095359310E+02 -0.81549494450E+02  0.10090016382E+03  0.18725483750E+03  0.12498990088E+03 0.  0.
          2    1    1    2  501    0 -0.88724054306E+01  0.86317909122E+02 -0.44662921012E+03  0.45498038677E+03  0.00000000000E+00 0. -1.
          1    1    1    2  502    0 -0.42222953880E+02 -0.47684146719E+01  0.11583467510E+04  0.11591258392E+04  0.00000000000E+00 0. -1.
         22    1    3    3    0    0  0.50575889047E+02 -0.75694197742E+02  0.12936683313E+03  0.15818757739E+03  0.00000000000E+00 0. -1.
         22    1    3    3    0    0  0.51947026305E+00 -0.58552967078E+01 -0.28466669314E+02  0.29067260118E+02  0.00000000000E+00 0. -1.
</event>
<event>
 7    1  0.6557591E-006  0.7086170E+02  0.7818608E-02  0.1387591E+00
          2   -1    0    0  502    0  0.00000000000E+00  0.00000000000E+00  0.16354760195E+04  0.16354760195E+04  0.00000000000E+00 0. -1.
          1   -1    0    0  501    0 -0.00000000000E+00 -0.00000000000E+00 -0.37862044170E+03  0.37862044170E+03  0.00000000000E+00 0. -1.
         25    2    1    2    0    0 -0.79181307927E+02  0.90973414434E+02 -0.55116889182E+01  0.17379062333E+03  0.12500784129E+03 0.  0.
          2    1    1    2  501    0  0.47465118235E+02 -0.28066502033E+02 -0.28553017004E+03  0.29080602468E+03  0.00000000000E+00 0. -1.
          1    1    1    2  502    0  0.31716189692E+02 -0.62906912400E+02  0.15478974367E+04  0.15494998132E+04  0.00000000000E+00 0. -1.
         22    1    3    3    0    0  0.28903151677E+02  0.34052712824E+02  0.20097698074E+02  0.48978535047E+02  0.00000000000E+00 0.  1.
         22    1    3    3    0    0 -0.10808445960E+03  0.56920701610E+02 -0.25609386992E+02  0.12481208828E+03  0.00000000000E+00 0.  1.
</event>
<event>
 7    1  0.6557591E-006  0.4629660E+02  0.7818608E-02  0.1468778E+00
          2   -1    0    0  502    0  0.00000000000E+00  0.00000000000E+00  0.29340099007E+03  0.29340099007E+03  0.00000000000E+00 0. -1.
          1   -1    0    0  501    0 -0.00000000000E+00 -0.00000000000E+00 -0.70871028300E+03  0.70871028300E+03  0.00000000000E+00 0. -1.
         25    2    1    2    0    0 -0.24601921077E+02 -0.20915676259E+02 -0.10884571390E+03  0.16886613028E+03  0.12500264192E+03 0.  0.
          2    1    1    2  501    0 -0.17090505536E+02  0.42183517307E+02 -0.56685578532E+03  0.56868006460E+03  0.00000000000E+00 0. -1.
          1    1    1    2  502    0  0.41692426614E+02 -0.21267841048E+02  0.26039220629E+03  0.26456507819E+03  0.00000000000E+00 0. -1.
         22    1    3    3    0    0 -0.72148130588E+02  0.18405698180E+01 -0.41183909944E+02  0.83095456451E+02  0.00000000000E+00 0. -1.
         22    1    3    3    0    0  0.47546209511E+02 -0.22756246077E+02 -0.67661803954E+02  0.85770673827E+02  0.00000000000E+00 0. -1.
</event>
<event>
 7    1  0.6557591E-006  0.1246046E+03  0.7818608E-02  0.1360306E+00
          2   -1    0    0  502    0  0.00000000000E+00  0.00000000000E+00  0.11117304247E+04  0.11117304247E+04  0.00000000000E+00 0. -1.
          1   -1    0    0  501    0 -0.00000000000E+00 -0.00000000000E+00 -0.30389027947E+03  0.30389027947E+03  0.00000000000E+00 0. -1.
         25    2    1    2    0    0  0.60545171062E+02  0.74582043096E+02  0.14950054437E+03  0.21726383461E+03  0.12499984869E+03 0.  0.
          2    1    1    2  501    0 -0.99544734798E+02 -0.79045050871E+02 -0.25460350883E+03  0.28457023913E+03  0.00000000000E+00 0. -1.
          1    1    1    2  502    0  0.38999563736E+02  0.44630077749E+01  0.91294310968E+03  0.91378663042E+03  0.00000000000E+00 0. -1.
         22    1    3    3    0    0  0.58807838309E+02 -0.31571518400E+01  0.12077561660E+03  0.13436918925E+03  0.00000000000E+00 0.  1.
         22    1    3    3    0    0  0.17373327534E+01  0.77739194936E+02  0.28724927765E+02  0.82894645361E+02  0.00000000000E+00 0.  1.
</event>
<event>
 7    1  0.6557591E-006  0.5425025E+02  0.7818608E-02  0.1486579E+00
          2   -1    0    0  502    0  0.00000000000E+00  0.00000000000E+00  0.62794339878E+03  0.62794339878E+03  0.00000000000E+00 0. -1.
          1   -1    0    0  501    0 -0.00000000000E+00 -0.00000000000E+00 -0.26671891766E+04  0.26671891766E+04  0.00000000000E+00 0. -1.
         25    2    1    2    0    0  0.22122471682E+02  0.78892528931E+02  0.11244625528E+03  0.18704093627E+03  0.12500686638E+03 0.  0.
          2    1    1    2  501    0  0.15766089112E+01 -0.54182588949E+02 -0.26289992674E+04  0.26295580212E+04  0.00000000000E+00 0. -1.
          1    1    1    2  502    0 -0.23699080594E+02 -0.24709939982E+02  0.47730723432E+03  0.47853361793E+03  0.00000000000E+00 0. -1.
         22    1    3    3    0    0 -0.37836631914E+02 -0.10631368430E+02  0.16003702605E+02  0.42435306130E+02  0.00000000000E+00 0. -1.
         22    1    3    3    0    0  0.59959103597E+02  0.89523897361E+02  0.96442552671E+02  0.14460563014E+03  0.00000000000E+00 0. -1.
</event>
<event>
 7    1  0.6557591E-006  0.3573411E+02  0.7818608E-02  0.1584842E+00
          2   -1    0    0  502    0  0.00000000000E+00  0.00000000000E+00  0.14314883102E+03  0.14314883102E+03  0.00000000000E+00 0. -1.
          1   -1    0    0  501    0 -0.00000000000E+00 -0.00000000000E+00 -0.24945389014E+03  0.24945389014E+03  0.00000000000E+00 0. -1.
         25    2    1    2    0    0  0.63919853623E+01 -0.20031685789E+02 -0.28788252829E+01  0.12679580674E+03  0.12500705203E+03 0.  0.
          2    1    1    2  501    0  0.18457650634E+02  0.31334999786E+02 -0.18045527921E+03  0.18408333676E+03  0.00000000000E+00 0. -1.
          1    1    1    2  502    0 -0.24849635997E+02 -0.11303313997E+02  0.77029045368E+02  0.81723577668E+02  0.00000000000E+00 0. -1.
         22    1    3    3    0    0 -0.16261121718E+01 -0.43343213834E+02  0.51355879468E+02  0.67221311964E+02  0.00000000000E+00 0. -1.
         22    1    3    3    0    0  0.80180975341E+01  0.23311528045E+02 -0.54234704751E+02  0.59574494771E+02  0.00000000000E+00 0. -1.
</event>
<event>
 7    1  0.6557591E-006  0.1004051E+03  0.7818608E-02  0.1339875E+00
          2   -1    0    0  502    0  0.00000000000E+00  0.00000000000E+00  0.15529908296E+04  0.15529908296E+04  0.00000000000E+00 0. -1.
          1   -1    0    0  501    0 -0.00000000000E+00 -0.00000000000E+00 -0.16412408516E+03  0.16412408516E+03  0.00000000000E+00 0. -1.
         25    2    1    2    0    0  0.36124252404E+02  0.74218632699E+02 -0.60330064025E+02  0.16148429075E+03  0.12499636988E+03 0.  0.
          2    1    1    2  501    0 -0.52124634564E+02  0.25414648491E+02 -0.35180452136E+02  0.67827325606E+02  0.00000000000E+00 0. -1.
          1    1    1    2  502    0  0.16000382160E+02 -0.99633281190E+02  0.14843772606E+04  0.14878032984E+04  0.00000000000E+00 0. -1.
         22    1    3    3    0    0 -0.72624567845E+01 -0.28881850122E+02 -0.36515200230E+02  0.47119681587E+02  0.00000000000E+00 0. -1.
         22    1    3    3    0    0  0.43386709188E+02  0.10310048282E+03 -0.23814863794E+02  0.11436460917E+03  0.00000000000E+00 0. -1.
</event>
<event>
 7    1  0.6557591E-006  0.3304139E+02  0.7818608E-02  0.1605795E+00
          2   -1    0    0  502    0  0.00000000000E+00  0.00000000000E+00  0.19577931678E+04  0.19577931678E+04  0.00000000000E+00 0. -1.
          1   -1    0    0  501    0 -0.00000000000E+00 -0.00000000000E+00 -0.59380966024E+03  0.59380966024E+03  0.00000000000E+00 0. -1.
         25    2    1    2    0    0  0.20182608903E+02  0.60267832448E+00  0.49571395303E+03  0.51163020627E+03  0.12500177525E+03 0.  0.
          2    1    1    2  501    0  0.17734202551E+01 -0.25946897511E+02 -0.58536945393E+03  0.58594691236E+03  0.00000000000E+00 0. -1.
          1    1    1    2  502    0 -0.21956029158E+02  0.25344219187E+02  0.14536390084E+04  0.14540257094E+04  0.00000000000E+00 0. -1.
         22    1    3    3    0    0  0.38718049653E+02  0.20815822238E+02  0.56623287477E+02  0.71683906904E+02  0.00000000000E+00 0. -1.
         22    1    3    3    0    0 -0.18535440750E+02 -0.20213143913E+02  0.43909066555E+03  0.43994629937E+03  0.00000000000E+00 0. -1.
</event>
<event>
 7    1  0.6557591E-006  0.2514775E+02  0.7818608E-02  0.1666071E+00
          2   -1    0    0  502    0  0.00000000000E+00  0.00000000000E+00  0.99397737127E+03  0.99397737127E+03  0.00000000000E+00 0. -1.
          1   -1    0    0  501    0 -0.00000000000E+00 -0.00000000000E+00 -0.58127294079E+03  0.58127294079E+03  0.00000000000E+00 0. -1.
         25    2    1    2    0    0 -0.24173297673E+02  0.34688915141E+02  0.19494435750E+03  0.23540819850E+03  0.12500419290E+03 0.  0.
          2    1    1    2  501    0  0.14813494340E+01 -0.24117984283E+02 -0.56057952172E+03  0.56110005501E+03  0.00000000000E+00 0. -1.
          1    1    1    2  502    0  0.22691948239E+02 -0.10570930858E+02  0.77833959469E+03  0.77874205855E+03  0.00000000000E+00 0. -1.
         22    1    3    3    0    0  0.30692172270E+02  0.32420335268E+02  0.16877345179E+03  0.17457825067E+03  0.00000000000E+00 0. -1.
         22    1    3    3    0    0 -0.54865469943E+02  0.22685798729E+01  0.26170905712E+02  0.60829947826E+02  0.00000000000E+00 0. -1.
</event>
<event>
 7    1  0.6557591E-006  0.8659920E+02  0.7818608E-02  0.1461452E+00
          2   -1    0    0  502    0  0.00000000000E+00  0.00000000000E+00  0.30694402478E+03  0.30694402478E+03  0.00000000000E+00 0. -1.
          1   -1    0    0  501    0 -0.00000000000E+00 -0.00000000000E+00 -0.40047558657E+03  0.40047558657E+03  0.00000000000E+00 0. -1.
         25    2    1    2    0    0  0.31942731390E+01 -0.61763070342E+02  0.13407715889E+03  0.19347913323E+03  0.12503043717E+03 0.  0.
          2    1    1    2  501    0 -0.74157689815E+01  0.87065637891E+02 -0.36441761000E+03  0.37474739947E+03  0.00000000000E+00 0. -1.
          1    1    1    2  502    0  0.42214958425E+01 -0.25302567549E+02  0.13680888931E+03  0.13919307865E+03  0.00000000000E+00 0. -1.
         22    1    3    3    0    0 -0.11468884255E+02 -0.84741510880E+02  0.37940653850E+02  0.93552937885E+02  0.00000000000E+00 0.  1.
         22    1    3    3    0    0  0.14663157394E+02  0.22978440538E+02  0.96136505044E+02  0.99926195346E+02  0.00000000000E+00 0.  1.
</event>
<event>
 7    1  0.6557591E-006  0.7017911E+02  0.7818608E-02  0.1409487E+00
          2   -1    0    0  502    0  0.00000000000E+00  0.00000000000E+00  0.16545696188E+03  0.16545696188E+03  0.00000000000E+00 0. -1.
          1   -1    0    0  501    0 -0.00000000000E+00 -0.00000000000E+00 -0.79724184620E+03  0.79724184620E+03  0.00000000000E+00 0. -1.
         25    2    1    2    0    0 -0.15119807874E+02 -0.72407633139E+02  0.52210659502E+02  0.15434497722E+03  0.12499978040E+03 0.  0.
          2    1    1    2  501    0  0.53529144124E+02  0.45671593699E+02 -0.73544545181E+03  0.73880394986E+03  0.00000000000E+00 0. -1.
          1    1    1    2  502    0 -0.38409336250E+02  0.26736039440E+02  0.51449907988E+02  0.69549881007E+02  0.00000000000E+00 0. -1.
         22    1    3    3    0    0 -0.62314221549E+02 -0.34696610004E+02 -0.45294515789E+01  0.71466305939E+02  0.00000000000E+00 0. -1.
         22    1    3    3    0    0  0.47194413675E+02 -0.37711023135E+02  0.56740111081E+02  0.82878671282E+02  0.00000000000E+00 0. -1.
</event>
<event>
 7    1  0.6557591E-006  0.3716587E+02  0.7818608E-02  0.1561606E+00
          2   -1    0    0  502    0  0.00000000000E+00  0.00000000000E+00  0.74695078846E+03  0.74695078846E+03  0.00000000000E+00 0. -1.
          1   -1    0    0  501    0 -0.00000000000E+00 -0.00000000000E+00 -0.49175136584E+03  0.49175136584E+03  0.00000000000E+00 0. -1.
         25    2    1    2    0    0  0.91230769280E+01 -0.18039918382E+01  0.44810238745E+02  0.13312253424E+03  0.12500866652E+03 0.  0.
          2    1    1    2  501    0  0.25301394082E+02  0.16736580442E+02 -0.44654519666E+03  0.44757444780E+03  0.00000000000E+00 0. -1.
          1    1    1    2  502    0 -0.34424471010E+02 -0.14932588604E+02  0.65693438053E+03  0.65800517227E+03  0.00000000000E+00 0. -1.
         22    1    3    3    0    0  0.91681095913E+01 -0.63239047858E+02  0.24000151904E+02  0.68258616297E+02  0.00000000000E+00 0. -1.
         22    1    3    3    0    0 -0.45032663318E-01  0.61435056019E+02  0.20810086841E+02  0.64863917939E+02  0.00000000000E+00 0. -1.
</event>
<event>
 7    1  0.6557591E-006  0.1267158E+03  0.7818608E-02  0.1327147E+00
          2   -1    0    0  502    0  0.00000000000E+00  0.00000000000E+00  0.14141774934E+04  0.14141774934E+04  0.00000000000E+00 0. -1.
          1   -1    0    0  501    0 -0.00000000000E+00 -0.00000000000E+00 -0.84919987778E+03  0.84919987778E+03  0.00000000000E+00 0. -1.
         25    2    1    2    0    0  0.60432773863E+02 -0.15914194584E+03 -0.14351340960E+03  0.25534458509E+03  0.12500591714E+03 0.  0.
          2    1    1    2  501    0 -0.28357561280E+02  0.11902596987E+03 -0.64351868196E+03  0.65504780499E+03  0.00000000000E+00 0. -1.
          1    1    1    2  502    0 -0.32075212583E+02  0.40115975975E+02  0.13520097071E+04  0.13529849811E+04  0.00000000000E+00 0. -1.
         22    1    3    3    0    0  0.93895569293E+02 -0.10175083209E+03 -0.12461335216E+03  0.18627425291E+03  0.00000000000E+00 0. -1.
         22    1    3    3    0    0 -0.33462795431E+02 -0.57391113756E+02 -0.18900057440E+02  0.69070332180E+02  0.00000000000E+00 0. -1.
</event>
<event>
 7    1  0.6557591E-006  0.1275808E+03  0.7818608E-02  0.1412964E+00
          2   -1    0    0  502    0  0.00000000000E+00  0.00000000000E+00  0.62823107612E+03  0.62823107612E+03  0.00000000000E+00 0. -1.
          1   -1    0    0  501    0 -0.00000000000E+00 -0.00000000000E+00 -0.47756503871E+03  0.47756503871E+03  0.00000000000E+00 0. -1.
         25    2    1    2    0    0  0.13846843502E+03 -0.43850927926E+02  0.14841176007E+03  0.24238107242E+03  0.12500448937E+03 0.  0.
          2    1    1    2  501    0 -0.12469889244E+03  0.22919029742E+02 -0.42086837919E+03  0.43955123513E+03  0.00000000000E+00 0. -1.
          1    1    1    2  502    0 -0.13769542574E+02  0.20931898184E+02  0.42312265653E+03  0.42386380729E+03  0.00000000000E+00 0. -1.
         22    1    3    3    0    0 -0.36205693142E+01 -0.17045613834E+02 -0.15841471754E+02  0.23550237800E+02  0.00000000000E+00 0.  1.
         22    1    3    3    0    0  0.14208900433E+03 -0.26805314092E+02  0.16425323182E+03  0.21883083462E+03  0.00000000000E+00 0.  1.
</event>
<event>
 7    1  0.6557591E-006  0.7124806E+02  0.7818608E-02  0.1386515E+00
          2   -1    0    0  502    0  0.00000000000E+00  0.00000000000E+00  0.43157904489E+02  0.43157904489E+02  0.00000000000E+00 0. -1.
          1   -1    0    0  501    0 -0.00000000000E+00 -0.00000000000E+00 -0.14289540034E+04  0.14289540034E+04  0.00000000000E+00 0. -1.
         25    2    1    2    0    0  0.98959822769E+01 -0.18757530681E+02 -0.49422941907E+03  0.51023332565E+03  0.12500221002E+03 0.  0.
          2    1    1    2  501    0  0.42007801207E+02 -0.35997746639E+02 -0.88436024732E+03  0.88608890082E+03  0.00000000000E+00 0. -1.
          1    1    1    2  502    0 -0.51903783484E+02  0.54755277320E+02 -0.72064324881E+01  0.75789681379E+02  0.00000000000E+00 0. -1.
         22    1    3    3    0    0 -0.49298623979E+02  0.21715299599E+02 -0.24750541031E+03  0.25329989478E+03  0.00000000000E+00 0.  1.
         22    1    3    3    0    0  0.59194606256E+02 -0.40472830281E+02 -0.24672400875E+03  0.25693343087E+03  0.00000000000E+00 0.  1.
</event>
<event>
 7    1  0.6557591E-006  0.3303792E+02  0.7818608E-02  0.1590818E+00
          2   -1    0    0  502    0  0.00000000000E+00  0.00000000000E+00  0.23763309071E+02  0.23763309071E+02  0.00000000000E+00 0. -1.
          1   -1    0    0  501    0 -0.00000000000E+00 -0.00000000000E+00 -0.62642090561E+03  0.62642090561E+03  0.00000000000E+00 0. -1.
         25    2    1    2    0    0 -0.30538402801E+02  0.31856841102E+02 -0.20698770344E+03  0.24579900208E+03  0.12500315068E+03 0.  0.
          2    1    1    2  501    0 -0.12374921503E+01 -0.28441468108E+02 -0.33127415597E+03  0.33249513516E+03  0.00000000000E+00 0. -1.
          1    1    1    2  502    0  0.31775894951E+02 -0.34153729935E+01 -0.64395737127E+02  0.71890077429E+02  0.00000000000E+00 0. -1.
         22    1    3    3    0    0  0.48895832153E+02  0.87860444808E+01 -0.83731422343E+02  0.97359889417E+02  0.00000000000E+00 0. -1.
         22    1    3    3    0    0 -0.79434234954E+02  0.23070796621E+02 -0.12325628110E+03  0.14843911267E+03  0.00000000000E+00 0. -1.
</event>
<event>
 7    1  0.6557591E-006  0.2387278E+03  0.7818608E-02  0.1175487E+00
          2   -1    0    0  502    0  0.00000000000E+00  0.00000000000E+00  0.11915064459E+04  0.11915064459E+04  0.00000000000E+00 0. -1.
          1   -1    0    0  501    0 -0.00000000000E+00 -0.00000000000E+00 -0.67920845071E+03  0.67920845071E+03  0.00000000000E+00 0. -1.
         25    2    1    2    0    0  0.10203567065E+03 -0.11952375425E+03  0.17037297080E+03  0.26334184479E+03  0.12499908850E+03 0.  0.
          2    1    1    2  501    0  0.29064892109E+02 -0.12088808092E+03 -0.60706419018E+03  0.61966573817E+03  0.00000000000E+00 0. -1.
          1    1    1    2  502    0 -0.13110056276E+03  0.24041183518E+03  0.94898921453E+03  0.98770731361E+03  0.00000000000E+00 0. -1.
         22    1    3    3    0    0  0.11436625565E+03 -0.41811715355E+02  0.95849217188E+02  0.15496752049E+03  0.00000000000E+00 0. -1.
         22    1    3    3    0    0 -0.12330584995E+02 -0.77712038898E+02  0.74523753611E+02  0.10837432430E+03  0.00000000000E+00 0. -1.
</event>
<event>
 7    1  0.6557591E-006  0.5052127E+02  0.7818608E-02  0.1455753E+00
          2   -1    0    0  502    0  0.00000000000E+00  0.00000000000E+00  0.43183568555E+03  0.43183568555E+03  0.00000000000E+00 0. -1.
          1   -1    0    0  501    0 -0.00000000000E+00 -0.00000000000E+00 -0.27431062431E+03  0.27431062431E+03  0.00000000000E+00 0. -1.
         25    2    1    2    0    0  0.31294527216E+02  0.39657953870E+02  0.40500879322E+03  0.42686064435E+03  0.12500314547E+03 0.  0.
          2    1    1    2  501    0  0.13617852497E+02 -0.48799426753E+02 -0.22018494194E+03  0.22593857266E+03  0.00000000000E+00 0. -1.
          1    1    1    2  502    0 -0.44912379713E+02  0.91414728828E+01 -0.27298790043E+02  0.53347092853E+02  0.00000000000E+00 0. -1.
         22    1    3    3    0    0  0.47374202160E+02  0.52563856346E+02  0.39922309455E+03  0.40544586969E+03  0.00000000000E+00 0.  1.
         22    1    3    3    0    0 -0.16079674944E+02 -0.12905902476E+02  0.57856986689E+01  0.21414774669E+02  0.00000000000E+00 0.  1.
</event>
<event>
 7    1  0.6557591E-006  0.3937449E+03  0.7818608E-02  0.1200970E+00
          2   -1    0    0  502    0  0.00000000000E+00  0.00000000000E+00  0.80511654357E+03  0.80511654357E+03  0.00000000000E+00 0. -1.
          1   -1    0    0  501    0 -0.00000000000E+00 -0.00000000000E+00 -0.76108122387E+03  0.76108122387E+03  0.00000000000E+00 0. -1.
         25    2    1    2    0    0 -0.40014279833E+03  0.17676616284E+03  0.34849221162E+03  0.57309104784E+03  0.12500396865E+03 0.  0.
          2    1    1    2  501    0  0.36523454731E+03 -0.13191331139E+03 -0.58759574761E+03  0.70431964255E+03  0.00000000000E+00 0. -1.
          1    1    1    2  502    0  0.34908251022E+02 -0.44852851449E+02  0.28313885569E+03  0.28878707706E+03  0.00000000000E+00 0. -1.
         22    1    3    3    0    0  0.37034708103E+00  0.26607608444E+02  0.13817483460E+02  0.29983742816E+02  0.00000000000E+00 0. -1.
         22    1    3    3    0    0 -0.40051314541E+03  0.15015855439E+03  0.33467472816E+03  0.54310730502E+03  0.00000000000E+00 0. -1.
</event>
<event>
 7    1  0.6557591E-006  0.3073092E+03  0.7818608E-02  0.1242037E+00
          2   -1    0    0  502    0  0.00000000000E+00  0.00000000000E+00  0.24034496562E+03  0.24034496562E+03  0.00000000000E+00 0. -1.
          1   -1    0    0  501    0 -0.00000000000E+00 -0.00000000000E+00 -0.18529725131E+04  0.18529725131E+04  0.00000000000E+00 0. -1.
         25    2    1    2    0    0  0.13739438841E+03 -0.23729729414E+03 -0.23280229412E+03  0.38079927583E+03  0.12499582612E+03 0.  0.
          2    1    1    2  501    0 -0.17991856785E+03  0.25815351188E+03 -0.15263920749E+04  0.15584885926E+04  0.00000000000E+00 0. -1.
          1    1    1    2  502    0  0.42524179434E+02 -0.20856217738E+02  0.14656682160E+03  0.15402961030E+03  0.00000000000E+00 0. -1.
         22    1    3    3    0    0  0.47762395195E+02 -0.69134561318E+02 -0.15228187107E+03  0.17392700256E+03  0.00000000000E+00 0.  1.
         22    1    3    3    0    0  0.89631993220E+02 -0.16816273282E+03 -0.80520423058E+02  0.20687227327E+03  0.00000000000E+00 0.  1.
</event>
<event>
 7    1  0.6557591E-006  0.1651902E+03  0.7818608E-02  0.1208542E+00
          2   -1    0    0  502    0  0.00000000000E+00  0.00000000000E+00  0.28107074618E+04  0.28107074618E+04  0.00000000000E+00 0. -1.
          1   -1    0    0  501    0 -0.00000000000E+00 -0.00000000000E+00 -0.78750832822E+03  0.78750832822E+03  0.00000000000E+00 0. -1.
         25    2    1    2    0    0  0.65425644450E+02  0.11772998546E+02  0.11521455194E+03  0.18253367958E+03  0.12500013103E+03 0.  0.
          2    1    1    2  501    0 -0.15562500092E+03  0.74567521457E+02 -0.74248392940E+03  0.76227412496E+03  0.00000000000E+00 0. -1.
          1    1    1    2  502    0  0.90199356467E+02 -0.86340520003E+02  0.26504685110E+04  0.26534079855E+04  0.00000000000E+00 0. -1.
         22    1    3    3    0    0 -0.16426780811E+02 -0.40764472124E+02  0.42038107622E+02  0.60817627443E+02  0.00000000000E+00 0. -1.
         22    1    3    3    0    0  0.81852425261E+02  0.52537470669E+02  0.73176444316E+02  0.12171605214E+03  0.00000000000E+00 0. -1.
</event>
<event>
 7    1  0.6557591E-006  0.4369566E+03  0.7818608E-02  0.1033893E+00
          2   -1    0    0  502    0  0.00000000000E+00  0.00000000000E+00  0.20759686245E+03  0.20759686245E+03  0.00000000000E+00 0. -1.
          1   -1    0    0  501    0 -0.00000000000E+00 -0.00000000000E+00 -0.45425870045E+04  0.45425870045E+04  0.00000000000E+00 0. -1.
         25    2    1    2    0    0  0.14406482481E+03  0.48835447523E+03 -0.62908750384E+03  0.81891486786E+03  0.12500282430E+03 0.  0.
          2    1    1    2  501    0 -0.40936035682E+03 -0.10634021711E+03 -0.32587604144E+04  0.32860924488E+04  0.00000000000E+00 0. -1.
          1    1    1    2  502    0  0.26529553202E+03 -0.38201425812E+03 -0.44714222374E+03  0.64517655023E+03  0.00000000000E+00 0. -1.
         22    1    3    3    0    0  0.55562348923E+02  0.21722791125E+03 -0.18287396547E+03  0.28934067687E+03  0.00000000000E+00 0. -1.
         22    1    3    3    0    0  0.88502475886E+02  0.27112656397E+03 -0.44621353838E+03  0.52957419099E+03  0.00000000000E+00 0. -1.
</event>
<event>
 7    1  0.6557591E-006  0.6517964E+02  0.7818608E-02  0.1433592E+00
          2   -1    0    0  502    0  0.00000000000E+00  0.00000000000E+00  0.29647694581E+04  0.29647694581E+04  0.00000000000E+00 0. -1.
          1   -1    0    0  501    0 -0.00000000000E+00 -0.00000000000E+00 -0.31404701624E+02  0.31404701624E+02  0.00000000000E+00 0. -1.
         25    2    1    2    0    0  0.74901989348E+02 -0.23086299902E+02  0.10450939107E+04  0.10554516263E+04  0.12495426397E+03 0.  0.
          2    1    1    2  501    0 -0.32658849811E+02 -0.26214372193E+02 -0.85906078697E+01  0.42750348818E+02  0.00000000000E+00 0. -1.
          1    1    1    2  502    0 -0.42243139536E+02  0.49300672095E+02  0.18968614537E+04  0.18979721846E+04  0.00000000000E+00 0. -1.
         22    1    3    3    0    0 -0.14364911804E+02 -0.35399251833E+02  0.11895118089E+03  0.12493534791E+03  0.00000000000E+00 0. -1.
         22    1    3    3    0    0  0.89266901152E+02  0.12312951931E+02  0.92614272978E+03  0.93051627839E+03  0.00000000000E+00 0. -1.
</event>
<event>
 7    1  0.6557591E-006  0.2613679E+03  0.7818608E-02  0.1180963E+00
          2   -1    0    0  502    0  0.00000000000E+00  0.00000000000E+00  0.16376300863E+04  0.16376300863E+04  0.00000000000E+00 0. -1.
          1   -1    0    0  501    0 -0.00000000000E+00 -0.00000000000E+00 -0.91813821203E+03  0.91813821203E+03  0.00000000000E+00 0. -1.
         25    2    1    2    0    0 -0.23367439544E+03  0.20637366974E+03 -0.21337232830E+03  0.39792785680E+03  0.12500005634E+03 0.  0.
          2    1    1    2  501    0  0.22982219940E+03 -0.99679941857E+02 -0.58491979223E+03  0.63630613504E+03  0.00000000000E+00 0. -1.
          1    1    1    2  502    0  0.38521960414E+01 -0.10669372789E+03  0.15177839948E+04  0.15215343065E+04  0.00000000000E+00 0. -1.
         22    1    3    3    0    0 -0.20605484497E+02 -0.12884991157E+02  0.13277915734E+01  0.24338693863E+02  0.00000000000E+00 0. -1.
         22    1    3    3    0    0 -0.21306891095E+03  0.21925866090E+03 -0.21470011987E+03  0.37358916294E+03  0.00000000000E+00 0. -1.
</event>
<event>
 7    1  0.6557591E-006  0.2752725E+03  0.7818608E-02  0.1184492E+00
          2   -1    0    0  502    0  0.00000000000E+00  0.00000000000E+00  0.13452283439E+04  0.13452283439E+04  0.00000000000E+00 0. -1.
          1   -1    0    0  501    0 -0.00000000000E+00 -0.00000000000E+00 -0.65326367694E+03  0.65326367694E+03  0.00000000000E+00 0. -1.
         25    2    1    2    0    0  0.69458105771E+02 -0.20313863258E+03 -0.44125691922E+03  0.50638197242E+03  0.12500120290E+03 0.  0.
          2    1    1    2  501    0 -0.63095597001E+02 -0.74262647826E+02 -0.15019681308E+03  0.17903931937E+03  0.00000000000E+00 0. -1.
          1    1    1    2  502    0 -0.63625087699E+01  0.27740128041E+03  0.12834183992E+04  0.13130707290E+04  0.00000000000E+00 0. -1.
         22    1    3    3    0    0 -0.18554243146E+01 -0.58978527384E+02 -0.24815036330E+03  0.25506962206E+03  0.00000000000E+00 0.  1.
         22    1    3    3    0    0  0.71313530085E+02 -0.14416010520E+03 -0.19310655593E+03  0.25131235037E+03  0.00000000000E+00 0.  1.
</event>
<event>
 7    1  0.6557591E-006  0.8294488E+02  0.7818608E-02  0.1488781E+00
          2   -1    0    0  502    0  0.00000000000E+00  0.00000000000E+00  0.64933163963E+02  0.64933163963E+02  0.00000000000E+00 0. -1.
          1   -1    0    0  501    0 -0.00000000000E+00 -0.00000000000E+00 -0.13840800912E+04  0.13840800912E+04  0.00000000000E+00 0. -1.
         25    2    1    2    0    0  0.59964584413E+02 -0.18837017359E+02 -0.34902513181E+03  0.37602384744E+03  0.12499922643E+03 0.  0.
          2    1    1    2  501    0  0.21293034188E+02 -0.57333613936E+01 -0.98632018314E+03  0.98656665685E+03  0.00000000000E+00 0. -1.
          1    1    1    2  502    0 -0.81257618601E+02  0.24570378752E+02  0.16198387761E+02  0.86422750817E+02  0.00000000000E+00 0. -1.
         22    1    3    3    0    0  0.19043156055E+00 -0.21545511383E+02  0.36268270322E+00  0.21549405182E+02  0.00000000000E+00 0.  1.
         22    1    3    3    0    0  0.59774152853E+02  0.27084940244E+01 -0.34938781451E+03  0.35447444226E+03  0.00000000000E+00 0.  1.
</event>
<event>
 7    1  0.6557591E-006  0.2319583E+03  0.7818608E-02  0.1343933E+00
          2   -1    0    0  502    0  0.00000000000E+00  0.00000000000E+00  0.86838539443E+03  0.86838539443E+03  0.00000000000E+00 0. -1.
          1   -1    0    0  501    0 -0.00000000000E+00 -0.00000000000E+00 -0.42625165823E+03  0.42625165823E+03  0.00000000000E+00 0. -1.
         25    2    1    2    0    0 -0.38483927897E+02 -0.20997462878E+03 -0.67266966771E+02  0.25635435878E+03  0.12498941958E+03 0.  0.
          2    1    1    2  501    0  0.96047309002E+01 -0.22252801403E+02 -0.24614005032E+03  0.24733047204E+03  0.00000000000E+00 0. -1.
          1    1    1    2  502    0  0.28879196996E+02  0.23222743018E+03  0.75554075330E+03  0.79095222185E+03  0.00000000000E+00 0. -1.
         22    1    3    3    0    0 -0.58093378766E+02 -0.20709767766E+03 -0.83505216316E+02  0.23073233389E+03  0.00000000000E+00 0. -1.
         22    1    3    3    0    0  0.19609450869E+02 -0.28769511199E+01  0.16238249545E+02  0.25622024889E+02  0.00000000000E+00 0. -1.
</event>
<event>
 7    1  0.6557591E-006  0.5474783E+02  0.7818608E-02  0.1423134E+00
          2   -1    0    0  502    0  0.00000000000E+00  0.00000000000E+00  0.79172598178E+03  0.79172598178E+03  0.00000000000E+00 0. -1.
          1   -1    0    0  501    0 -0.00000000000E+00 -0.00000000000E+00 -0.87265834220E+03  0.87265834220E+03  0.00000000000E+00 0. -1.
         25    2    1    2    0    0  0.30894397440E+02 -0.99668741181E+02  0.39339917060E+02  0.16752268017E+03  0.12501158960E+03 0.  0.
          2    1    1    2  501    0 -0.28683160891E+02  0.45730390420E+02 -0.80660491615E+03  0.80840922996E+03  0.00000000000E+00 0. -1.
          1    1    1    2  502    0 -0.22112365485E+01  0.53938350761E+02  0.68633263866E+03  0.68845241385E+03  0.00000000000E+00 0. -1.
         22    1    3    3    0    0 -0.38665243644E+02 -0.58187712437E+02  0.49892439394E+02  0.85849091162E+02  0.00000000000E+00 0.  1.
         22    1    3    3    0    0  0.69559641084E+02 -0.41481028744E+02 -0.10552522334E+02  0.81673589006E+02  0.00000000000E+00 0.  1.
</event>
<event>
 7    1  0.6557591E-006  0.9846272E+02  0.7818608E-02  0.1340095E+00
          2   -1    0    0  502    0  0.00000000000E+00  0.00000000000E+00  0.24206514827E+03  0.24206514827E+03  0.00000000000E+00 0. -1.
          1   -1    0    0  501    0 -0.00000000000E+00 -0.00000000000E+00 -0.13774934819E+04  0.13774934819E+04  0.00000000000E+00 0. -1.
         25    2    1    2    0    0  0.31321424625E+01 -0.44230077889E+02 -0.15256039586E+03  0.20216803961E+03  0.12502452459E+03 0.  0.
          2    1    1    2  501    0 -0.10098783860E+02  0.10283939759E+03 -0.11938472768E+04  0.11983109978E+04  0.00000000000E+00 0. -1.
          1    1    1    2  502    0  0.69666413973E+01 -0.58609319706E+02  0.21097933905E+03  0.21907959274E+03  0.00000000000E+00 0. -1.
         22    1    3    3    0    0  0.50589045795E+02 -0.42178915311E+02 -0.33319401277E+02  0.73813921131E+02  0.00000000000E+00 0.  1.
         22    1    3    3    0    0 -0.47456903333E+02 -0.20511625778E+01 -0.11924099458E+03  0.12835411848E+03  0.00000000000E+00 0.  1.
</event>
<event>
 7    1  0.6557591E-006  0.1533729E+03  0.7818608E-02  0.1242612E+00
          2   -1    0    0  502    0  0.00000000000E+00  0.00000000000E+00  0.33787761765E+04  0.33787761765E+04  0.00000000000E+00 0. -1.
          1   -1    0    0  501    0 -0.00000000000E+00 -0.00000000000E+00 -0.74749035880E+03  0.74749035880E+03  0.00000000000E+00 0. -1.
         25    2    1    2    0    0 -0.15967020421E+03  0.29276888590E+02 -0.48064310589E+02  0.21044615368E+03  0.12500278128E+03 0.  0.
          2    1    1    2  501    0  0.11014117525E+03 -0.10958124848E+03 -0.60778623459E+03  0.62733024434E+03  0.00000000000E+00 0. -1.
          1    1    1    2  502    0  0.49529028964E+02  0.80304359886E+02  0.32871363629E+04  0.32884901373E+04  0.00000000000E+00 0. -1.
         22    1    3    3    0    0 -0.58850987828E+02 -0.41532791843E+02  0.12591650696E+02  0.73122918664E+02  0.00000000000E+00 0. -1.
         22    1    3    3    0    0 -0.10081921638E+03  0.70809680433E+02 -0.60655961286E+02  0.13732323501E+03  0.00000000000E+00 0. -1.
</event>
<event>
 7    1  0.6557591E-006  0.6481675E+02  0.7818608E-02  0.1395784E+00
          2   -1    0    0  502    0  0.00000000000E+00  0.00000000000E+00  0.57840739376E+03  0.57840739376E+03  0.00000000000E+00 0. -1.
          1   -1    0    0  501    0 -0.00000000000E+00 -0.00000000000E+00 -0.64865702772E+02  0.64865702772E+02  0.00000000000E+00 0. -1.
         25    2    1    2    0    0  0.82014773781E+01 -0.37729304598E+02  0.32065710113E+03  0.34632713854E+03  0.12502298079E+03 0.  0.
          2    1    1    2  501    0 -0.39873434448E+02 -0.39963611782E+02 -0.26280212002E+02  0.62270623766E+02  0.00000000000E+00 0. -1.
          1    1    1    2  502    0  0.31671957070E+02  0.77692916381E+02  0.21916480186E+03  0.23467533423E+03  0.00000000000E+00 0. -1.
         22    1    3    3    0    0  0.17195233279E+02  0.44716073439E+02  0.11575935788E+03  0.12528141206E+03  0.00000000000E+00 0. -1.
         22    1    3    3    0    0 -0.89937559005E+01 -0.82445378038E+02  0.20489774326E+03  0.22104572649E+03  0.00000000000E+00 0. -1.
</event>
<event>
 7    1  0.6557591E-006  0.1539723E+03  0.7818608E-02  0.1248138E+00
          2   -1    0    0  502    0  0.00000000000E+00  0.00000000000E+00  0.53439898126E+03  0.53439898126E+03  0.00000000000E+00 0. -1.
          1   -1    0    0  501    0 -0.00000000000E+00 -0.00000000000E+00 -0.18367220106E+03  0.18367220106E+03  0.00000000000E+00 0. -1.
         25    2    1    2    0    0  0.13109330458E+03 -0.29887284015E+02  0.31768115819E+03  0.36691277014E+03  0.12499983347E+03 0.  0.
          2    1    1    2  501    0  0.78793287684E+02  0.41164932621E+02 -0.73645887279E+02  0.11544111302E+03  0.00000000000E+00 0. -1.
          1    1    1    2  502    0 -0.20988659227E+03 -0.11277648605E+02  0.10669150929E+03  0.23571729917E+03  0.00000000000E+00 0. -1.
         22    1    3    3    0    0 -0.20051035680E+02 -0.24314330561E+02  0.42558425326E+02  0.52957060613E+02  0.00000000000E+00 0.  1.
         22    1    3    3    0    0  0.15114434026E+03 -0.55729534538E+01  0.27512273287E+03  0.31395570952E+03  0.00000000000E+00 0.  1.
</event>
<event>
 7    1  0.6557591E-006  0.6832289E+02  0.7818608E-02  0.1441171E+00
          2   -1    0    0  502    0  0.00000000000E+00  0.00000000000E+00  0.50334338580E+02  0.50334338580E+02  0.00000000000E+00 0. -1.
          1   -1    0    0  501    0 -0.00000000000E+00 -0.00000000000E+00 -0.63524538695E+03  0.63524538695E+03  0.00000000000E+00 0. -1.
         25    2    1    2    0    0 -0.15794413640E+02  0.40060379261E+02 -0.30868553870E+03  0.33580617812E+03  0.12499891989E+03 0.  0.
          2    1    1    2  501    0  0.21015721152E+02  0.31351800375E+02 -0.27559539998E+03  0.27816797158E+03  0.00000000000E+00 0. -1.
          1    1    1    2  502    0 -0.52213075117E+01 -0.71412179636E+02 -0.63010969668E+00  0.71605575835E+02  0.00000000000E+00 0. -1.
         22    1    3    3    0    0  0.14131970721E+02  0.69416961414E+02 -0.26866973021E+03  0.27785221082E+03  0.00000000000E+00 0. -1.
         22    1    3    3    0    0 -0.29926384361E+02 -0.29356582153E+02 -0.40015808490E+02  0.57953967299E+02  0.00000000000E+00 0. -1.
</event>
<event>
 7    1  0.6557591E-006  0.1333882E+03  0.7818608E-02  0.1343007E+00
          2   -1    0    0  502    0  0.00000000000E+00  0.00000000000E+00  0.50867943478E+03  0.50867943478E+03  0.00000000000E+00 0. -1.
          1   -1    0    0  501    0 -0.00000000000E+00 -0.00000000000E+00 -0.22737262914E+03  0.22737262914E+03  0.00000000000E+00 0. -1.
         25    2    1    2    0    0 -0.56363188133E+02  0.12912117578E+03 -0.45141129011E+02  0.19367939911E+03  0.12499960440E+03 0.  0.
          2    1    1    2  501    0  0.42349166993E+02  0.33997834131E+01 -0.93010808469E+02  0.10225468676E+03  0.00000000000E+00 0. -1.
          1    1    1    2  502    0  0.14014021140E+02 -0.13252095920E+03  0.41945874313E+03  0.44011797805E+03  0.00000000000E+00 0. -1.
         22    1    3    3    0    0 -0.54129475713E+02  0.37951352871E+02  0.32722996994E+02  0.73763811303E+02  0.00000000000E+00 0. -1.
         22    1    3    3    0    0 -0.22337124198E+01  0.91169822911E+02 -0.77864126005E+02  0.11991558781E+03  0.00000000000E+00 0. -1.
</event>
<event>
 7    1  0.6557591E-006  0.1029530E+03  0.7818608E-02  0.1374038E+00
          2   -1    0    0  502    0  0.00000000000E+00  0.00000000000E+00  0.12408485712E+03  0.12408485712E+03  0.00000000000E+00 0. -1.
          1   -1    0    0  501    0 -0.00000000000E+00 -0.00000000000E+00 -0.92265146386E+03  0.92265146386E+03  0.00000000000E+00 0. -1.
         25    2    1    2    0    0  0.10443686847E+03 -0.27879381484E+02 -0.28612073732E+03  0.33041609937E+03  0.12500161195E+03 0.  0.
          2    1    1    2  501    0 -0.81517211276E+02  0.63531791521E+02 -0.60540043470E+03  0.61415879918E+03  0.00000000000E+00 0. -1.
          1    1    1    2  502    0 -0.22919657192E+02 -0.35652410037E+02  0.92954565282E+02  0.10216142244E+03  0.00000000000E+00 0. -1.
         22    1    3    3    0    0  0.93193492680E+02  0.12488849199E+00 -0.28540024019E+03  0.30023047776E+03  0.00000000000E+00 0.  1.
         22    1    3    3    0    0  0.11243375788E+02 -0.28004269976E+02 -0.72049713139E+00  0.30185621612E+02  0.00000000000E+00 0.  1.
</event>
<event>
 7    1  0.6557591E-006  0.1689773E+03  0.7818608E-02  0.1225488E+00
          2   -1    0    0  502    0  0.00000000000E+00  0.00000000000E+00  0.36720720820E+04  0.36720720820E+04  0.00000000000E+00 0. -1.
          1   -1    0    0  501    0 -0.00000000000E+00 -0.00000000000E+00 -0.37761029502E+02  0.37761029502E+02  0.00000000000E+00 0. -1.
         25    2    1    2    0    0 -0.54958903088E+02 -0.64100680462E+02  0.38795919800E+03  0.41625381186E+03  0.12500207324E+03 0.  0.
          2    1    1    2  501    0 -0.81649867865E+02 -0.61263949223E+02  0.10387227623E+03  0.14563455004E+03  0.00000000000E+00 0. -1.
          1    1    1    2  502    0  0.13660877095E+03  0.12536462969E+03  0.31424795783E+04  0.31479447496E+04  0.00000000000E+00 0. -1.
         22    1    3    3    0    0 -0.73816999965E+02  0.82859264902E+01  0.22505115982E+03  0.23699289145E+03  0.00000000000E+00 0.  1.
         22    1    3    3    0    0  0.18858096876E+02 -0.72386606952E+02  0.16290803818E+03  0.17926092041E+03  0.00000000000E+00 0.  1.
</event>
<event>
 7    1  0.7328078E-006  0.9364383E+02  0.7818608E-02  0.1303502E+00
          2   -1    0    0  502    0  0.00000000000E+00  0.00000000000E+00  0.83341958757E+03  0.83341958757E+03  0.00000000000E+00 0. -1.
          1   -1    0    0  501    0 -0.00000000000E+00 -0.00000000000E+00 -0.31809543499E+04  0.31809543499E+04  0.00000000000E+00 0. -1.
         25    2    1    2    0    0  0.56727639251E+02  0.10574255784E+03 -0.84019465398E+03  0.85787507911E+03  0.12499232452E+03 0.  0.
          2    1    1    2  501    0 -0.90402418739E+02 -0.26627939424E+02 -0.23287223104E+04  0.23306285082E+04  0.00000000000E+00 0. -1.
          1    1    1    2  502    0  0.33674779488E+02 -0.79114618413E+02  0.82138220197E+03  0.82587035020E+03  0.00000000000E+00 0. -1.
         22    1    3    3    0    0  0.84880850036E+02  0.26614798484E+02 -0.45847919549E+03  0.46702920561E+03  0.00000000000E+00 0. -1.
         22    1    3    3    0    0 -0.28153210784E+02  0.79127759353E+02 -0.38171545849E+03  0.39084587350E+03  0.00000000000E+00 0. -1.
</event>
<event>
 7    1  0.6557591E-006  0.1211804E+03  0.7818608E-02  0.1256545E+00
          2   -1    0    0  502    0  0.00000000000E+00  0.00000000000E+00  0.57879333256E+03  0.57879333256E+03  0.00000000000E+00 0. -1.
          1   -1    0    0  501    0 -0.00000000000E+00 -0.00000000000E+00 -0.23387930637E+04  0.23387930637E+04  0.00000000000E+00 0. -1.
         25    2    1    2    0    0  0.72081656388E+01  0.42532317033E+02 -0.43372572086E+03  0.45343808487E+03  0.12500856065E+03 0.  0.
          2    1    1    2  501    0  0.10336088153E+03  0.10471669862E+02 -0.18871592090E+04  0.18900166687E+04  0.00000000000E+00 0. -1.
          1    1    1    2  502    0 -0.11056904717E+03 -0.53003986894E+02  0.56088519882E+03  0.57413164263E+03  0.00000000000E+00 0. -1.
         22    1    3    3    0    0  0.23853964014E+02 -0.40794125896E+02 -0.15193662282E+03  0.15911602578E+03  0.00000000000E+00 0. -1.
         22    1    3    3    0    0 -0.16645798375E+02  0.83326442929E+02 -0.28178909804E+03  0.29432205909E+03  0.00000000000E+00 0. -1.
</event>
<event>
 7    1  0.6557591E-006  0.3537250E+02  0.7818608E-02  0.1588894E+00
          2   -1    0    0  502    0  0.00000000000E+00  0.00000000000E+00  0.32705638028E+02  0.32705638028E+02  0.00000000000E+00 0. -1.
          1   -1    0    0  501    0 -0.00000000000E+00 -0.00000000000E+00 -0.54876986175E+03  0.54876986175E+03  0.00000000000E+00 0. -1.
         25    2    1    2    0    0  0.58900231771E+02  0.10577321525E+02 -0.27874471964E+03  0.31129568715E+03  0.12500107632E+03 0.  0.
          2    1    1    2  501    0 -0.26896849288E+02  0.58221292799E+00 -0.23464386746E+03  0.23618112543E+03  0.00000000000E+00 0. -1.
          1    1    1    2  502    0 -0.32003382483E+02 -0.11159534453E+02 -0.26756366240E+01  0.33998687194E+02  0.00000000000E+00 0. -1.
         22    1    3    3    0    0  0.85173837109E+02 -0.14293482595E+02 -0.11623912897E+03  0.14481167521E+03  0.00000000000E+00 0.  1.
         22    1    3    3    0    0 -0.26273605338E+02  0.24870804120E+02 -0.16250559067E+03  0.16648401195E+03  0.00000000000E+00 0.  1.
</event>
<event>
 7    1  0.6557591E-006  0.6764911E+02  0.7818608E-02  0.1417124E+00
          2   -1    0    0  502    0  0.00000000000E+00  0.00000000000E+00  0.27208122204E+03  0.27208122204E+03  0.00000000000E+00 0. -1.
          1   -1    0    0  501    0 -0.00000000000E+00 -0.00000000000E+00 -0.76120545260E+03  0.76120545260E+03  0.00000000000E+00 0. -1.
         25    2    1    2    0    0 -0.25129695786E+02 -0.61429562667E+02 -0.22866400753E+03  0.26891898575E+03  0.12500039911E+03 0.  0.
          2    1    1    2  501    0 -0.20358615074E+02  0.66344919930E+02 -0.50795783021E+03  0.51267658312E+03  0.00000000000E+00 0. -1.
          1    1    1    2  502    0  0.45488310860E+02 -0.49153572629E+01  0.24749760718E+03  0.25169110577E+03  0.00000000000E+00 0. -1.
         22    1    3    3    0    0  0.35855326313E+02  0.15769196550E+02 -0.39094014935E+02  0.55340888939E+02  0.00000000000E+00 0.  1.
         22    1    3    3    0    0 -0.60985022098E+02 -0.77198759217E+02 -0.18956999259E+03  0.21357809681E+03  0.00000000000E+00 0.  1.
</event>
<event>
 7    1  0.6557591E-006  0.3979742E+02  0.7818608E-02  0.1554941E+00
          2   -1    0    0  502    0  0.00000000000E+00  0.00000000000E+00  0.22004088377E+04  0.22004088377E+04  0.00000000000E+00 0. -1.
          1   -1    0    0  501    0 -0.00000000000E+00 -0.00000000000E+00 -0.24304634075E+03  0.24304634075E+03  0.00000000000E+00 0. -1.
         25    2    1    2    0    0 -0.51622773248E+02  0.32102832792E+02  0.68367004010E+03  0.69765761259E+03  0.12500367228E+03 0.  0.
          2    1    1    2  501    0  0.39420192342E+02 -0.51840471760E+01 -0.23423248763E+03  0.23758300480E+03  0.00000000000E+00 0. -1.
          1    1    1    2  502    0  0.12202580907E+02 -0.26918785616E+02  0.15079249445E+04  0.15082145610E+04  0.00000000000E+00 0. -1.
         22    1    3    3    0    0 -0.67491971919E+01 -0.31968101158E+02  0.53763738942E+02  0.62913041409E+02  0.00000000000E+00 0. -1.
         22    1    3    3    0    0 -0.44873576057E+02  0.64070933950E+02  0.62990630116E+03  0.63474457118E+03  0.00000000000E+00 0. -1.
</event>
<event>
 7    1  0.6557591E-006  0.6575640E+02  0.7818608E-02  0.1455108E+00
          2   -1    0    0  502    0  0.00000000000E+00  0.00000000000E+00  0.30403763361E+03  0.30403763361E+03  0.00000000000E+00 0. -1.
          1   -1    0    0  501    0 -0.00000000000E+00 -0.00000000000E+00 -0.36266662497E+03  0.36266662497E+03  0.00000000000E+00 0. -1.
         25    2    1    2    0    0  0.35844854156E+02  0.43779501044E+02 -0.12972767463E+02  0.13781937620E+03  0.12499755790E+03 0.  0.
          2    1    1    2  501    0 -0.85515666162E+01 -0.66292713879E+02 -0.28204796302E+03  0.28986015015E+03  0.00000000000E+00 0. -1.
          1    1    1    2  502    0 -0.27293287540E+02  0.22513212835E+02  0.23639173911E+03  0.23902473223E+03  0.00000000000E+00 0. -1.
         22    1    3    3    0    0  0.45235601712E+02 -0.29836651980E+02 -0.29628941950E+02  0.61760502464E+02  0.00000000000E+00 0.  1.
         22    1    3    3    0    0 -0.93907475555E+01  0.73616153024E+02  0.16656174486E+02  0.76058873737E+02  0.00000000000E+00 0.  1.
</event>
<event>
 7    1  0.6557591E-006  0.6639832E+02  0.7818608E-02  0.1477059E+00
          2   -1    0    0  502    0  0.00000000000E+00  0.00000000000E+00  0.10036085919E+04  0.10036085919E+04  0.00000000000E+00 0. -1.
          1   -1    0    0  501    0 -0.00000000000E+00 -0.00000000000E+00 -0.21765045281E+03  0.21765045281E+03  0.00000000000E+00 0. -1.
         25    2    1    2    0    0 -0.34771755633E+02  0.20129088691E+02 -0.10783949326E+03  0.16990634493E+03  0.12499821815E+03 0.  0.
          2    1    1    2  501    0 -0.11851251475E+02  0.27466873324E+02 -0.74751313663E+02  0.80514844507E+02  0.00000000000E+00 0. -1.
          1    1    1    2  502    0  0.46623007108E+02 -0.47595962015E+02  0.96854894604E+03  0.97083785529E+03  0.00000000000E+00 0. -1.
         22    1    3    3    0    0 -0.32069773213E+02 -0.40965734192E+02 -0.93644633747E+02  0.10712599667E+03  0.00000000000E+00 0.  1.
         22    1    3    3    0    0 -0.27019824194E+01  0.61094822883E+02 -0.14194859512E+02  0.62780348268E+02  0.00000000000E+00 0.  1.
</event>
<event>
 7    1  0.6557591E-006  0.8703015E+02  0.7818608E-02  0.1320404E+00
          2   -1    0    0  502    0  0.00000000000E+00  0.00000000000E+00  0.30860850539E+04  0.30860850539E+04  0.00000000000E+00 0. -1.
          1   -1    0    0  501    0 -0.00000000000E+00 -0.00000000000E+00 -0.11194042617E+03  0.11194042617E+03  0.00000000000E+00 0. -1.
         25    2    1    2    0    0  0.26227638455E+01 -0.58694002843E+02  0.29115103716E+03  0.32225141745E+03  0.12500073900E+03 0.  0.
          2    1    1    2  501    0 -0.80382192919E+02  0.42639313198E+02 -0.74216990971E+02  0.11742048253E+03  0.00000000000E+00 0. -1.
          1    1    1    2  502    0  0.77759429074E+02  0.16054689645E+02  0.27572105815E+04  0.27583535801E+04  0.00000000000E+00 0. -1.
         22    1    3    3    0    0 -0.37655891926E+02  0.18249051696E+02  0.46068095329E+02  0.62235548457E+02  0.00000000000E+00 0.  1.
         22    1    3    3    0    0  0.40278655771E+02 -0.76943054539E+02  0.24508294183E+03  0.26001586899E+03  0.00000000000E+00 0.  1.
</event>
<event>
 7    1  0.6557591E-006  0.6434848E+02  0.7818608E-02  0.1470405E+00
          2   -1    0    0  502    0  0.00000000000E+00  0.00000000000E+00  0.52280588660E+03  0.52280588660E+03  0.00000000000E+00 0. -1.
          1   -1    0    0  501    0 -0.00000000000E+00 -0.00000000000E+00 -0.79016161470E+03  0.79016161470E+03  0.00000000000E+00 0. -1.
         25    2    1    2    0    0 -0.80654657913E+02  0.23802895917E+02 -0.13663514972E+03  0.20338759943E+03  0.12500239903E+03 0.  0.
          2    1    1    2  501    0  0.16612093479E+02 -0.27777791370E+02 -0.61762159003E+03  0.61846907426E+03  0.00000000000E+00 0. -1.
          1    1    1    2  502    0  0.64042564433E+02  0.39748954524E+01  0.48690101165E+03  0.49111082762E+03  0.00000000000E+00 0. -1.
         22    1    3    3    0    0  0.15889444135E+02 -0.34415149090E+02 -0.35459377730E+02  0.51906111305E+02  0.00000000000E+00 0.  1.
         22    1    3    3    0    0 -0.96544102048E+02  0.58218045007E+02 -0.10117577199E+03  0.15148148812E+03  0.00000000000E+00 0.  1.
</event>
<event>
 7    1  0.6557591E-006  0.8998859E+02  0.7818608E-02  0.1408509E+00
          2   -1    0    0  502    0  0.00000000000E+00  0.00000000000E+00  0.40120734922E+03  0.40120734922E+03  0.00000000000E+00 0. -1.
          1   -1    0    0  501    0 -0.00000000000E+00 -0.00000000000E+00 -0.37770094679E+03  0.37770094679E+03  0.00000000000E+00 0. -1.
         25    2    1    2    0    0  0.50891462930E+02 -0.78485062873E+02  0.20115427326E+03  0.25463455695E+03  0.12500347934E+03 0.  0.
          2    1    1    2  501    0 -0.15570015265E+02  0.88727311125E+02 -0.34312814973E+03  0.35475609685E+03  0.00000000000E+00 0. -1.
          1    1    1    2  502    0 -0.35321447665E+02 -0.10242248252E+02  0.16548027890E+03  0.16951764220E+03  0.00000000000E+00 0. -1.
         22    1    3    3    0    0  0.54046381703E+02 -0.72378085346E+02  0.21825215392E+03  0.23620669191E+03  0.00000000000E+00 0.  1.
         22    1    3    3    0    0 -0.31549187734E+01 -0.61069775268E+01 -0.17097880654E+02  0.18427865038E+02  0.00000000000E+00 0.  1.
</event>
<event>
 7    1  0.6557591E-006  0.6001014E+02  0.7818608E-02  0.1468259E+00
          2   -1    0    0  502    0  0.00000000000E+00  0.00000000000E+00  0.12988616436E+04  0.12988616436E+04  0.00000000000E+00 0. -1.
          1   -1    0    0  501    0 -0.00000000000E+00 -0.00000000000E+00 -0.11622048710E+04  0.11622048710E+04  0.00000000000E+00 0. -1.
         25    2    1    2    0    0 -0.27498239606E+02 -0.12014556932E+02  0.42771914825E+03  0.44661940734E+03  0.12499888990E+03 0.  0.
          2    1    1    2  501    0 -0.35243863865E+02  0.13663412438E+00 -0.11513016701E+04  0.11518409978E+04  0.00000000000E+00 0. -1.
          1    1    1    2  502    0  0.62742103470E+02  0.11877922808E+02  0.86023929437E+03  0.86260610952E+03  0.00000000000E+00 0. -1.
         22    1    3    3    0    0 -0.16820204459E+02  0.28846466274E+02  0.38535816478E+03  0.38680221439E+03  0.00000000000E+00 0.  1.
         22    1    3    3    0    0 -0.10678035147E+02 -0.40861023206E+02  0.42360983468E+02  0.59817192950E+02  0.00000000000E+00 0.  1.
</event>
<event>
 7    1  0.6557591E-006  0.1543887E+03  0.7818608E-02  0.1222144E+00
          2   -1    0    0  502    0  0.00000000000E+00  0.00000000000E+00  0.15886163490E+04  0.15886163490E+04  0.00000000000E+00 0. -1.
          1   -1    0    0  501    0 -0.00000000000E+00 -0.00000000000E+00 -0.36543117396E+03  0.36543117396E+03  0.00000000000E+00 0. -1.
         25    2    1    2    0    0 -0.10039444916E+03 -0.96980772970E+02  0.10212194424E+04  0.10382669669E+04  0.12499931681E+03 0.  0.
          2    1    1    2  501    0  0.15525677842E+03 -0.48739481527E+01 -0.33353144121E+03  0.36792885846E+03  0.00000000000E+00 0. -1.
          1    1    1    2  502    0 -0.54862329258E+02  0.10185472112E+03  0.53549717379E+03  0.54785169757E+03  0.00000000000E+00 0. -1.
         22    1    3    3    0    0 -0.47429767628E+02  0.24518187051E+02  0.35481747509E+03  0.35881215836E+03  0.00000000000E+00 0. -1.
         22    1    3    3    0    0 -0.52964681532E+02 -0.12149896002E+03  0.66640196736E+03  0.67945480856E+03  0.00000000000E+00 0. -1.
</event>
<event>
 7    1  0.6557591E-006  0.2642549E+02  0.7818608E-02  0.1655852E+00
          2   -1    0    0  502    0  0.00000000000E+00  0.00000000000E+00  0.20170374320E+04  0.20170374320E+04  0.00000000000E+00 0. -1.
          1   -1    0    0  501    0 -0.00000000000E+00 -0.00000000000E+00 -0.17950525598E+03  0.17950525598E+03  0.00000000000E+00 0. -1.
         25    2    1    2    0    0  0.12684596510E+02 -0.14357876037E+01  0.45284210853E+03  0.46995087611E+03  0.12499956088E+03 0.  0.
          2    1    1    2  501    0 -0.13283787310E+02 -0.22898722498E+02 -0.16983014423E+03  0.17188102975E+03  0.00000000000E+00 0. -1.
          1    1    1    2  502    0  0.59919080021E+00  0.24334510101E+02  0.15545202117E+04  0.15547107821E+04  0.00000000000E+00 0. -1.
         22    1    3    3    0    0  0.60195496780E+02 -0.32921994745E+02  0.25342319434E+03  0.26254651207E+03  0.00000000000E+00 0. -1.
         22    1    3    3    0    0 -0.47510900270E+02  0.31486207141E+02  0.19941891419E+03  0.20740436404E+03  0.00000000000E+00 0. -1.
</event>
<event>
 7    1  0.6557591E-006  0.1380733E+03  0.7818608E-02  0.1348300E+00
          2   -1    0    0  502    0  0.00000000000E+00  0.00000000000E+00  0.91855557257E+03  0.91855557257E+03  0.00000000000E+00 0. -1.
          1   -1    0    0  501    0 -0.00000000000E+00 -0.00000000000E+00 -0.23247259233E+03  0.23247259233E+03  0.00000000000E+00 0. -1.
         25    2    1    2    0    0  0.11468919365E+03  0.61221413234E+02  0.37166300642E+03  0.41309924088E+03  0.12496367430E+03 0.  0.
          2    1    1    2  501    0 -0.99114619875E+02 -0.97216314210E+02 -0.18815209575E+03  0.23382884928E+03  0.00000000000E+00 0. -1.
          1    1    1    2  502    0 -0.15574573770E+02  0.35994900976E+02  0.50257206957E+03  0.50410007474E+03  0.00000000000E+00 0. -1.
         22    1    3    3    0    0  0.54853933266E+02 -0.24834169592E+02  0.63097011294E+02  0.87217674862E+02  0.00000000000E+00 0.  1.
         22    1    3    3    0    0  0.59835260379E+02  0.86055582826E+02  0.30856599513E+03  0.32588156602E+03  0.00000000000E+00 0.  1.
</event>
<event>
 7    1  0.6557591E-006  0.5447122E+02  0.7818608E-02  0.1506146E+00
          2   -1    0    0  502    0  0.00000000000E+00  0.00000000000E+00  0.64820752018E+03  0.64820752018E+03  0.00000000000E+00 0. -1.
          1   -1    0    0  501    0 -0.00000000000E+00 -0.00000000000E+00 -0.90482336257E+02  0.90482336257E+02  0.00000000000E+00 0. -1.
         25    2    1    2    0    0  0.32799630589E+02  0.24319126537E+02  0.60482225326E+02  0.14474460105E+03  0.12500265706E+03 0.  0.
          2    1    1    2  501    0  0.22152185023E+02 -0.19916396843E+02 -0.42220919029E+02  0.51671928241E+02  0.00000000000E+00 0. -1.
          1    1    1    2  502    0 -0.54951815611E+02 -0.44027296937E+01  0.53946387763E+03  0.54227332714E+03  0.00000000000E+00 0. -1.
         22    1    3    3    0    0  0.64249147589E+02  0.36732387391E+02  0.77270698636E+02  0.10699524343E+03  0.00000000000E+00 0. -1.
         22    1    3    3    0    0 -0.31449517001E+02 -0.12413260855E+02 -0.16788473311E+02  0.37749357620E+02  0.00000000000E+00 0. -1.
</event>
<event>
 7    1  0.6557591E-006  0.7186323E+02  0.7818608E-02  0.1477015E+00
          2   -1    0    0  502    0  0.00000000000E+00  0.00000000000E+00  0.77139715637E+03  0.77139715637E+03  0.00000000000E+00 0. -1.
          1   -1    0    0  501    0 -0.00000000000E+00 -0.00000000000E+00 -0.25300393979E+02  0.25300393979E+02  0.00000000000E+00 0. -1.
         25    2    1    2    0    0 -0.46522010231E+02 -0.21401457370E+02  0.41350686332E+03  0.43501202324E+03  0.12500085814E+03 0.  0.
          2    1    1    2  501    0  0.64716475396E+02  0.42219345371E+02  0.94837347837E+02  0.12233077232E+03  0.00000000000E+00 0. -1.
          1    1    1    2  502    0 -0.18194465165E+02 -0.20817888001E+02  0.23775255123E+03  0.23935475479E+03  0.00000000000E+00 0. -1.
         22    1    3    3    0    0 -0.57853098586E+02 -0.60227892911E+02  0.34916703843E+03  0.35901532116E+03  0.00000000000E+00 0. -1.
         22    1    3    3    0    0  0.11331088355E+02  0.38826435541E+02  0.64339824894E+02  0.75996702083E+02  0.00000000000E+00 0. -1.
</event>
<event>
 7    1  0.6557591E-006  0.6163500E+02  0.7818608E-02  0.1430533E+00
          2   -1    0    0  502    0  0.00000000000E+00  0.00000000000E+00  0.19233604877E+03  0.19233604877E+03  0.00000000000E+00 0. -1.
          1   -1    0    0  501    0 -0.00000000000E+00 -0.00000000000E+00 -0.27007419180E+03  0.27007419180E+03  0.00000000000E+00 0. -1.
         25    2    1    2    0    0  0.34032444560E+02  0.34481884218E+02 -0.29400953933E+02  0.13722727283E+03  0.12497880098E+03 0.  0.
          2    1    1    2  501    0 -0.34354622464E+02  0.29561468784E+02 -0.17632988805E+03  0.18206139058E+03  0.00000000000E+00 0. -1.
          1    1    1    2  502    0  0.32217790389E+00 -0.64043353002E+02  0.12799269896E+03  0.14312157716E+03  0.00000000000E+00 0. -1.
         22    1    3    3    0    0  0.68205323463E+02  0.24301826727E+02  0.21090549788E+02  0.75414562395E+02  0.00000000000E+00 0.  1.
         22    1    3    3    0    0 -0.34172878903E+02  0.10180057491E+02 -0.50491503721E+02  0.61812710433E+02  0.00000000000E+00 0.  1.
</event>
<event>
 7    1  0.6557591E-006  0.7880303E+02  0.7818608E-02  0.1343877E+00
          2   -1    0    0  502    0  0.00000000000E+00  0.00000000000E+00  0.40529602151E+03  0.40529602151E+03  0.00000000000E+00 0. -1.
          1   -1    0    0  501    0 -0.00000000000E+00 -0.00000000000E+00 -0.79876480211E+03  0.79876480211E+03  0.00000000000E+00 0. -1.
         25    2    1    2    0    0  0.61264194826E+02 -0.92239977218E+02 -0.14757080221E+03  0.22285999894E+03  0.12501168945E+03 0.  0.
          2    1    1    2  501    0 -0.69975190046E+02  0.14076157295E+02 -0.60722897490E+03  0.61140959543E+03  0.00000000000E+00 0. -1.
          1    1    1    2  502    0  0.87109952206E+01  0.78163819923E+02  0.36133099652E+03  0.36979122925E+03  0.00000000000E+00 0. -1.
         22    1    3    3    0    0 -0.34100625246E+02 -0.29764242567E+02 -0.14278715165E+02  0.47462032031E+02  0.00000000000E+00 0. -1.
         22    1    3    3    0    0  0.95364820072E+02 -0.62475734651E+02 -0.13329208705E+03  0.17539796691E+03  0.00000000000E+00 0. -1.
</event>
<event>
 7    1  0.6557591E-006  0.1093161E+03  0.7818608E-02  0.1403843E+00
          2   -1    0    0  502    0  0.00000000000E+00  0.00000000000E+00  0.18294220361E+04  0.18294220361E+04  0.00000000000E+00 0. -1.
          1   -1    0    0  501    0 -0.00000000000E+00 -0.00000000000E+00 -0.26623467891E+03  0.26623467891E+03  0.00000000000E+00 0. -1.
         25    2    1    2    0    0 -0.13725013807E+03 -0.26202643755E+02  0.10281239491E+04  0.10450780402E+04  0.12500030554E+03 0.  0.
          2    1    1    2  501    0  0.10795915701E+03  0.14880131962E+02 -0.24590880525E+03  0.26897534907E+03  0.00000000000E+00 0. -1.
          1    1    1    2  502    0  0.29290981058E+02  0.11322511793E+02  0.78097221331E+03  0.78160332573E+03  0.00000000000E+00 0. -1.
         22    1    3    3    0    0 -0.16000719132E+03 -0.19524490846E+02  0.82721455689E+03  0.84277365298E+03  0.00000000000E+00 0. -1.
         22    1    3    3    0    0  0.22757053249E+02 -0.66781529086E+01  0.20090939220E+03  0.20230438718E+03  0.00000000000E+00 0. -1.
</event>
<event>
 7    1  0.6557591E-006  0.4682283E+02  0.7818608E-02  0.1586558E+00
          2   -1    0    0  502    0  0.00000000000E+00  0.00000000000E+00  0.46702620126E+02  0.46702620126E+02  0.00000000000E+00 0. -1.
          1   -1    0    0  501    0 -0.00000000000E+00 -0.00000000000E+00 -0.68451642943E+03  0.68451642943E+03  0.00000000000E+00 0. -1.
         25    2    1    2    0    0 -0.24973720712E+02 -0.37573430991E+02 -0.31510599624E+03  0.34198252977E+03  0.12499924944E+03 0.  0.
          2    1    1    2  501    0  0.40786911794E+02  0.24345402225E+02 -0.35101673182E+03  0.35421605949E+03  0.00000000000E+00 0. -1.
          1    1    1    2  502    0 -0.15813191082E+02  0.13228028766E+02  0.28308918763E+02  0.35020460287E+02  0.00000000000E+00 0. -1.
         22    1    3    3    0    0  0.33764924133E+02  0.51886387716E+01 -0.23505522887E+02  0.41466874493E+02  0.00000000000E+00 0. -1.
         22    1    3    3    0    0 -0.58738644844E+02 -0.42762069763E+02 -0.29160047335E+03  0.30051565528E+03  0.00000000000E+00 0. -1.
</event>
<event>
 7    1  0.6557591E-006  0.7700168E+02  0.7818608E-02  0.1391630E+00
          2   -1    0    0  502    0  0.00000000000E+00  0.00000000000E+00  0.64018706912E+03  0.64018706912E+03  0.00000000000E+00 0. -1.
          1   -1    0    0  501    0 -0.00000000000E+00 -0.00000000000E+00 -0.39975115980E+03  0.39975115980E+03  0.00000000000E+00 0. -1.
         25    2    1    2    0    0 -0.47083942594E+02 -0.95007368205E+02 -0.36348837364E+02  0.16790350966E+03  0.12500821139E+03 0.  0.
          2    1    1    2  501    0  0.58873338284E+02  0.47318818801E+02 -0.29175649069E+03  0.30137516559E+03  0.00000000000E+00 0. -1.
          1    1    1    2  502    0 -0.11789395690E+02  0.47688549404E+02  0.56854123738E+03  0.57065955367E+03  0.00000000000E+00 0. -1.
         22    1    3    3    0    0 -0.61164621263E+00 -0.57200357100E+02 -0.76692927424E+02  0.95676852375E+02  0.00000000000E+00 0.  1.
         22    1    3    3    0    0 -0.46472296382E+02 -0.37807011105E+02  0.40344090060E+02  0.72226657284E+02  0.00000000000E+00 0.  1.
</event>
<event>
 7    1  0.6557591E-006  0.9822702E+02  0.7818608E-02  0.1318723E+00
          2   -1    0    0  502    0  0.00000000000E+00  0.00000000000E+00  0.23315270153E+04  0.23315270153E+04  0.00000000000E+00 0. -1.
          1   -1    0    0  501    0 -0.00000000000E+00 -0.00000000000E+00 -0.19147777434E+03  0.19147777434E+03  0.00000000000E+00 0. -1.
         25    2    1    2    0    0 -0.14983615879E+03 -0.51977233665E+02  0.12077684923E+03  0.23529699001E+03  0.12500047559E+03 0.  0.
          2    1    1    2  501    0  0.52717241731E+02  0.48174468153E+02 -0.12353826012E+03  0.14269403867E+03  0.00000000000E+00 0. -1.
          1    1    1    2  502    0  0.97118917057E+02  0.38027655116E+01  0.21428106519E+04  0.21450137610E+04  0.00000000000E+00 0. -1.
         22    1    3    3    0    0 -0.10438704376E+03 -0.88012685062E+02  0.11207638839E+03  0.17664655239E+03  0.00000000000E+00 0. -1.
         22    1    3    3    0    0 -0.45449115029E+02  0.36035451397E+02  0.87004608450E+01  0.58650437622E+02  0.00000000000E+00 0. -1.
</event>
<event>
 7    1  0.6557591E-006  0.2005810E+03  0.7818608E-02  0.1316688E+00
          2   -1    0    0  502    0  0.00000000000E+00  0.00000000000E+00  0.27219220393E+04  0.27219220393E+04  0.00000000000E+00 0. -1.
          1   -1    0    0  501    0 -0.00000000000E+00 -0.00000000000E+00 -0.10617582244E+03  0.10617582244E+03  0.00000000000E+00 0. -1.
         25    2    1    2    0    0 -0.16169628051E+03 -0.82392414443E+02  0.23910177317E+03  0.32515924434E+03  0.12499871662E+03 0.  0.
          2    1    1    2  501    0  0.19725992968E+03  0.80461743172E+02  0.11707543951E+03  0.24308893539E+03  0.00000000000E+00 0. -1.
          1    1    1    2  502    0 -0.35563649171E+02  0.19306712713E+01  0.22595690041E+04  0.22598496820E+04  0.00000000000E+00 0. -1.
         22    1    3    3    0    0 -0.10102311364E+03 -0.65135767136E+02  0.23250178099E+03  0.26173539274E+03  0.00000000000E+00 0. -1.
         22    1    3    3    0    0 -0.60673166871E+02 -0.17256647307E+02  0.65999921765E+01  0.63423851595E+02  0.00000000000E+00 0. -1.
</event>
<event>
 7    1  0.6557591E-006  0.1748997E+03  0.7818608E-02  0.1220206E+00
          2   -1    0    0  502    0  0.00000000000E+00  0.00000000000E+00  0.26405602123E+03  0.26405602123E+03  0.00000000000E+00 0. -1.
          1   -1    0    0  501    0 -0.00000000000E+00 -0.00000000000E+00 -0.26336134186E+04  0.26336134186E+04  0.00000000000E+00 0. -1.
         25    2    1    2    0    0 -0.17881152083E+03  0.91053598116E+02 -0.13681819929E+04  0.13884562208E+04  0.12499757516E+03 0.  0.
          2    1    1    2  501    0  0.43409280416E+01 -0.10412679590E+03 -0.12226736446E+04  0.12271071976E+04  0.00000000000E+00 0. -1.
          1    1    1    2  502    0  0.17447059278E+03  0.13073197783E+02  0.22129824008E+03  0.28210602140E+03  0.00000000000E+00 0. -1.
         22    1    3    3    0    0 -0.25537177707E+02 -0.96849157770E+01 -0.51776093535E+03  0.51848079155E+03  0.00000000000E+00 0.  1.
         22    1    3    3    0    0 -0.15327434312E+03  0.10073851389E+03 -0.85042105752E+03  0.86997542926E+03  0.00000000000E+00 0.  1.
</event>
<event>
 7    1  0.6557591E-006  0.4649590E+02  0.7818608E-02  0.1551974E+00
          2   -1    0    0  502    0  0.00000000000E+00  0.00000000000E+00  0.52976213115E+03  0.52976213115E+03  0.00000000000E+00 0. -1.
          1   -1    0    0  501    0 -0.00000000000E+00 -0.00000000000E+00 -0.15301149689E+03  0.15301149689E+03  0.00000000000E+00 0. -1.
         25    2    1    2    0    0  0.39088685914E+00 -0.29043083394E+02  0.61927259534E+02  0.14249565551E+03  0.12500549140E+03 0.  0.
          2    1    1    2  501    0  0.22798573331E+02 -0.12038778707E+02 -0.10993002786E+03  0.11291287865E+03  0.00000000000E+00 0. -1.
          1    1    1    2  502    0 -0.23189460190E+02  0.41081862101E+02  0.42475340259E+03  0.42736509389E+03  0.00000000000E+00 0. -1.
         22    1    3    3    0    0 -0.16788602092E+02  0.24375230956E+02  0.78575672586E+02  0.83965143760E+02  0.00000000000E+00 0.  1.
         22    1    3    3    0    0  0.17179488951E+02 -0.53418314350E+02 -0.16648413051E+02  0.58530511751E+02  0.00000000000E+00 0.  1.
</event>
<event>
 7    1  0.6557591E-006  0.7348017E+02  0.7818608E-02  0.1369443E+00
          2   -1    0    0  502    0  0.00000000000E+00  0.00000000000E+00  0.10337092150E+04  0.10337092150E+04  0.00000000000E+00 0. -1.
          1   -1    0    0  501    0 -0.00000000000E+00 -0.00000000000E+00 -0.10088182001E+03  0.10088182001E+03  0.00000000000E+00 0. -1.
         25    2    1    2    0    0  0.82787458668E+02 -0.10380682805E+03  0.51677652763E+03  0.54800715773E+03  0.12499697816E+03 0.  0.
          2    1    1    2  501    0 -0.49793226073E+02  0.51693219866E+02 -0.67849720182E+02  0.98768106551E+02  0.00000000000E+00 0. -1.
          1    1    1    2  502    0 -0.32994232596E+02  0.52113608187E+02  0.48390058753E+03  0.48781577071E+03  0.00000000000E+00 0. -1.
         22    1    3    3    0    0  0.68780256080E+02 -0.76636634256E+02  0.50476808664E+03  0.51516474901E+03  0.00000000000E+00 0.  1.
         22    1    3    3    0    0  0.14007202588E+02 -0.27170193797E+02  0.12008440993E+02  0.32842408718E+02  0.00000000000E+00 0.  1.
</event>
<event>
 7    1  0.6557591E-006  0.4436347E+02  0.7818608E-02  0.1499231E+00
          2   -1    0    0  502    0  0.00000000000E+00  0.00000000000E+00  0.49523779288E+03  0.49523779288E+03  0.00000000000E+00 0. -1.
          1   -1    0    0  501    0 -0.00000000000E+00 -0.00000000000E+00 -0.44508836386E+02  0.44508836386E+02  0.00000000000E+00 0. -1.
         25    2    1    2    0    0  0.10719073487E+02  0.42067028530E+02  0.21549778258E+03  0.25290143120E+03  0.12504121793E+03 0.  0.
          2    1    1    2  501    0  0.27271043862E+02 -0.36830476713E+02 -0.26387433067E+01  0.45903777780E+02  0.00000000000E+00 0. -1.
          1    1    1    2  502    0 -0.37990117349E+02 -0.52365518174E+01  0.23786991722E+03  0.24094142029E+03  0.00000000000E+00 0. -1.
         22    1    3    3    0    0  0.10669756322E+02 -0.31271896993E+02  0.97151006643E+01  0.34440650726E+02  0.00000000000E+00 0. -1.
         22    1    3    3    0    0  0.49317165271E-01  0.73338925523E+02  0.20578268191E+03  0.21846078047E+03  0.00000000000E+00 0. -1.
</event>
<event>
 7    1  0.6557591E-006  0.2749902E+02  0.7818608E-02  0.1664796E+00
          2   -1    0    0  502    0  0.00000000000E+00  0.00000000000E+00  0.79893672929E+03  0.79893672929E+03  0.00000000000E+00 0. -1.
          1   -1    0    0  501    0 -0.00000000000E+00 -0.00000000000E+00 -0.30477164498E+03  0.30477164498E+03  0.00000000000E+00 0. -1.
         25    2    1    2    0    0 -0.26543128543E+02  0.36661057025E+02  0.14153210769E+03  0.19417809225E+03  0.12500089291E+03 0.  0.
          2    1    1    2  501    0  0.19792307934E+02 -0.10173496663E+02 -0.27770734658E+03  0.27859756968E+03  0.00000000000E+00 0. -1.
          1    1    1    2  502    0  0.67508206089E+01 -0.26487560362E+02  0.63034032321E+03  0.63093271234E+03  0.00000000000E+00 0. -1.
         22    1    3    3    0    0  0.10574271939E+02 -0.66722120682E+01  0.13631067294E+03  0.13688291785E+03  0.00000000000E+00 0.  1.
         22    1    3    3    0    0 -0.37117400481E+02  0.43333269093E+02  0.52214347436E+01  0.57295174400E+02  0.00000000000E+00 0.  1.
</event>
<event>
 7    1  0.6557591E-006  0.6876894E+02  0.7818608E-02  0.1381936E+00
          2   -1    0    0  502    0  0.00000000000E+00  0.00000000000E+00  0.30512157324E+04  0.30512157324E+04  0.00000000000E+00 0. -1.
          1   -1    0    0  501    0 -0.00000000000E+00 -0.00000000000E+00 -0.89394142318E+01  0.89394142318E+01  0.00000000000E+00 0. -1.
         25    2    1    2    0    0 -0.20714485436E+02 -0.10316717875E+02  0.96857902669E+03  0.97688612477E+03  0.12500258095E+03 0.  0.
          2    1    1    2  501    0 -0.22924229778E+02 -0.54887763708E+02  0.21963020004E+03  0.22754254917E+03  0.00000000000E+00 0. -1.
          1    1    1    2  502    0  0.43638715213E+02  0.65204481584E+02  0.18540670915E+04  0.18557264727E+04  0.00000000000E+00 0. -1.
         22    1    3    3    0    0 -0.92397693633E+01  0.22089804357E+02  0.33511287258E+02  0.41186638223E+02  0.00000000000E+00 0.  1.
         22    1    3    3    0    0 -0.11474716073E+02 -0.32406522233E+02  0.93506773943E+03  0.93569948654E+03  0.00000000000E+00 0.  1.
</event>
<event>
 7    1  0.6557591E-006  0.3821614E+02  0.7818608E-02  0.1525919E+00
          2   -1    0    0  502    0  0.00000000000E+00  0.00000000000E+00  0.18220181211E+04  0.18220181211E+04  0.00000000000E+00 0. -1.
          1   -1    0    0  501    0 -0.00000000000E+00 -0.00000000000E+00 -0.38957591751E+03  0.38957591751E+03  0.00000000000E+00 0. -1.
         25    2    1    2    0    0 -0.42127475203E+01  0.19719965088E+02  0.12051144555E+04  0.12117477249E+04  0.12500029452E+03 0.  0.
          2    1    1    2  501    0 -0.37068630343E+02 -0.28023858819E+01 -0.38455082472E+03  0.38634346573E+03  0.00000000000E+00 0. -1.
          1    1    1    2  502    0  0.41281377864E+02 -0.16917579206E+02  0.61187857280E+03  0.61350284799E+03  0.00000000000E+00 0. -1.
         22    1    3    3    0    0  0.40419154601E+02 -0.30835355838E+02  0.31437341684E+03  0.31845748923E+03  0.00000000000E+00 0.  1.
         22    1    3    3    0    0 -0.44631902122E+02  0.50555320926E+02  0.89074103866E+03  0.89329023566E+03  0.00000000000E+00 0.  1.
</event>
<event>
 7    1  0.6557591E-006  0.1091611E+03  0.7818608E-02  0.1304582E+00
          2   -1    0    0  502    0  0.00000000000E+00  0.00000000000E+00  0.17582017727E+04  0.17582017727E+04  0.00000000000E+00 0. -1.
          1   -1    0    0  501    0 -0.00000000000E+00 -0.00000000000E+00 -0.31175852991E+03  0.31175852991E+03  0.00000000000E+00 0. -1.
         25    2    1    2    0    0 -0.49751074336E+02 -0.36611353987E+01  0.26429049505E+03  0.29658576746E+03  0.12500031351E+03 0.  0.
          2    1    1    2  501    0 -0.64461090766E+02  0.34334046527E+02 -0.28869008623E+03  0.29778519920E+03  0.00000000000E+00 0. -1.
          1    1    1    2  502    0  0.11421216510E+03 -0.30672911128E+02  0.14708428340E+04  0.14755893359E+04  0.00000000000E+00 0. -1.
         22    1    3    3    0    0 -0.38901286517E+02 -0.42907573449E+02  0.24458666094E+03  0.25135036237E+03  0.00000000000E+00 0. -1.
         22    1    3    3    0    0 -0.10849787819E+02  0.39246438050E+02  0.19703834104E+02  0.45235405091E+02  0.00000000000E+00 0. -1.
</event>
<event>
 7    1  0.6557591E-006  0.1489833E+03  0.7818608E-02  0.1301806E+00
          2   -1    0    0  502    0  0.00000000000E+00  0.00000000000E+00  0.98267599130E+03  0.98267599130E+03  0.00000000000E+00 0. -1.
          1   -1    0    0  501    0 -0.00000000000E+00 -0.00000000000E+00 -0.20129833177E+03  0.20129833177E+03  0.00000000000E+00 0. -1.
         25    2    1    2    0    0  0.10378639737E+03 -0.59577192596E+02  0.29121063345E+03  0.33874180007E+03  0.12498526281E+03 0.  0.
          2    1    1    2  501    0 -0.14977301381E+03  0.29602663839E+02 -0.14330236885E+03  0.20938921245E+03  0.00000000000E+00 0. -1.
          1    1    1    2  502    0  0.45986616440E+02  0.29974528757E+02  0.63346939492E+03  0.63584331055E+03  0.00000000000E+00 0. -1.
         22    1    3    3    0    0 -0.18554466943E+02  0.96097231521E+01  0.76350069948E+01  0.22246535784E+02  0.00000000000E+00 0. -1.
         22    1    3    3    0    0  0.12234086431E+03 -0.69186915748E+02  0.28357562646E+03  0.31649526428E+03  0.00000000000E+00 0. -1.
</event>
<event>
 7    1  0.6557591E-006  0.5835831E+02  0.7818608E-02  0.1415847E+00
          2   -1    0    0  502    0  0.00000000000E+00  0.00000000000E+00  0.37726815473E+04  0.37726815473E+04  0.00000000000E+00 0. -1.
          1   -1    0    0  501    0 -0.00000000000E+00 -0.00000000000E+00 -0.22495880287E+03  0.22495880287E+03  0.00000000000E+00 0. -1.
         25    2    1    2    0    0 -0.24795830659E+01  0.80220893276E+02 -0.20911587863E+02  0.15001483442E+03  0.12500246393E+03 0.  0.
          2    1    1    2  501    0 -0.37350208475E+02 -0.44407721534E+02 -0.13325906624E+03  0.14534463369E+03  0.00000000000E+00 0. -1.
          1    1    1    2  502    0  0.39829791541E+02 -0.35813171742E+02  0.37018933985E+04  0.37022808820E+04  0.00000000000E+00 0. -1.
         22    1    3    3    0    0  0.56163787095E+02  0.12914442617E+02 -0.19147206460E+02  0.60727006547E+02  0.00000000000E+00 0.  1.
         22    1    3    3    0    0 -0.58643370161E+02  0.67306450659E+02 -0.17643814026E+01  0.89287827871E+02  0.00000000000E+00 0.  1.
</event>
<event>
 7    1  0.6557591E-006  0.7733273E+02  0.7818608E-02  0.1411366E+00
          2   -1    0    0  502    0  0.00000000000E+00  0.00000000000E+00  0.73678156850E+03  0.73678156850E+03  0.00000000000E+00 0. -1.
          1   -1    0    0  501    0 -0.00000000000E+00 -0.00000000000E+00 -0.64116078072E+02  0.64116078072E+02  0.00000000000E+00 0. -1.
         25    2    1    2    0    0  0.18674734905E+02 -0.57961686549E+02  0.57123264178E+02  0.15031511403E+03  0.12499305326E+03 0.  0.
          2    1    1    2  501    0 -0.25652382355E+02  0.99227381033E+02  0.14161567560E+03  0.17481166278E+03  0.00000000000E+00 0. -1.
          1    1    1    2  502    0  0.69776474504E+01 -0.41265694484E+02  0.47392655065E+03  0.47577086976E+03  0.00000000000E+00 0. -1.
         22    1    3    3    0    0  0.14758522192E+01 -0.35414316805E+02  0.95919839965E+02  0.10225931583E+03  0.00000000000E+00 0. -1.
         22    1    3    3    0    0  0.17198882686E+02 -0.22547369744E+02 -0.38796575788E+02  0.48055798202E+02  0.00000000000E+00 0. -1.
</event>
<event>
 7    1  0.6557591E-006  0.1352574E+03  0.7818608E-02  0.1397424E+00
          2   -1    0    0  502    0  0.00000000000E+00  0.00000000000E+00  0.20201045035E+04  0.20201045035E+04  0.00000000000E+00 0. -1.
          1   -1    0    0  501    0 -0.00000000000E+00 -0.00000000000E+00 -0.13270148189E+03  0.13270148189E+03  0.00000000000E+00 0. -1.
         25    2    1    2    0    0  0.58310955164E+02 -0.96601384390E+02  0.52950204070E+03  0.55563388140E+03  0.12499841637E+03 0.  0.
          2    1    1    2  501    0 -0.81327355591E+02  0.11013848015E+03 -0.80300754257E+02  0.15872250852E+03  0.00000000000E+00 0. -1.
          1    1    1    2  502    0  0.23016400427E+02 -0.13537095760E+02  0.14382017352E+04  0.14384495954E+04  0.00000000000E+00 0. -1.
         22    1    3    3    0    0  0.34444074557E+02  0.79438797775E+00  0.28553453737E+02  0.44747346789E+02  0.00000000000E+00 0.  1.
         22    1    3    3    0    0  0.23866880607E+02 -0.97395772368E+02  0.50094858696E+03  0.51088653461E+03  0.00000000000E+00 0.  1.
</event>
<event>
 7    1  0.6557591E-006  0.4275274E+02  0.7818608E-02  0.1491864E+00
          2   -1    0    0  502    0  0.00000000000E+00  0.00000000000E+00  0.11528971206E+04  0.11528971206E+04  0.00000000000E+00 0. -1.
          1   -1    0    0  501    0 -0.00000000000E+00 -0.00000000000E+00 -0.37436447039E+03  0.37436447039E+03  0.00000000000E+00 0. -1.
         25    2    1    2    0    0 -0.33041935100E+02 -0.15979996579E+02  0.39082549669E+03  0.41196639917E+03  0.12499846167E+03 0.  0.
          2    1    1    2  501    0  0.32839169811E+02 -0.27374911804E+02 -0.36190942684E+03  0.36442589110E+03  0.00000000000E+00 0. -1.
          1    1    1    2  502    0  0.20276528915E+00  0.43354908383E+02  0.74961658035E+03  0.75086930069E+03  0.00000000000E+00 0. -1.
         22    1    3    3    0    0 -0.19190214461E+02  0.51503979793E+02  0.23905870768E+03  0.24529571945E+03  0.00000000000E+00 0.  1.
         22    1    3    3    0    0 -0.13851720640E+02 -0.67483976372E+02  0.15176678901E+03  0.16667067972E+03  0.00000000000E+00 0.  1.
</event>
<event>
 7    1  0.6557591E-006  0.8569281E+02  0.7818608E-02  0.1496768E+00
          2   -1    0    0  502    0  0.00000000000E+00  0.00000000000E+00  0.14802078702E+03  0.14802078702E+03  0.00000000000E+00 0. -1.
          1   -1    0    0  501    0 -0.00000000000E+00 -0.00000000000E+00 -0.12248516261E+04  0.12248516261E+04  0.00000000000E+00 0. -1.
         25    2    1    2    0    0  0.76258991976E+02  0.61733967066E+02  0.30187243093E+02  0.16174451644E+03  0.12499400948E+03 0.  0.
          2    1    1    2  501    0 -0.92873704042E+01 -0.17930904574E+02 -0.11281736224E+04  0.11283543304E+04  0.00000000000E+00 0. -1.
          1    1    1    2  502    0 -0.66971621572E+02 -0.43803062492E+02  0.21155540314E+02  0.82773566225E+02  0.00000000000E+00 0. -1.
         22    1    3    3    0    0  0.72507109475E+02 -0.18674650164E+02  0.31519672279E+02  0.81237388090E+02  0.00000000000E+00 0.  1.
         22    1    3    3    0    0  0.37518825013E+01  0.80408617229E+02 -0.13324291858E+01  0.80507128346E+02  0.00000000000E+00 0.  1.
</event>
<event>
 7    1  0.6557591E-006  0.5221301E+02  0.7818608E-02  0.1526280E+00
          2   -1    0    0  502    0  0.00000000000E+00  0.00000000000E+00  0.12990196084E+04  0.12990196084E+04  0.00000000000E+00 0. -1.
          1   -1    0    0  501    0 -0.00000000000E+00 -0.00000000000E+00 -0.10486801969E+04  0.10486801969E+04  0.00000000000E+00 0. -1.
         25    2    1    2    0    0 -0.55066688400E+02  0.46064828006E+02 -0.23850282405E+02  0.14611145122E+03  0.12500164662E+03 0.  0.
          2    1    1    2  501    0  0.48098009048E+02 -0.19830635091E+02 -0.96284817947E+03  0.96425271027E+03  0.00000000000E+00 0. -1.
          1    1    1    2  502    0  0.69686793516E+01 -0.26234192916E+02  0.12370378734E+04  0.12373356439E+04  0.00000000000E+00 0. -1.
         22    1    3    3    0    0 -0.36552754697E+01 -0.38542998431E+02 -0.26762623595E+02  0.47065505294E+02  0.00000000000E+00 0.  1.
         22    1    3    3    0    0 -0.51411412930E+02  0.84607826438E+02  0.29123411896E+01  0.99045945930E+02  0.00000000000E+00 0.  1.
</event>
<event>
 7    1  0.6557591E-006  0.1021284E+03  0.7818608E-02  0.1353301E+00
          2   -1    0    0  502    0  0.00000000000E+00  0.00000000000E+00  0.22959571139E+03  0.22959571139E+03  0.00000000000E+00 0. -1.
          1   -1    0    0  501    0 -0.00000000000E+00 -0.00000000000E+00 -0.20278168007E+04  0.20278168007E+04  0.00000000000E+00 0. -1.
         25    2    1    2    0    0  0.75378794562E+02  0.29297098137E+02 -0.11217133492E+03  0.18643816240E+03  0.12504598111E+03 0.  0.
          2    1    1    2  501    0 -0.66249724807E+02 -0.79281521969E+02 -0.18737102707E+04  0.18765566243E+04  0.00000000000E+00 0. -1.
          1    1    1    2  502    0 -0.91290697554E+01  0.49984423832E+02  0.18766051633E+03  0.19441772535E+03  0.00000000000E+00 0. -1.
         22    1    3    3    0    0  0.30140308015E+02  0.56622496408E+02 -0.11693527215E+03  0.13337317249E+03  0.00000000000E+00 0.  1.
         22    1    3    3    0    0  0.45238486547E+02 -0.27325398271E+02  0.47639372348E+01  0.53064989906E+02  0.00000000000E+00 0.  1.
</event>
<event>
 7    1  0.6557591E-006  0.1920028E+03  0.7818608E-02  0.1376294E+00
          2   -1    0    0  502    0  0.00000000000E+00  0.00000000000E+00  0.17058948561E+04  0.17058948561E+04  0.00000000000E+00 0. -1.
          1   -1    0    0  501    0 -0.00000000000E+00 -0.00000000000E+00 -0.85470922797E+02  0.85470922797E+02  0.00000000000E+00 0. -1.
         25    2    1    2    0    0 -0.13798798846E+03 -0.14665649663E+03  0.32075489767E+03  0.39881761708E+03  0.12499189715E+03 0.  0.
          2    1    1    2  501    0 -0.57214517956E+01  0.21563115071E+02 -0.36546457462E+02  0.42817595626E+02  0.00000000000E+00 0. -1.
          1    1    1    2  502    0  0.14370944025E+03  0.12509338156E+03  0.13362154931E+04  0.13497305662E+04  0.00000000000E+00 0. -1.
         22    1    3    3    0    0 -0.11073440000E+03 -0.11876184853E+03  0.14153397258E+03  0.21540276090E+03  0.00000000000E+00 0. -1.
         22    1    3    3    0    0 -0.27253588457E+02 -0.27894648100E+02  0.17922092510E+03  0.18341485618E+03  0.00000000000E+00 0. -1.
</event>
<event>
 7    1  0.6557591E-006  0.6741283E+02  0.7818608E-02  0.1374410E+00
          2   -1    0    0  502    0  0.00000000000E+00  0.00000000000E+00  0.81763892474E+03  0.81763892474E+03  0.00000000000E+00 0. -1.
          1   -1    0    0  501    0 -0.00000000000E+00 -0.00000000000E+00 -0.54833712854E+02  0.54833712854E+02  0.00000000000E+00 0. -1.
         25    2    1    2    0    0 -0.14571837538E+02  0.54227730159E+01  0.29260481496E+03  0.31856641385E+03  0.12500094951E+03 0.  0.
          2    1    1    2  501    0  0.65222580601E+02  0.34562151357E+02 -0.53402541262E+01  0.74007064804E+02  0.00000000000E+00 0. -1.
          1    1    1    2  502    0 -0.50650743064E+02 -0.39984924373E+02  0.47554065105E+03  0.47989915894E+03  0.00000000000E+00 0. -1.
         22    1    3    3    0    0  0.53248798312E+02  0.18146497778E+02  0.14831436820E+03  0.15862497193E+03  0.00000000000E+00 0.  1.
         22    1    3    3    0    0 -0.67820635849E+02 -0.12723724762E+02  0.14429044676E+03  0.15994144192E+03  0.00000000000E+00 0.  1.
</event>
<event>
 7    1  0.6557591E-006  0.6966176E+02  0.7818608E-02  0.1479390E+00
          2   -1    0    0  502    0  0.00000000000E+00  0.00000000000E+00  0.25818390184E+02  0.25818390184E+02  0.00000000000E+00 0. -1.
          1   -1    0    0  501    0 -0.00000000000E+00 -0.00000000000E+00 -0.19656355887E+04  0.19656355887E+04  0.00000000000E+00 0. -1.
         25    2    1    2    0    0  0.24995983796E+02  0.57571720319E+02 -0.44460646798E+03  0.46608953817E+03  0.12500097613E+03 0.  0.
          2    1    1    2  501    0 -0.14317978102E+00 -0.70569358425E+02 -0.14956506720E+04  0.14973145920E+04  0.00000000000E+00 0. -1.
          1    1    1    2  502    0 -0.24852804015E+02  0.12997638106E+02  0.43994144753E+00  0.28049848703E+02  0.00000000000E+00 0. -1.
         22    1    3    3    0    0 -0.33162239503E+02  0.22740536781E+02 -0.43274443736E+02  0.59072359210E+02  0.00000000000E+00 0. -1.
         22    1    3    3    0    0  0.58158223299E+02  0.34831183538E+02 -0.40133202424E+03  0.40701717896E+03  0.00000000000E+00 0. -1.
</event>
<event>
 7    1  0.6557591E-006  0.1362344E+03  0.7818608E-02  0.1358029E+00
          2   -1    0    0  502    0  0.00000000000E+00  0.00000000000E+00  0.15695919125E+03  0.15695919125E+03  0.00000000000E+00 0. -1.
          1   -1    0    0  501    0 -0.00000000000E+00 -0.00000000000E+00 -0.81346241665E+03  0.81346241665E+03  0.00000000000E+00 0. -1.
         25    2    1    2    0    0 -0.16298611410E+03  0.61036250528E+01 -0.28242582097E+03  0.34927075441E+03  0.12499595155E+03 0.  0.
          2    1    1    2  501    0  0.12931255916E+03  0.82307947000E+01 -0.48621912824E+03  0.50318835897E+03  0.00000000000E+00 0. -1.
          1    1    1    2  502    0  0.33673554945E+02 -0.14334419753E+02  0.11214172382E+03  0.11796249452E+03  0.00000000000E+00 0. -1.
         22    1    3    3    0    0 -0.11330834378E+03  0.12617313167E+02 -0.27617184947E+03  0.29877896145E+03  0.00000000000E+00 0.  1.
         22    1    3    3    0    0 -0.49677770320E+02 -0.65136881144E+01 -0.62539715000E+01  0.50491792960E+02  0.00000000000E+00 0.  1.
</event>
<event>
 7    1  0.6557591E-006  0.2834076E+02  0.7818608E-02  0.1627885E+00
          2   -1    0    0  502    0  0.00000000000E+00  0.00000000000E+00  0.11555991685E+03  0.11555991685E+03  0.00000000000E+00 0. -1.
          1   -1    0    0  501    0 -0.00000000000E+00 -0.00000000000E+00 -0.94246650899E+03  0.94246650899E+03  0.00000000000E+00 0. -1.
         25    2    1    2    0    0  0.11626306683E+02  0.65726775876E+01 -0.52302176862E+03  0.53791779359E+03  0.12500164443E+03 0.  0.
          2    1    1    2  501    0 -0.15603012398E+02  0.21571440033E+02 -0.40968895984E+03  0.41055307189E+03  0.00000000000E+00 0. -1.
          1    1    1    2  502    0  0.39767057150E+01 -0.28144117620E+02  0.10580413632E+03  0.10955556037E+03  0.00000000000E+00 0. -1.
         22    1    3    3    0    0 -0.50826848960E+02  0.25178801167E+02 -0.17878152743E+03  0.18756378956E+03  0.00000000000E+00 0.  1.
         22    1    3    3    0    0  0.62453155644E+02 -0.18606123580E+02 -0.34424024119E+03  0.35035400403E+03  0.00000000000E+00 0.  1.
</event>
<event>
 7    1  0.6557591E-006  0.1432964E+03  0.7818608E-02  0.1232748E+00
          2   -1    0    0  502    0  0.00000000000E+00  0.00000000000E+00  0.57852585828E+03  0.57852585828E+03  0.00000000000E+00 0. -1.
          1   -1    0    0  501    0 -0.00000000000E+00 -0.00000000000E+00 -0.36388155113E+03  0.36388155113E+03  0.00000000000E+00 0. -1.
         25    2    1    2    0    0  0.15763599504E+03  0.99076716106E+02  0.83356880831E+02  0.23924662429E+03  0.12500110017E+03 0.  0.
          2    1    1    2  501    0 -0.16662758658E+02 -0.11041716376E+03 -0.26222162440E+03  0.28500838213E+03  0.00000000000E+00 0. -1.
          1    1    1    2  502    0 -0.14097323639E+03  0.11340447653E+02  0.39350905072E+03  0.41815240300E+03  0.00000000000E+00 0. -1.
         22    1    3    3    0    0 -0.20696768052E+01 -0.11183316608E+02 -0.17240067167E+02  0.20653572290E+02  0.00000000000E+00 0.  1.
         22    1    3    3    0    0  0.15970567185E+03  0.11026003271E+03  0.10059694800E+03  0.21859305200E+03  0.00000000000E+00 0.  1.
</event>
<event>
 7    1  0.6557591E-006  0.7942031E+02  0.7818608E-02  0.1423399E+00
          2   -1    0    0  502    0  0.00000000000E+00  0.00000000000E+00  0.37478601250E+02  0.37478601250E+02  0.00000000000E+00 0. -1.
          1   -1    0    0  501    0 -0.00000000000E+00 -0.00000000000E+00 -0.21283961963E+04  0.21283961963E+04  0.00000000000E+00 0. -1.
         25    2    1    2    0    0 -0.42043024382E+01 -0.72166166618E+02 -0.28994453245E+03  0.32391174346E+03  0.12500141556E+03 0.  0.
          2    1    1    2  501    0  0.41189916394E+02  0.68822679026E+02 -0.18029888083E+04  0.18047719560E+04  0.00000000000E+00 0. -1.
          1    1    1    2  502    0 -0.36985613956E+02  0.33434875922E+01  0.20157456496E+01  0.37191098121E+02  0.00000000000E+00 0. -1.
         22    1    3    3    0    0  0.54201344329E+02 -0.29036055275E+02 -0.74701627630E+02  0.96753353449E+02  0.00000000000E+00 0.  1.
         22    1    3    3    0    0 -0.58405646767E+02 -0.43130111343E+02 -0.21524290482E+03  0.22715839001E+03  0.00000000000E+00 0.  1.
</event>
<event>
 7    1  0.6557591E-006  0.5048459E+02  0.7818608E-02  0.1505026E+00
          2   -1    0    0  502    0  0.00000000000E+00  0.00000000000E+00  0.69312211109E+03  0.69312211109E+03  0.00000000000E+00 0. -1.
          1   -1    0    0  501    0 -0.00000000000E+00 -0.00000000000E+00 -0.39753555076E+03  0.39753555076E+03  0.00000000000E+00 0. -1.
         25    2    1    2    0    0 -0.74437523410E+02 -0.14337023693E+02  0.52519513163E+03  0.54516175533E+03  0.12499967219E+03 0.  0.
          2    1    1    2  501    0  0.43828533764E+02  0.24922493124E+02 -0.38422744570E+03  0.38752135562E+03  0.00000000000E+00 0. -1.
          1    1    1    2  502    0  0.30608989646E+02 -0.10585469431E+02  0.15461887441E+03  0.15797455090E+03  0.00000000000E+00 0. -1.
         22    1    3    3    0    0 -0.52026638747E+02  0.47810152438E+02  0.36676315298E+03  0.37350741920E+03  0.00000000000E+00 0.  1.
         22    1    3    3    0    0 -0.22410884663E+02 -0.62147176132E+02  0.15843197865E+03  0.17165433613E+03  0.00000000000E+00 0.  1.
</event>
<event>
 7    1  0.6557591E-006  0.1131257E+03  0.7818608E-02  0.1380536E+00
          2   -1    0    0  502    0  0.00000000000E+00  0.00000000000E+00  0.77435598542E+03  0.77435598542E+03  0.00000000000E+00 0. -1.
          1   -1    0    0  501    0 -0.00000000000E+00 -0.00000000000E+00 -0.94760035500E+03  0.94760035500E+03  0.00000000000E+00 0. -1.
         25    2    1    2    0    0  0.11945132535E+03  0.48504468377E+02 -0.56872444544E+03  0.59640006116E+03  0.12499694205E+03 0.  0.
          2    1    1    2  501    0 -0.10455221085E+03 -0.15102885727E+02 -0.35694207294E+03  0.37224575939E+03  0.00000000000E+00 0. -1.
          1    1    1    2  502    0 -0.14899114500E+02 -0.33401582650E+02  0.75242214880E+03  0.75331051987E+03  0.00000000000E+00 0. -1.
         22    1    3    3    0    0 -0.60463548783E+01 -0.22764350780E+01  0.41944342805E+01  0.77028464162E+01  0.00000000000E+00 0. -1.
         22    1    3    3    0    0  0.12549768022E+03  0.50780903455E+02 -0.57291887973E+03  0.58869721474E+03  0.00000000000E+00 0. -1.
</event>
<event>
 7    1  0.6557591E-006  0.1153314E+03  0.7818608E-02  0.1252879E+00
          2   -1    0    0  502    0  0.00000000000E+00  0.00000000000E+00  0.25040918466E+03  0.25040918466E+03  0.00000000000E+00 0. -1.
          1   -1    0    0  501    0 -0.00000000000E+00 -0.00000000000E+00 -0.25785282441E+04  0.25785282441E+04  0.00000000000E+00 0. -1.
         25    2    1    2    0    0 -0.18354369286E+03 -0.69402427437E+02 -0.18273217726E+03  0.29583920664E+03  0.12499921381E+03 0.  0.
          2    1    1    2  501    0  0.11242359040E+03 -0.18664430903E+02 -0.23211996039E+04  0.23239954874E+04  0.00000000000E+00 0. -1.
          1    1    1    2  502    0  0.71120102462E+02  0.88066858340E+02  0.17581272172E+03  0.20910273464E+03  0.00000000000E+00 0. -1.
         22    1    3    3    0    0 -0.73741392078E+01 -0.34433255295E+01 -0.82097525199E+02  0.82499927658E+02  0.00000000000E+00 0.  1.
         22    1    3    3    0    0 -0.17616955365E+03 -0.65959101907E+02 -0.10063465206E+03  0.21333927898E+03  0.00000000000E+00 0.  1.
</event>
<event>
 7    1  0.6557591E-006  0.5741931E+02  0.7818608E-02  0.1446100E+00
          2   -1    0    0  502    0  0.00000000000E+00  0.00000000000E+00  0.17022441392E+02  0.17022441392E+02  0.00000000000E+00 0. -1.
          1   -1    0    0  501    0 -0.00000000000E+00 -0.00000000000E+00 -0.29045691854E+04  0.29045691854E+04  0.00000000000E+00 0. -1.
         25    2    1    2    0    0 -0.76027794405E+02  0.45591842643E+02 -0.10173243815E+04  0.10288011991E+04  0.12499667426E+03 0.  0.
          2    1    1    2  501    0  0.32737512384E+02 -0.44933540751E+02 -0.18379497972E+04  0.18387904244E+04  0.00000000000E+00 0. -1.
          1    1    1    2  502    0  0.43290282021E+02 -0.65830189225E+00 -0.32272565334E+02  0.54000003260E+02  0.00000000000E+00 0. -1.
         22    1    3    3    0    0  0.22660008862E+01  0.70500509623E+02 -0.42702848135E+03  0.43281494949E+03  0.00000000000E+00 0.  1.
         22    1    3    3    0    0 -0.78293795291E+02 -0.24908666980E+02 -0.59029590012E+03  0.59598624965E+03  0.00000000000E+00 0.  1.
</event>
<event>
 7    1  0.6557591E-006  0.1582598E+03  0.7818608E-02  0.1273112E+00
          2   -1    0    0  502    0  0.00000000000E+00  0.00000000000E+00  0.15776642127E+04  0.15776642127E+04  0.00000000000E+00 0. -1.
          1   -1    0    0  501    0 -0.00000000000E+00 -0.00000000000E+00 -0.34071261918E+03  0.34071261918E+03  0.00000000000E+00 0. -1.
         25    2    1    2    0    0 -0.19100286277E+02 -0.15480555217E+03  0.20392654895E+03  0.28555279411E+03  0.12499912375E+03 0.  0.
          2    1    1    2  501    0 -0.65055618276E+02  0.18672368950E+02 -0.29120024187E+03  0.29896232488E+03  0.00000000000E+00 0. -1.
          1    1    1    2  502    0  0.84155904553E+02  0.13613318322E+03  0.13242252864E+04  0.13338617128E+04  0.00000000000E+00 0. -1.
         22    1    3    3    0    0 -0.59070117921E+02 -0.26053896760E+02  0.75780341541E+02  0.99552722372E+02  0.00000000000E+00 0.  1.
         22    1    3    3    0    0  0.39969831645E+02 -0.12875165541E+03  0.12814620741E+03  0.18600007174E+03  0.00000000000E+00 0.  1.
</event>
<event>
 7    1  0.6557591E-006  0.1396123E+03  0.7818608E-02  0.1329540E+00
          2   -1    0    0  502    0  0.00000000000E+00  0.00000000000E+00  0.27156566613E+03  0.27156566613E+03  0.00000000000E+00 0. -1.
          1   -1    0    0  501    0 -0.00000000000E+00 -0.00000000000E+00 -0.42570908820E+03  0.42570908820E+03  0.00000000000E+00 0. -1.
         25    2    1    2    0    0 -0.37828517557E+02 -0.10513508411E+03 -0.48661636132E+02  0.17457742040E+03  0.12499975293E+03 0.  0.
          2    1    1    2  501    0  0.19103242270E+02  0.14676182235E+03 -0.29377569291E+03  0.32895003285E+03  0.00000000000E+00 0. -1.
          1    1    1    2  502    0  0.18725275287E+02 -0.41626738244E+02  0.18829390697E+03  0.19374730107E+03  0.00000000000E+00 0. -1.
         22    1    3    3    0    0 -0.10641772316E+02 -0.44205600396E+02  0.42076452059E+02  0.61950062488E+02  0.00000000000E+00 0. -1.
         22    1    3    3    0    0 -0.27186745242E+02 -0.60929483712E+02 -0.90738088191E+02  0.11262735791E+03  0.00000000000E+00 0. -1.
</event>
<event>
 7    1  0.6557591E-006  0.6652157E+02  0.7818608E-02  0.1397871E+00
          2   -1    0    0  502    0  0.00000000000E+00  0.00000000000E+00  0.18036169532E+04  0.18036169532E+04  0.00000000000E+00 0. -1.
          1   -1    0    0  501    0 -0.00000000000E+00 -0.00000000000E+00 -0.80303244872E+03  0.80303244872E+03  0.00000000000E+00 0. -1.
         25    2    1    2    0    0 -0.77337220513E+02 -0.82090668795E+02 -0.26636416637E+02  0.17045150920E+03  0.12499717884E+03 0.  0.
          2    1    1    2  501    0  0.57441760907E+02  0.31780999543E+02 -0.70253531742E+03  0.70559581919E+03  0.00000000000E+00 0. -1.
          1    1    1    2  502    0  0.19895459607E+02  0.50309669253E+02  0.17297562385E+04  0.17306020735E+04  0.00000000000E+00 0. -1.
         22    1    3    3    0    0 -0.44294550321E+02 -0.99409378796E+02 -0.56537990500E+02  0.12264084210E+03  0.00000000000E+00 0. -1.
         22    1    3    3    0    0 -0.33042670192E+02  0.17318710001E+02  0.29901573863E+02  0.47810667105E+02  0.00000000000E+00 0. -1.
</event>
<event>
 7    1  0.6557591E-006  0.6914059E+02  0.7818608E-02  0.1389518E+00
          2   -1    0    0  502    0  0.00000000000E+00  0.00000000000E+00  0.15452007284E+04  0.15452007284E+04  0.00000000000E+00 0. -1.
          1   -1    0    0  501    0 -0.00000000000E+00 -0.00000000000E+00 -0.54573581465E+03  0.54573581465E+03  0.00000000000E+00 0. -1.
         25    2    1    2    0    0 -0.35950552629E+02  0.86833595468E+02  0.26693081793E+03  0.30936954622E+03  0.12499975612E+03 0.  0.
          2    1    1    2  501    0  0.58881629773E+02 -0.36133486341E+02 -0.52162206277E+03  0.52617701539E+03  0.00000000000E+00 0. -1.
          1    1    1    2  502    0 -0.22931077144E+02 -0.50700109127E+02  0.12541561586E+04  0.12553899814E+04  0.00000000000E+00 0. -1.
         22    1    3    3    0    0 -0.49461420306E+02 -0.16034397469E+02  0.10268779063E+03  0.11510133078E+03  0.00000000000E+00 0.  1.
         22    1    3    3    0    0  0.13510867678E+02  0.10286799294E+03  0.16424302730E+03  0.19426821545E+03  0.00000000000E+00 0.  1.
</event>
<event>
 7    1  0.6557591E-006  0.3669276E+03  0.7818608E-02  0.1154836E+00
          2   -1    0    0  502    0  0.00000000000E+00  0.00000000000E+00  0.13244446165E+04  0.13244446165E+04  0.00000000000E+00 0. -1.
          1   -1    0    0  501    0 -0.00000000000E+00 -0.00000000000E+00 -0.18739237836E+04  0.18739237836E+04  0.00000000000E+00 0. -1.
         25    2    1    2    0    0  0.27707120600E+03  0.16256369059E+03 -0.65057533651E+03  0.73625332054E+03  0.12500110736E+03 0.  0.
          2    1    1    2  501    0 -0.18624558244E+02  0.10094694812E+03 -0.11516044823E+04  0.11561704218E+04  0.00000000000E+00 0. -1.
          1    1    1    2  502    0 -0.25844664776E+03 -0.26351063872E+03  0.12527006517E+04  0.13059446578E+04  0.00000000000E+00 0. -1.
         22    1    3    3    0    0  0.28072734607E+03  0.17102674238E+03 -0.59364302562E+03  0.67857942152E+03  0.00000000000E+00 0.  1.
         22    1    3    3    0    0 -0.36561400619E+01 -0.84630517897E+01 -0.56932310886E+02  0.57673899023E+02  0.00000000000E+00 0.  1.
</event>
<event>
 7    1  0.6557591E-006  0.4557669E+02  0.7818608E-02  0.1517470E+00
          2   -1    0    0  502    0  0.00000000000E+00  0.00000000000E+00  0.13415733118E+04  0.13415733118E+04  0.00000000000E+00 0. -1.
          1   -1    0    0  501    0 -0.00000000000E+00 -0.00000000000E+00 -0.11230176736E+03  0.11230176736E+03  0.00000000000E+00 0. -1.
         25    2    1    2    0    0 -0.11356464618E+02  0.54987310879E+02  0.14168993767E+03  0.19711224169E+03  0.12499849496E+03 0.  0.
          2    1    1    2  501    0  0.30111351575E+02 -0.13449258765E+02 -0.80915173733E+02  0.87377579477E+02  0.00000000000E+00 0. -1.
          1    1    1    2  502    0 -0.18754886958E+02 -0.41538052114E+02  0.11684967805E+04  0.11693852580E+04  0.00000000000E+00 0. -1.
         22    1    3    3    0    0  0.14267477331E+02 -0.37145248537E+02  0.56068750292E+02  0.68753437423E+02  0.00000000000E+00 0. -1.
         22    1    3    3    0    0 -0.25623941949E+02  0.92132559416E+02  0.85621187376E+02  0.12835880427E+03  0.00000000000E+00 0. -1.
</event>
<event>
 7    1  0.6557591E-006  0.7470999E+02  0.7818608E-02  0.1409325E+00
          2   -1    0    0  502    0  0.00000000000E+00  0.00000000000E+00  0.27175086128E+04  0.27175086128E+04  0.00000000000E+00 0. -1.
          1   -1    0    0  501    0 -0.00000000000E+00 -0.00000000000E+00 -0.25411458672E+03  0.25411458672E+03  0.00000000000E+00 0. -1.
         25    2    1    2    0    0 -0.98004342979E+02 -0.39563853585E+02  0.25105041094E+03  0.29970182599E+03  0.12499890366E+03 0.  0.
          2    1    1    2  501    0  0.42866555174E+02 -0.99928908596E+01 -0.22711278243E+03  0.23133874592E+03  0.00000000000E+00 0. -1.
          1    1    1    2  502    0  0.55137787804E+02  0.49556744445E+02  0.24394563976E+04  0.24405826276E+04  0.00000000000E+00 0. -1.
         22    1    3    3    0    0 -0.12526927420E+03 -0.41657549151E+02  0.17733511884E+03  0.22107801074E+03  0.00000000000E+00 0.  1.
         22    1    3    3    0    0  0.27264931218E+02  0.20936955658E+01  0.73715292096E+02  0.78623815249E+02  0.00000000000E+00 0.  1.
</event>
<event>
 7    1  0.6557591E-006  0.3492461E+02  0.7818608E-02  0.1570315E+00
          2   -1    0    0  502    0  0.00000000000E+00  0.00000000000E+00  0.34681945750E+03  0.34681945750E+03  0.00000000000E+00 0. -1.
          1   -1    0    0  501    0 -0.00000000000E+00 -0.00000000000E+00 -0.79934009916E+03  0.79934009916E+03  0.00000000000E+00 0. -1.
         25    2    1    2    0    0  0.24519070185E+02 -0.59687562518E+02 -0.41357836357E+02  0.14662585338E+03  0.12499952132E+03 0.  0.
          2    1    1    2  501    0 -0.15702598291E+02  0.26219714264E+02 -0.70399765041E+03  0.70466072460E+03  0.00000000000E+00 0. -1.
          1    1    1    2  502    0 -0.88164718941E+01  0.33467848254E+02  0.29283484511E+03  0.29487297868E+03  0.00000000000E+00 0. -1.
         22    1    3    3    0    0  0.55514291799E+01  0.12130123848E+02 -0.66792534947E+02  0.68111680314E+02  0.00000000000E+00 0.  1.
         22    1    3    3    0    0  0.18967641005E+02 -0.71817686367E+02  0.25434698590E+02  0.78514173069E+02  0.00000000000E+00 0.  1.
</event>
<event>
 7    1  0.6557591E-006  0.8693382E+02  0.7818608E-02  0.1396390E+00
          2   -1    0    0  502    0  0.00000000000E+00  0.00000000000E+00  0.40564953640E+03  0.40564953640E+03  0.00000000000E+00 0. -1.
          1   -1    0    0  501    0 -0.00000000000E+00 -0.00000000000E+00 -0.16591400147E+03  0.16591400147E+03  0.00000000000E+00 0. -1.
         25    2    1    2    0    0 -0.65172876550E+02 -0.60007035363E+02  0.10111681232E+03  0.18356594935E+03  0.12499399945E+03 0.  0.
          2    1    1    2  501    0  0.35090833748E+02 -0.22875078257E+02 -0.11345878234E+03  0.12094433061E+03  0.00000000000E+00 0. -1.
          1    1    1    2  502    0  0.30082042802E+02  0.82882113621E+02  0.25207750494E+03  0.26705325790E+03  0.00000000000E+00 0. -1.
         22    1    3    3    0    0 -0.99769384496E+01  0.33659009710E+02  0.21418882914E-01  0.35106533499E+02  0.00000000000E+00 0.  1.
         22    1    3    3    0    0 -0.55195938100E+02 -0.93666045074E+02  0.10109539343E+03  0.14845941586E+03  0.00000000000E+00 0.  1.
</event>
<event>
 7    1  0.6557591E-006  0.8883345E+02  0.7818608E-02  0.1382016E+00
          2   -1    0    0  502    0  0.00000000000E+00  0.00000000000E+00  0.17736293283E+03  0.17736293283E+03  0.00000000000E+00 0. -1.
          1   -1    0    0  501    0 -0.00000000000E+00 -0.00000000000E+00 -0.78014194934E+03  0.78014194934E+03  0.00000000000E+00 0. -1.
         25    2    1    2    0    0  0.17960329887E+00 -0.50974114821E+02 -0.29025005758E+03  0.32010711227E+03  0.12500029904E+03 0.  0.
          2    1    1    2  501    0  0.30978664257E+02 -0.34028960547E+02 -0.46111364060E+03  0.46340418357E+03  0.00000000000E+00 0. -1.
          1    1    1    2  502    0 -0.31158267556E+02  0.85003075368E+02  0.14858468168E+03  0.17399358634E+03  0.00000000000E+00 0. -1.
         22    1    3    3    0    0 -0.55912679719E+01  0.41474240084E+02 -0.10370581593E+03  0.11183144069E+03  0.00000000000E+00 0.  1.
         22    1    3    3    0    0  0.57708712708E+01 -0.92448354905E+02 -0.18654424165E+03  0.20827567158E+03  0.00000000000E+00 0.  1.
</event>
<event>
 7    1  0.6557591E-006  0.2968831E+03  0.7818608E-02  0.1217490E+00
          2   -1    0    0  502    0  0.00000000000E+00  0.00000000000E+00  0.19156334185E+04  0.19156334185E+04  0.00000000000E+00 0. -1.
          1   -1    0    0  501    0 -0.00000000000E+00 -0.00000000000E+00 -0.12670933210E+04  0.12670933210E+04  0.00000000000E+00 0. -1.
         25    2    1    2    0    0  0.20642627938E+03 -0.15183995907E+03 -0.69662087560E+03  0.75271045675E+03  0.12500082153E+03 0.  0.
          2    1    1    2  501    0 -0.66646734191E+00 -0.63172173520E+02 -0.52880554561E+03  0.53256593278E+03  0.00000000000E+00 0. -1.
          1    1    1    2  502    0 -0.20575981204E+03  0.21501213259E+03  0.18739665187E+04  0.18974503500E+04  0.00000000000E+00 0. -1.
         22    1    3    3    0    0  0.21301883768E+03 -0.11069554830E+03 -0.62932798341E+03  0.67356086609E+03  0.00000000000E+00 0.  1.
         22    1    3    3    0    0 -0.65925582964E+01 -0.41144410766E+02 -0.67292892190E+02  0.79149590658E+02  0.00000000000E+00 0.  1.
</event>
<event>
 7    1  0.6557591E-006  0.8577794E+02  0.7818608E-02  0.1492901E+00
          2   -1    0    0  502    0  0.00000000000E+00  0.00000000000E+00  0.29856876331E+02  0.29856876331E+02  0.00000000000E+00 0. -1.
          1   -1    0    0  501    0 -0.00000000000E+00 -0.00000000000E+00 -0.10662543084E+04  0.10662543084E+04  0.00000000000E+00 0. -1.
         25    2    1    2    0    0  0.67775139086E+02  0.35265835471E+02 -0.37283481429E+03  0.40058428884E+03  0.12499930036E+03 0.  0.
          2    1    1    2  501    0 -0.84828657668E+02 -0.23496658029E+02 -0.66846415467E+03  0.67423461805E+03  0.00000000000E+00 0. -1.
          1    1    1    2  502    0  0.17053518582E+02 -0.11769177441E+02  0.49015368534E+01  0.21292277877E+02  0.00000000000E+00 0. -1.
         22    1    3    3    0    0  0.41570890041E+02  0.81253866137E+02 -0.20033014997E+03  0.22014199656E+03  0.00000000000E+00 0.  1.
         22    1    3    3    0    0  0.26204249045E+02 -0.45988030666E+02 -0.17250466432E+03  0.18044229228E+03  0.00000000000E+00 0.  1.
</event>
<event>
 7    1  0.6557591E-006  0.8853158E+02  0.7818608E-02  0.1391717E+00
          2   -1    0    0  502    0  0.00000000000E+00  0.00000000000E+00  0.23943477344E+04  0.23943477344E+04  0.00000000000E+00 0. -1.
          1   -1    0    0  501    0 -0.00000000000E+00 -0.00000000000E+00 -0.32042058908E+03  0.32042058908E+03  0.00000000000E+00 0. -1.
         25    2    1    2    0    0  0.71499833875E+02 -0.10116196151E+03  0.42314136005E+03  0.45828157712E+03  0.12500969818E+03 0.  0.
          2    1    1    2  501    0 -0.33666775796E+02  0.81371778824E+02 -0.29620995637E+03  0.30902290600E+03  0.00000000000E+00 0. -1.
          1    1    1    2  502    0 -0.37833058079E+02  0.19790182681E+02  0.19469957417E+04  0.19474638404E+04  0.00000000000E+00 0. -1.
         22    1    3    3    0    0  0.10460808383E+01 -0.10460225413E+03  0.23029636725E+03  0.25294098644E+03  0.00000000000E+00 0. -1.
         22    1    3    3    0    0  0.70453753037E+02  0.34402926225E+01  0.19284499280E+03  0.20534059068E+03  0.00000000000E+00 0. -1.
</event>
<event>
 7    1  0.6557591E-006  0.4449311E+02  0.7818608E-02  0.1487151E+00
          2   -1    0    0  502    0  0.00000000000E+00  0.00000000000E+00  0.10075112290E+04  0.10075112290E+04  0.00000000000E+00 0. -1.
          1   -1    0    0  501    0 -0.00000000000E+00 -0.00000000000E+00 -0.27110041626E+02  0.27110041626E+02  0.00000000000E+00 0. -1.
         25    2    1    2    0    0  0.46468030816E+01 -0.90539848087E+01  0.14367239640E+03  0.19071054836E+03  0.12500075339E+03 0.  0.
          2    1    1    2  501    0 -0.29288980360E+02 -0.29512586809E+02  0.14992965083E+03  0.15558835865E+03  0.00000000000E+00 0. -1.
          1    1    1    2  502    0  0.24642177278E+02  0.38566571617E+02  0.68679914010E+03  0.68832236357E+03  0.00000000000E+00 0. -1.
         22    1    3    3    0    0  0.66614921243E+01  0.37228786652E+02 -0.19763795132E+01  0.37871679510E+02  0.00000000000E+00 0.  1.
         22    1    3    3    0    0 -0.20146890427E+01 -0.46282771461E+02  0.14564877591E+03  0.15283886885E+03  0.00000000000E+00 0.  1.
</event>
<event>
 7    1  0.6557591E-006  0.1135723E+03  0.7818608E-02  0.1291963E+00
          2   -1    0    0  502    0  0.00000000000E+00  0.00000000000E+00  0.32581380600E+03  0.32581380600E+03  0.00000000000E+00 0. -1.
          1   -1    0    0  501    0 -0.00000000000E+00 -0.00000000000E+00 -0.14474288012E+04  0.14474288012E+04  0.00000000000E+00 0. -1.
         25    2    1    2    0    0  0.51325888337E+02  0.13375089263E+03 -0.59760837434E+03  0.62712403861E+03  0.12500057047E+03 0.  0.
          2    1    1    2  501    0  0.40793646954E+02 -0.67515990032E+02 -0.82276679260E+03  0.82653960918E+03  0.00000000000E+00 0. -1.
          1    1    1    2  502    0 -0.92119535291E+02 -0.66234902599E+02  0.29876017172E+03  0.31957895943E+03  0.00000000000E+00 0. -1.
         22    1    3    3    0    0  0.78885477851E+02  0.13642593154E+03 -0.54912713592E+03  0.57129288882E+03  0.00000000000E+00 0. -1.
         22    1    3    3    0    0 -0.27559589514E+02 -0.26750389091E+01 -0.48481238428E+02  0.55831149790E+02  0.00000000000E+00 0. -1.
</event>
<event>
 7    1  0.6557591E-006  0.7170818E+02  0.7818608E-02  0.1496415E+00
          2   -1    0    0  502    0  0.00000000000E+00  0.00000000000E+00  0.19359894767E+03  0.19359894767E+03  0.00000000000E+00 0. -1.
          1   -1    0    0  501    0 -0.00000000000E+00 -0.00000000000E+00 -0.20071223701E+03  0.20071223701E+03  0.00000000000E+00 0. -1.
         25    2    1    2    0    0  0.37307154645E+02 -0.38290942510E+02  0.43950981579E+02  0.14287262388E+03  0.12499151093E+03 0.  0.
          2    1    1    2  501    0  0.20076572978E+02 -0.13494767740E+02 -0.13510683074E+03  0.13725535782E+03  0.00000000000E+00 0. -1.
          1    1    1    2  502    0 -0.57383727623E+02  0.51785710250E+02  0.84042559815E+02  0.11418320298E+03  0.00000000000E+00 0. -1.
         22    1    3    3    0    0  0.47092301701E+02  0.36235828514E+02  0.29460411946E+02  0.66322213621E+02  0.00000000000E+00 0.  1.
         22    1    3    3    0    0 -0.97851470555E+01 -0.74526771023E+02  0.14490569634E+02  0.76550410256E+02  0.00000000000E+00 0.  1.
</event>
<event>
 7    1  0.6557591E-006  0.3653041E+02  0.7818608E-02  0.1549962E+00
          2   -1    0    0  502    0  0.00000000000E+00  0.00000000000E+00  0.10878942532E+04  0.10878942532E+04  0.00000000000E+00 0. -1.
          1   -1    0    0  501    0 -0.00000000000E+00 -0.00000000000E+00 -0.15009163613E+03  0.15009163613E+03  0.00000000000E+00 0. -1.
         25    2    1    2    0    0 -0.37905536659E+02  0.24524259357E+02 -0.10171090205E+03  0.16735637704E+03  0.12499912133E+03 0.  0.
          2    1    1    2  501    0  0.65677357538E+01 -0.35611916326E+02  0.61494300210E+01  0.36730902888E+02  0.00000000000E+00 0. -1.
          1    1    1    2  502    0  0.31337800905E+02  0.11087656970E+02  0.10333640891E+04  0.10338986094E+04  0.00000000000E+00 0. -1.
         22    1    3    3    0    0  0.31746245995E+01  0.69634780704E+02 -0.39057042427E+02  0.79903275829E+02  0.00000000000E+00 0. -1.
         22    1    3    3    0    0 -0.41080161259E+02 -0.45110521347E+02 -0.62653859621E+02  0.87453101207E+02  0.00000000000E+00 0. -1.
</event>
<event>
 7    1  0.6557591E-006  0.5551575E+02  0.7818608E-02  0.1538328E+00
          2   -1    0    0  502    0  0.00000000000E+00  0.00000000000E+00  0.45171585410E+03  0.45171585410E+03  0.00000000000E+00 0. -1.
          1   -1    0    0  501    0 -0.00000000000E+00 -0.00000000000E+00 -0.30314735248E+04  0.30314735248E+04  0.00000000000E+00 0. -1.
         25    2    1    2    0    0 -0.17165450927E+02 -0.54928665419E+02 -0.84359496676E+03  0.85474439373E+03  0.12499479861E+03 0.  0.
          2    1    1    2  501    0  0.36769406651E+02  0.41817296489E+02 -0.21816366531E+04  0.21823471680E+04  0.00000000000E+00 0. -1.
          1    1    1    2  502    0 -0.19603955725E+02  0.13111368930E+02  0.44547394918E+03  0.44609781715E+03  0.00000000000E+00 0. -1.
         22    1    3    3    0    0 -0.84914448927E+01  0.31923560539E+02 -0.46699252543E+03  0.46815941426E+03  0.00000000000E+00 0.  1.
         22    1    3    3    0    0 -0.86740060340E+01 -0.86852225958E+02 -0.37660244133E+03  0.38658497946E+03  0.00000000000E+00 0.  1.
</event>
<event>
 7    1  0.6557591E-006  0.2654970E+03  0.7818608E-02  0.1216483E+00
          2   -1    0    0  502    0  0.00000000000E+00  0.00000000000E+00  0.13354154359E+04  0.13354154359E+04  0.00000000000E+00 0. -1.
          1   -1    0    0  501    0 -0.00000000000E+00 -0.00000000000E+00 -0.11311556514E+04  0.11311556514E+04  0.00000000000E+00 0. -1.
         25    2    1    2    0    0  0.19931089078E+03 -0.10238015420E+03 -0.30635079590E+03  0.39960300125E+03  0.12500088520E+03 0.  0.
          2    1    1    2  501    0  0.39582578072E+01 -0.71289077519E+02 -0.76262770573E+03  0.76596267398E+03  0.00000000000E+00 0. -1.
          1    1    1    2  502    0 -0.20326914859E+03  0.17366923172E+03  0.12732382861E+04  0.13010054120E+04  0.00000000000E+00 0. -1.
         22    1    3    3    0    0 -0.82624526324E+01 -0.15646277931E+01 -0.65534998793E+02  0.66072325905E+02  0.00000000000E+00 0. -1.
         22    1    3    3    0    0  0.20757334341E+03 -0.10081552641E+03 -0.24081579710E+03  0.33353067534E+03  0.00000000000E+00 0. -1.
</event>
<event>
 7    1  0.6557591E-006  0.6798595E+02  0.7818608E-02  0.1396079E+00
          2   -1    0    0  502    0  0.00000000000E+00  0.00000000000E+00  0.34153544391E+03  0.34153544391E+03  0.00000000000E+00 0. -1.
          1   -1    0    0  501    0 -0.00000000000E+00 -0.00000000000E+00 -0.11071189613E+04  0.11071189613E+04  0.00000000000E+00 0. -1.
         25    2    1    2    0    0  0.49914211025E+02  0.13217834180E+02 -0.68966690998E+03  0.70280286254E+03  0.12500110911E+03 0.  0.
          2    1    1    2  501    0 -0.77182897338E+02  0.33037950899E+02 -0.40439256262E+03  0.41301579939E+03  0.00000000000E+00 0. -1.
          1    1    1    2  502    0  0.27268686312E+02 -0.46255785079E+02  0.32847595517E+03  0.33283574332E+03  0.00000000000E+00 0. -1.
         22    1    3    3    0    0 -0.58980194068E+01 -0.13957798918E+02 -0.59586267683E+01  0.16282260793E+02  0.00000000000E+00 0.  1.
         22    1    3    3    0    0  0.55812230432E+02  0.27175633098E+02 -0.68370828321E+03  0.68652060175E+03  0.00000000000E+00 0.  1.
</event>
<event>
 7    1  0.6557591E-006  0.1198575E+03  0.7818608E-02  0.1255251E+00
          2   -1    0    0  502    0  0.00000000000E+00  0.00000000000E+00  0.43324900885E+03  0.43324900885E+03  0.00000000000E+00 0. -1.
          1   -1    0    0  501    0 -0.00000000000E+00 -0.00000000000E+00 -0.42291841063E+03  0.42291841063E+03  0.00000000000E+00 0. -1.
         25    2    1    2    0    0 -0.11733540041E+03 -0.53247220186E+01 -0.89306610391E+01  0.17176000978E+03  0.12500318155E+03 0.  0.
          2    1    1    2  501    0  0.73817339977E+02  0.10240635791E+03 -0.31195216123E+03  0.33652668946E+03  0.00000000000E+00 0. -1.
          1    1    1    2  502    0  0.43518060434E+02 -0.97081635892E+02  0.33121342048E+03  0.34788072025E+03  0.00000000000E+00 0. -1.
         22    1    3    3    0    0 -0.95302941494E+02 -0.59641077859E+02  0.27448176413E+00  0.11242679470E+03  0.00000000000E+00 0. -1.
         22    1    3    3    0    0 -0.22032458917E+02  0.54316355841E+02 -0.92051428033E+01  0.59333215080E+02  0.00000000000E+00 0. -1.
</event>
<event>
 7    1  0.6557591E-006  0.4579691E+02  0.7818608E-02  0.1500562E+00
          2   -1    0    0  502    0  0.00000000000E+00  0.00000000000E+00  0.36631301146E+04  0.36631301146E+04  0.00000000000E+00 0. -1.
          1   -1    0    0  501    0 -0.00000000000E+00 -0.00000000000E+00 -0.95922442254E+02  0.95922442254E+02  0.00000000000E+00 0. -1.
         25    2    1    2    0    0  0.75661371539E+02 -0.14544013665E+02  0.16540670285E+04  0.16605724583E+04  0.12500793263E+03 0.  0.
          2    1    1    2  501    0 -0.45276867891E+02 -0.62358439294E+01 -0.86854762892E+02  0.98145964525E+02  0.00000000000E+00 0. -1.
          1    1    1    2  502    0 -0.30384503648E+02  0.20779857595E+02  0.19999954067E+04  0.20003341339E+04  0.00000000000E+00 0. -1.
         22    1    3    3    0    0 -0.14587761127E+02 -0.31199748985E+02  0.15881446790E+03  0.16250619166E+03  0.00000000000E+00 0.  1.
         22    1    3    3    0    0  0.90249132667E+02  0.16655735320E+02  0.14952525606E+04  0.14980662667E+04  0.00000000000E+00 0.  1.
</event>
<event>
 7    1  0.6557591E-006  0.1281348E+03  0.7818608E-02  0.1305415E+00
          2   -1    0    0  502    0  0.00000000000E+00  0.00000000000E+00  0.11630350646E+04  0.11630350646E+04  0.00000000000E+00 0. -1.
          1   -1    0    0  501    0 -0.00000000000E+00 -0.00000000000E+00 -0.24242222982E+04  0.24242222982E+04  0.00000000000E+00 0. -1.
         25    2    1    2    0    0 -0.61036983064E+02 -0.13934487337E+03 -0.26501649498E+03  0.33015420903E+03  0.12500220837E+03 0.  0.
          2    1    1    2  501    0  0.93349008172E+02  0.86726203904E+02 -0.21238829860E+04  0.21277016732E+04  0.00000000000E+00 0. -1.
          1    1    1    2  502    0 -0.32312025108E+02  0.52618669464E+02  0.11277122474E+04  0.11294014806E+04  0.00000000000E+00 0. -1.
         22    1    3    3    0    0  0.20426346958E+02 -0.90291887868E+02 -0.80945513741E+02  0.12297169129E+03  0.00000000000E+00 0. -1.
         22    1    3    3    0    0 -0.81463330022E+02 -0.49052985500E+02 -0.18407098123E+03  0.20718251774E+03  0.00000000000E+00 0. -1.
</event>
<event>
 7    1  0.6557591E-006  0.1506283E+03  0.7818608E-02  0.1236863E+00
          2   -1    0    0  502    0  0.00000000000E+00  0.00000000000E+00  0.13359566704E+03  0.13359566704E+03  0.00000000000E+00 0. -1.
          1   -1    0    0  501    0 -0.00000000000E+00 -0.00000000000E+00 -0.62211486982E+03  0.62211486982E+03  0.00000000000E+00 0. -1.
         25    2    1    2    0    0  0.11085800546E+03 -0.75219644558E+02 -0.21010190673E+03  0.27877684400E+03  0.12500490085E+03 0.  0.
          2    1    1    2  501    0  0.51400121121E+02  0.87925904227E+02 -0.29618980826E+03  0.31321133377E+03  0.00000000000E+00 0. -1.
          1    1    1    2  502    0 -0.16225812658E+03 -0.12706259669E+02  0.17772512202E+02  0.16372235909E+03  0.00000000000E+00 0. -1.
         22    1    3    3    0    0 -0.15483811109E+02 -0.44372668294E+02 -0.27038749637E+02  0.54219701953E+02  0.00000000000E+00 0.  1.
         22    1    3    3    0    0  0.12634181657E+03 -0.30846976264E+02 -0.18306315709E+03  0.22455714205E+03  0.00000000000E+00 0.  1.
</event>
<event>
 7    1  0.6557591E-006  0.1828648E+03  0.7818608E-02  0.1242462E+00
          2   -1    0    0  502    0  0.00000000000E+00  0.00000000000E+00  0.29770347152E+04  0.29770347152E+04  0.00000000000E+00 0. -1.
          1   -1    0    0  501    0 -0.00000000000E+00 -0.00000000000E+00 -0.93377529374E+03  0.93377529374E+03  0.00000000000E+00 0. -1.
         25    2    1    2    0    0  0.71821320769E+02  0.84870846373E+02  0.29252240475E+02  0.16982941338E+03  0.12499989358E+03 0.  0.
          2    1    1    2  501    0 -0.12388535856E+03 -0.14462466448E+03 -0.85243307006E+03  0.87344491216E+03  0.00000000000E+00 0. -1.
          1    1    1    2  502    0  0.52064037789E+02  0.59753818110E+02  0.28664402511E+04  0.28675356834E+04  0.00000000000E+00 0. -1.
         22    1    3    3    0    0  0.84562008802E+02  0.32386419135E+01  0.12795158451E+02  0.85585852884E+02  0.00000000000E+00 0.  1.
         22    1    3    3    0    0 -0.12740688033E+02  0.81632204460E+02  0.16457082024E+02  0.84243560497E+02  0.00000000000E+00 0.  1.
</event>
<event>
 7    1  0.6557591E-006  0.1013130E+03  0.7818608E-02  0.1380436E+00
          2   -1    0    0  502    0  0.00000000000E+00  0.00000000000E+00  0.77525342850E+03  0.77525342850E+03  0.00000000000E+00 0. -1.
          1   -1    0    0  501    0 -0.00000000000E+00 -0.00000000000E+00 -0.14093101292E+04  0.14093101292E+04  0.00000000000E+00 0. -1.
         25    2    1    2    0    0 -0.25769237667E+02 -0.56863242508E+02 -0.10126428207E+03  0.17256207644E+03  0.12500293375E+03 0.  0.
          2    1    1    2  501    0 -0.26530554575E+02 -0.31090389546E+02 -0.12685268139E+04  0.12691850772E+04  0.00000000000E+00 0. -1.
          1    1    1    2  502    0  0.52299792242E+02  0.87953632053E+02  0.73573439529E+03  0.74281640401E+03  0.00000000000E+00 0. -1.
         22    1    3    3    0    0  0.15017927782E+02  0.35543774051E+02 -0.24690599154E+02  0.45809646530E+02  0.00000000000E+00 0. -1.
         22    1    3    3    0    0 -0.40787165449E+02 -0.92407016558E+02 -0.76573682912E+02  0.12675242991E+03  0.00000000000E+00 0. -1.
</event>
<event>
 7    1  0.6557591E-006  0.6861548E+02  0.7818608E-02  0.1395521E+00
          2   -1    0    0  502    0  0.00000000000E+00  0.00000000000E+00  0.93306752639E+03  0.93306752639E+03  0.00000000000E+00 0. -1.
          1   -1    0    0  501    0 -0.00000000000E+00 -0.00000000000E+00 -0.32835340966E+03  0.32835340966E+03  0.00000000000E+00 0. -1.
         25    2    1    2    0    0  0.42074177822E+02 -0.39201696422E+02  0.28147652045E+02  0.14044165907E+03  0.12499823937E+03 0.  0.
          2    1    1    2  501    0  0.26962081118E+02  0.46139448430E+02 -0.26814741231E+03  0.27342062330E+03  0.00000000000E+00 0. -1.
          1    1    1    2  502    0 -0.69036258940E+02 -0.69377520082E+01  0.84471387699E+03  0.84755865368E+03  0.00000000000E+00 0. -1.
         22    1    3    3    0    0  0.19311567048E+02 -0.84178428789E+02  0.25110238697E+02  0.89941473096E+02  0.00000000000E+00 0. -1.
         22    1    3    3    0    0  0.22762610774E+02  0.44976732367E+02  0.30374133484E+01  0.50500185975E+02  0.00000000000E+00 0. -1.
</event>
<event>
 7    1  0.6557591E-006  0.1121685E+03  0.7818608E-02  0.1399854E+00
          2   -1    0    0  502    0  0.00000000000E+00  0.00000000000E+00  0.52772358526E+03  0.52772358526E+03  0.00000000000E+00 0. -1.
          1   -1    0    0  501    0 -0.00000000000E+00 -0.00000000000E+00 -0.32853956948E+03  0.32853956948E+03  0.00000000000E+00 0. -1.
         25    2    1    2    0    0  0.86352205205E+02 -0.14548500532E+02  0.75367606018E+02  0.17021339205E+03  0.12499584228E+03 0.  0.
          2    1    1    2  501    0  0.30169410592E+02  0.93458708104E+01 -0.27178402072E+03  0.27361303433E+03  0.00000000000E+00 0. -1.
          1    1    1    2  502    0 -0.11652161580E+03  0.52026297217E+01  0.39560043048E+03  0.41243672836E+03  0.00000000000E+00 0. -1.
         22    1    3    3    0    0  0.70922385176E+02  0.46113345945E+02  0.20660281090E+02  0.87081987851E+02  0.00000000000E+00 0.  1.
         22    1    3    3    0    0  0.15429820029E+02 -0.60661846477E+02  0.54707324928E+02  0.83131404203E+02  0.00000000000E+00 0.  1.
</event>
<event>
 7    1  0.6557591E-006  0.2756764E+02  0.7818608E-02  0.1631324E+00
          2   -1    0    0  502    0  0.00000000000E+00  0.00000000000E+00  0.19459098547E+02  0.19459098547E+02  0.00000000000E+00 0. -1.
          1   -1    0    0  501    0 -0.00000000000E+00 -0.00000000000E+00 -0.15355956637E+04  0.15355956637E+04  0.00000000000E+00 0. -1.
         25    2    1    2    0    0 -0.31156510726E+01  0.13100169982E+01 -0.57380188187E+03  0.58726690165E+03  0.12498956242E+03 0.  0.
          2    1    1    2  501    0  0.28205233171E+00  0.26828267509E+02 -0.93891841268E+03  0.93930166675E+03  0.00000000000E+00 0. -1.
          1    1    1    2  502    0  0.28335987409E+01 -0.28138284507E+02 -0.34162706419E+01  0.28486193883E+02  0.00000000000E+00 0. -1.
         22    1    3    3    0    0  0.38000784997E+02 -0.22096392191E+02 -0.80658311697E+02  0.91858986790E+02  0.00000000000E+00 0. -1.
         22    1    3    3    0    0 -0.41116436070E+02  0.23406409189E+02 -0.49314357017E+03  0.49540791486E+03  0.00000000000E+00 0. -1.
</event>
<event>
 7    1  0.6557591E-006  0.9025078E+02  0.7818608E-02  0.1370724E+00
          2   -1    0    0  502    0  0.00000000000E+00  0.00000000000E+00  0.60500303379E+03  0.60500303379E+03  0.00000000000E+00 0. -1.
          1   -1    0    0  501    0 -0.00000000000E+00 -0.00000000000E+00 -0.11155191687E+03  0.11155191687E+03  0.00000000000E+00 0. -1.
         25    2    1    2    0    0  0.63568330042E+02 -0.11056146831E+03  0.32192205613E+03  0.36813559638E+03  0.12500094494E+03 0.  0.
          2    1    1    2  501    0 -0.20552661771E+02  0.85688392035E+02 -0.63231391982E+02  0.10845792441E+03  0.00000000000E+00 0. -1.
          1    1    1    2  502    0 -0.43015668271E+02  0.24873076278E+02  0.23476045277E+03  0.23996142987E+03  0.00000000000E+00 0. -1.
         22    1    3    3    0    0 -0.25566137984E+01 -0.10312189629E+03  0.24842965920E+03  0.26899434444E+03  0.00000000000E+00 0.  1.
         22    1    3    3    0    0  0.66124943840E+02 -0.74395720230E+01  0.73492396929E+02  0.99141251940E+02  0.00000000000E+00 0.  1.
</event>
<event>
 7    1  0.6557591E-006  0.7161506E+02  0.7818608E-02  0.1400037E+00
          2   -1    0    0  502    0  0.00000000000E+00  0.00000000000E+00  0.99191703607E+03  0.99191703607E+03  0.00000000000E+00 0. -1.
          1   -1    0    0  501    0 -0.00000000000E+00 -0.00000000000E+00 -0.98855425007E+03  0.98855425007E+03  0.00000000000E+00 0. -1.
         25    2    1    2    0    0 -0.26281252374E+01 -0.79986375170E+02  0.11921724448E+03  0.19037773485E+03  0.12500481307E+03 0.  0.
          2    1    1    2  501    0 -0.41742927330E+02  0.58276973984E+02 -0.95089501623E+03  0.95359320969E+03  0.00000000000E+00 0. -1.
          1    1    1    2  502    0  0.44371052568E+02  0.21709401187E+02  0.83504055775E+03  0.83650034160E+03  0.00000000000E+00 0. -1.
         22    1    3    3    0    0  0.47562389370E+02 -0.82644701953E+02  0.59800146794E+02  0.11255392130E+03  0.00000000000E+00 0. -1.
         22    1    3    3    0    0 -0.50190514607E+02  0.26583267827E+01  0.59417097684E+02  0.77823813547E+02  0.00000000000E+00 0. -1.
</event>
<event>
 7    1  0.6557591E-006  0.1143075E+03  0.7818608E-02  0.1326371E+00
          2   -1    0    0  502    0  0.00000000000E+00  0.00000000000E+00  0.48331615502E+03  0.48331615502E+03  0.00000000000E+00 0. -1.
          1   -1    0    0  501    0 -0.00000000000E+00 -0.00000000000E+00 -0.37109453045E+03  0.37109453045E+03  0.00000000000E+00 0. -1.
         25    2    1    2    0    0 -0.52302782269E+02 -0.12726870057E+03 -0.21144199806E+03  0.28153898664E+03  0.12499431699E+03 0.  0.
          2    1    1    2  501    0  0.19986431114E+00  0.10335231357E+03 -0.10090954588E+03  0.14444541224E+03  0.00000000000E+00 0. -1.
          1    1    1    2  502    0  0.52102917958E+02  0.23916386997E+02  0.42457316851E+03  0.42842628659E+03  0.00000000000E+00 0. -1.
         22    1    3    3    0    0 -0.82111546611E+02 -0.51201702005E+02 -0.15321188890E+03  0.18121203954E+03  0.00000000000E+00 0.  1.
         22    1    3    3    0    0  0.29808764341E+02 -0.76066998564E+02 -0.58230109155E+02  0.10032694710E+03  0.00000000000E+00 0.  1.
</event>
<event>
 7    1  0.6557591E-006  0.7154096E+02  0.7818608E-02  0.1438132E+00
          2   -1    0    0  502    0  0.00000000000E+00  0.00000000000E+00  0.51856855025E+03  0.51856855025E+03  0.00000000000E+00 0. -1.
          1   -1    0    0  501    0 -0.00000000000E+00 -0.00000000000E+00 -0.37966406709E+03  0.37966406709E+03  0.00000000000E+00 0. -1.
         25    2    1    2    0    0 -0.14250626158E+01 -0.61121102522E+02  0.77580744194E+02  0.15931460019E+03  0.12499819993E+03 0.  0.
          2    1    1    2  501    0  0.36768759779E+02 -0.27892753273E+01 -0.33444277591E+03  0.33646945197E+03  0.00000000000E+00 0. -1.
          1    1    1    2  502    0 -0.35343697164E+02  0.63910377849E+02  0.39576651487E+03  0.40244856519E+03  0.00000000000E+00 0. -1.
         22    1    3    3    0    0 -0.54082580291E+02 -0.36195536280E+02  0.36385867270E+01  0.65178843583E+02  0.00000000000E+00 0.  1.
         22    1    3    3    0    0  0.52657517675E+02 -0.24925566242E+02  0.73942157467E+02  0.94135756602E+02  0.00000000000E+00 0.  1.
</event>
<event>
 7    1  0.6557591E-006  0.1007573E+03  0.7818608E-02  0.1308007E+00
          2   -1    0    0  502    0  0.00000000000E+00  0.00000000000E+00  0.12597603920E+04  0.12597603920E+04  0.00000000000E+00 0. -1.
          1   -1    0    0  501    0 -0.00000000000E+00 -0.00000000000E+00 -0.15407641102E+04  0.15407641102E+04  0.00000000000E+00 0. -1.
         25    2    1    2    0    0  0.94649946847E+02 -0.89259288331E+02  0.94577943945E+02  0.20371201649E+03  0.12501106028E+03 0.  0.
          2    1    1    2  501    0  0.50635843948E+01  0.76523598890E+02 -0.14829295340E+04  0.14849112781E+04  0.00000000000E+00 0. -1.
          1    1    1    2  502    0 -0.99713531241E+02  0.12735689441E+02  0.11073478719E+04  0.11119012076E+04  0.00000000000E+00 0. -1.
         22    1    3    3    0    0  0.77396940768E+02 -0.38145323378E+02 -0.91740723000E+01  0.86772782245E+02  0.00000000000E+00 0.  1.
         22    1    3    3    0    0  0.17253006078E+02 -0.51113964953E+02  0.10375201624E+03  0.11693923425E+03  0.00000000000E+00 0.  1.
</event>
<event>
 7    1  0.6557591E-006  0.9751110E+02  0.7818608E-02  0.1370239E+00
          2   -1    0    0  502    0  0.00000000000E+00  0.00000000000E+00  0.11389075889E+03  0.11389075889E+03  0.00000000000E+00 0. -1.
          1   -1    0    0  501    0 -0.00000000000E+00 -0.00000000000E+00 -0.75295570133E+03  0.75295570133E+03  0.00000000000E+00 0. -1.
         25    2    1    2    0    0 -0.56035868647E+02  0.10775881150E+02 -0.34019942290E+03  0.36689975507E+03  0.12499457883E+03 0.  0.
          2    1    1    2  501    0 -0.44460510139E+02 -0.12463297657E+02 -0.37249924200E+03  0.37535017789E+03  0.00000000000E+00 0. -1.
          1    1    1    2  502    0  0.10049637879E+03  0.16874165073E+01  0.73633722465E+02  0.12459652727E+03  0.00000000000E+00 0. -1.
         22    1    3    3    0    0 -0.33343751290E+02 -0.56800808039E+02 -0.15225569968E+03  0.16589133681E+03  0.00000000000E+00 0.  1.
         22    1    3    3    0    0 -0.22692117356E+02  0.67576689189E+02 -0.18794372322E+03  0.20100841825E+03  0.00000000000E+00 0.  1.
</event>
<event>
 7    1  0.6557591E-006  0.4347010E+02  0.7818608E-02  0.1514250E+00
          2   -1    0    0  502    0  0.00000000000E+00  0.00000000000E+00  0.17880814103E+04  0.17880814103E+04  0.00000000000E+00 0. -1.
          1   -1    0    0  501    0 -0.00000000000E+00 -0.00000000000E+00 -0.75894405242E+03  0.75894405242E+03  0.00000000000E+00 0. -1.
         25    2    1    2    0    0 -0.76905155927E+02 -0.12864972423E+02  0.35504624690E+02  0.15156000404E+03  0.12501978214E+03 0.  0.
          2    1    1    2  501    0  0.33647059303E+02  0.10785031332E+02 -0.70019411587E+03  0.70108504577E+03  0.00000000000E+00 0. -1.
          1    1    1    2  502    0  0.43258096624E+02  0.20799410907E+01  0.16938268491E+04  0.16943804129E+04  0.00000000000E+00 0. -1.
         22    1    3    3    0    0 -0.80746414896E+02 -0.23663239241E+02  0.73592823990E+02  0.11178477603E+03  0.00000000000E+00 0.  1.
         22    1    3    3    0    0  0.38412589693E+01  0.10798266819E+02 -0.38088199300E+02  0.39775228003E+02  0.00000000000E+00 0.  1.
</event>
<event>
 7    1  0.6557591E-006  0.1154014E+03  0.7818608E-02  0.1256381E+00
          2   -1    0    0  502    0  0.00000000000E+00  0.00000000000E+00  0.20970331038E+04  0.20970331038E+04  0.00000000000E+00 0. -1.
          1   -1    0    0  501    0 -0.00000000000E+00 -0.00000000000E+00 -0.54520584229E+03  0.54520584229E+03  0.00000000000E+00 0. -1.
         25    2    1    2    0    0 -0.95901148352E+02  0.20244387844E+03 -0.21698683204E+03  0.33598968068E+03  0.12500090427E+03 0.  0.
          2    1    1    2  501    0  0.48202913537E+02 -0.98062494942E+02 -0.25591699022E+03  0.27826835909E+03  0.00000000000E+00 0. -1.
          1    1    1    2  502    0  0.47698234815E+02 -0.10438138350E+03  0.20247310838E+04  0.20279809063E+04  0.00000000000E+00 0. -1.
         22    1    3    3    0    0 -0.93225678731E+02  0.21292596226E+03 -0.17052051864E+03  0.28828066161E+03  0.00000000000E+00 0.  1.
         22    1    3    3    0    0 -0.26754696207E+01 -0.10482083822E+02 -0.46466313407E+02  0.47709019069E+02  0.00000000000E+00 0.  1.
</event>
<event>
 7    1  0.6557591E-006  0.1715903E+03  0.7818608E-02  0.1314752E+00
          2   -1    0    0  502    0  0.00000000000E+00  0.00000000000E+00  0.12142086682E+04  0.12142086682E+04  0.00000000000E+00 0. -1.
          1   -1    0    0  501    0 -0.00000000000E+00 -0.00000000000E+00 -0.19161386773E+03  0.19161386773E+03  0.00000000000E+00 0. -1.
         25    2    1    2    0    0  0.38817683819E+02  0.13868949203E+03  0.18757133521E+03  0.26748733621E+03  0.12499952585E+03 0.  0.
          2    1    1    2  501    0 -0.20885655668E+02 -0.17707188528E+03 -0.98603087171E+02  0.20374796188E+03  0.00000000000E+00 0. -1.
          1    1    1    2  502    0 -0.17932028151E+02  0.38382393249E+02  0.93362655241E+03  0.93458723783E+03  0.00000000000E+00 0. -1.
         22    1    3    3    0    0 -0.43241812692E+02  0.23860264427E+02  0.43676186469E+02  0.65930083026E+02  0.00000000000E+00 0.  1.
         22    1    3    3    0    0  0.82059496511E+02  0.11482922761E+03  0.14389514874E+03  0.20155725318E+03  0.00000000000E+00 0.  1.
</event>
<event>
 7    1  0.6557591E-006  0.6881427E+02  0.7818608E-02  0.1377724E+00
          2   -1    0    0  502    0  0.00000000000E+00  0.00000000000E+00  0.89689294582E+02  0.89689294582E+02  0.00000000000E+00 0. -1.
          1   -1    0    0  501    0 -0.00000000000E+00 -0.00000000000E+00 -0.14934302663E+04  0.14934302663E+04  0.00000000000E+00 0. -1.
         25    2    1    2    0    0  0.10906133053E+03 -0.39423141829E+02 -0.19259683153E+03  0.25722941673E+03  0.12499950155E+03 0.  0.
          2    1    1    2  501    0 -0.43643387579E+02  0.43361045486E+02 -0.12487942498E+04  0.12503087635E+04  0.00000000000E+00 0. -1.
          1    1    1    2  502    0 -0.65417942954E+02 -0.39379036574E+01  0.37650109675E+02  0.75581380671E+02  0.00000000000E+00 0. -1.
         22    1    3    3    0    0  0.73526271074E+02 -0.63650699177E+02 -0.19083419471E+03  0.21418499928E+03  0.00000000000E+00 0. -1.
         22    1    3    3    0    0  0.35535059459E+02  0.24227557349E+02 -0.17626368226E+01  0.43044417459E+02  0.00000000000E+00 0. -1.
</event>
<event>
 7    1  0.6557591E-006  0.9428827E+02  0.7818608E-02  0.1330342E+00
          2   -1    0    0  502    0  0.00000000000E+00  0.00000000000E+00  0.70405224333E+03  0.70405224333E+03  0.00000000000E+00 0. -1.
          1   -1    0    0  501    0 -0.00000000000E+00 -0.00000000000E+00 -0.20900914100E+03  0.20900914100E+03  0.00000000000E+00 0. -1.
         25    2    1    2    0    0  0.12105990789E+03 -0.33254670986E+02  0.28371058819E+03  0.33448392148E+03  0.12500568561E+03 0.  0.
          2    1    1    2  501    0 -0.58650260016E+02 -0.32617740222E+02 -0.17201175782E+03  0.18463968914E+03  0.00000000000E+00 0. -1.
          1    1    1    2  502    0 -0.62409647875E+02  0.65872411208E+02  0.38334427196E+03  0.39393777371E+03  0.00000000000E+00 0. -1.
         22    1    3    3    0    0  0.71602166059E+02 -0.24705692505E+02  0.27280040903E+03  0.28312065377E+03  0.00000000000E+00 0. -1.
         22    1    3    3    0    0  0.49457741832E+02 -0.85489784813E+01  0.10910179163E+02  0.51363267708E+02  0.00000000000E+00 0. -1.
</event>
<event>
 7    1  0.6557591E-006  0.9663945E+02  0.7818608E-02  0.1403389E+00
          2   -1    0    0  502    0  0.00000000000E+00  0.00000000000E+00  0.68985343051E+03  0.68985343051E+03  0.00000000000E+00 0. -1.
          1   -1    0    0  501    0 -0.00000000000E+00 -0.00000000000E+00 -0.14282639811E+04  0.14282639811E+04  0.00000000000E+00 0. -1.
         25    2    1    2    0    0 -0.29366683060E+02 -0.59953087413E+02  0.81210650046E+02  0.16332425904E+03  0.12499147629E+03 0.  0.
          2    1    1    2  501    0 -0.28339576392E+02 -0.21627709429E+02 -0.13825774239E+04  0.13830369563E+04  0.00000000000E+00 0. -1.
          1    1    1    2  502    0  0.57706259452E+02  0.81580796842E+02  0.56295622321E+03  0.57175619633E+03  0.00000000000E+00 0. -1.
         22    1    3    3    0    0 -0.67702933451E+02 -0.24428538945E+01  0.61384084108E+02  0.91420241275E+02  0.00000000000E+00 0.  1.
         22    1    3    3    0    0  0.38336250392E+02 -0.57510233519E+02  0.19826565938E+02  0.71904017763E+02  0.00000000000E+00 0.  1.
</event>
<event>
 7    1  0.6557591E-006  0.9729726E+02  0.7818608E-02  0.1374989E+00
          2   -1    0    0  502    0  0.00000000000E+00  0.00000000000E+00  0.70235075577E+03  0.70235075577E+03  0.00000000000E+00 0. -1.
          1   -1    0    0  501    0 -0.00000000000E+00 -0.00000000000E+00 -0.47256507617E+03  0.47256507617E+03  0.00000000000E+00 0. -1.
         25    2    1    2    0    0 -0.12803207261E+03 -0.34530181974E+02  0.28977557103E+03  0.34231310628E+03  0.12499534423E+03 0.  0.
          2    1    1    2  501    0  0.44498188900E+02  0.11967376013E+00 -0.43987633332E+03  0.44212135410E+03  0.00000000000E+00 0. -1.
          1    1    1    2  502    0  0.83533883714E+02  0.34410508214E+02  0.37988644189E+03  0.39048137156E+03  0.00000000000E+00 0. -1.
         22    1    3    3    0    0 -0.11303022984E+02  0.41262390224E+02  0.60423485944E+02  0.74036077889E+02  0.00000000000E+00 0. -1.
         22    1    3    3    0    0 -0.11672904963E+03 -0.75792572198E+02  0.22935208508E+03  0.26827702839E+03  0.00000000000E+00 0. -1.
</event>
<event>
 7    1  0.6557591E-006  0.3659815E+02  0.7818608E-02  0.1585306E+00
          2   -1    0    0  502    0  0.00000000000E+00  0.00000000000E+00  0.16550754445E+04  0.16550754445E+04  0.00000000000E+00 0. -1.
          1   -1    0    0  501    0 -0.00000000000E+00 -0.00000000000E+00 -0.75735298778E+03  0.75735298778E+03  0.00000000000E+00 0. -1.
         25    2    1    2    0    0  0.39316982430E+02 -0.14314597572E+01  0.10398446118E+04  0.10480700528E+04  0.12500457887E+03 0.  0.
          2    1    1    2  501    0 -0.26830354673E+02  0.24895161394E+02 -0.75250625773E+03  0.75339584875E+03  0.00000000000E+00 0. -1.
          1    1    1    2  502    0 -0.12486627758E+02 -0.23463701637E+02  0.61038410259E+03  0.61096253066E+03  0.00000000000E+00 0. -1.
         22    1    3    3    0    0  0.79985742060E+02  0.31395569435E+01  0.85553147191E+03  0.85926810436E+03  0.00000000000E+00 0.  1.
         22    1    3    3    0    0 -0.40668759630E+02 -0.45710167007E+01  0.18431313991E+03  0.18880194847E+03  0.00000000000E+00 0.  1.
</event>
<event>
 7    1  0.6557591E-006  0.3079354E+02  0.7818608E-02  0.1594903E+00
          2   -1    0    0  502    0  0.00000000000E+00  0.00000000000E+00  0.92435468502E+03  0.92435468502E+03  0.00000000000E+00 0. -1.
          1   -1    0    0  501    0 -0.00000000000E+00 -0.00000000000E+00 -0.12813628310E+03  0.12813628310E+03  0.00000000000E+00 0. -1.
         25    2    1    2    0    0  0.18138136396E+02 -0.36871483205E+02  0.30246069087E+03  0.32984039618E+03  0.12499487655E+03 0.  0.
          2    1    1    2  501    0  0.10580475935E+02  0.28934893751E+02 -0.11200021422E+03  0.11616033115E+03  0.00000000000E+00 0. -1.
          1    1    1    2  502    0 -0.28718612331E+02  0.79365894541E+01  0.60575792527E+03  0.60649024080E+03  0.00000000000E+00 0. -1.
         22    1    3    3    0    0  0.21443641156E+02 -0.69753829875E+02  0.95150900996E+02  0.11991297048E+03  0.00000000000E+00 0. -1.
         22    1    3    3    0    0 -0.33055047594E+01  0.32882346670E+02  0.20730978987E+03  0.20992742570E+03  0.00000000000E+00 0. -1.
</event>
<event>
 7    1  0.6557591E-006  0.7806721E+02  0.7818608E-02  0.1370562E+00
          2   -1    0    0  502    0  0.00000000000E+00  0.00000000000E+00  0.14134582400E+04  0.14134582400E+04  0.00000000000E+00 0. -1.
          1   -1    0    0  501    0 -0.00000000000E+00 -0.00000000000E+00 -0.56824261172E+03  0.56824261172E+03  0.00000000000E+00 0. -1.
         25    2    1    2    0    0  0.67144296009E+02 -0.52531608727E+02 -0.11919858310E+02  0.15177735168E+03  0.12500542012E+03 0.  0.
          2    1    1    2  501    0  0.11010741263E+02  0.56457085784E+02 -0.48354849975E+03  0.48695768869E+03  0.00000000000E+00 0. -1.
          1    1    1    2  502    0 -0.78155037272E+02 -0.39254770572E+01  0.13406839863E+04  0.13429658113E+04  0.00000000000E+00 0. -1.
         22    1    3    3    0    0 -0.28248548143E+02  0.16353550589E+02 -0.98497869126E+01  0.34094536091E+02  0.00000000000E+00 0.  1.
         22    1    3    3    0    0  0.95392844152E+02 -0.68885159316E+02 -0.20700713976E+01  0.11768281559E+03  0.00000000000E+00 0.  1.
</event>
<event>
 7    1  0.6557591E-006  0.4085926E+02  0.7818608E-02  0.1524040E+00
          2   -1    0    0  502    0  0.00000000000E+00  0.00000000000E+00  0.73853147595E+03  0.73853147595E+03  0.00000000000E+00 0. -1.
          1   -1    0    0  501    0 -0.00000000000E+00 -0.00000000000E+00 -0.69707076703E+03  0.69707076703E+03  0.00000000000E+00 0. -1.
         25    2    1    2    0    0  0.16970412553E+02 -0.77302618852E+01  0.30180206086E+02  0.12992752501E+03  0.12499025988E+03 0.  0.
          2    1    1    2  501    0  0.17349948443E+02  0.30634495988E+02 -0.64607099107E+03  0.64702953453E+03  0.00000000000E+00 0. -1.
          1    1    1    2  502    0 -0.34320360996E+02 -0.22904234103E+02  0.65735149391E+03  0.65864518343E+03  0.00000000000E+00 0. -1.
         22    1    3    3    0    0  0.60913035833E+02  0.11462952214E+02  0.48390413209E+02  0.78634784278E+02  0.00000000000E+00 0. -1.
         22    1    3    3    0    0 -0.43942623281E+02 -0.19193214099E+02 -0.18210207123E+02  0.51292740731E+02  0.00000000000E+00 0. -1.
</event>
<event>
 7    1  0.6557591E-006  0.1597988E+03  0.7818608E-02  0.1240794E+00
          2   -1    0    0  502    0  0.00000000000E+00  0.00000000000E+00  0.18890339370E+03  0.18890339370E+03  0.00000000000E+00 0. -1.
          1   -1    0    0  501    0 -0.00000000000E+00 -0.00000000000E+00 -0.20019451661E+04  0.20019451661E+04  0.00000000000E+00 0. -1.
         25    2    1    2    0    0 -0.85077757348E+02  0.83876971840E+02 -0.23652296989E+03  0.29298659966E+03  0.12499784438E+03 0.  0.
          2    1    1    2  501    0  0.16410424035E+03 -0.36307331327E+02 -0.17195084005E+04  0.17277029731E+04  0.00000000000E+00 0. -1.
          1    1    1    2  502    0 -0.79026483007E+02 -0.47569640513E+02  0.14298959800E+03  0.17015898698E+03  0.00000000000E+00 0. -1.
         22    1    3    3    0    0 -0.95470855545E+02  0.13875599210E+02 -0.98479523190E+02  0.13786019367E+03  0.00000000000E+00 0. -1.
         22    1    3    3    0    0  0.10393098197E+02  0.70001372630E+02 -0.13804344670E+03  0.15512640599E+03  0.00000000000E+00 0. -1.
</event>
<event>
 7    1  0.6557591E-006  0.1044227E+03  0.7818608E-02  0.1394737E+00
          2   -1    0    0  502    0  0.00000000000E+00  0.00000000000E+00  0.90239460990E+03  0.90239460990E+03  0.00000000000E+00 0. -1.
          1   -1    0    0  501    0 -0.00000000000E+00 -0.00000000000E+00 -0.10098522233E+03  0.10098522233E+03  0.00000000000E+00 0. -1.
         25    2    1    2    0    0 -0.99629108602E+02  0.23764525876E+01  0.22079092983E+02  0.16138056926E+03  0.12499837991E+03 0.  0.
          2    1    1    2  501    0  0.62755384464E-02 -0.35335303041E+02 -0.16699758074E+02  0.39082804405E+02  0.00000000000E+00 0. -1.
          1    1    1    2  502    0  0.99622833064E+02  0.32958850454E+02  0.79603005266E+03  0.80291645856E+03  0.00000000000E+00 0. -1.
         22    1    3    3    0    0 -0.12565512151E+03  0.18308528009E+02  0.28631285807E+02  0.13016974412E+03  0.00000000000E+00 0. -1.
         22    1    3    3    0    0  0.26026012904E+02 -0.15932075421E+02 -0.65521928244E+01  0.31210825136E+02  0.00000000000E+00 0. -1.
</event>
<event>
 7    1  0.6557591E-006  0.8074898E+02  0.7818608E-02  0.1351029E+00
          2   -1    0    0  502    0  0.00000000000E+00  0.00000000000E+00  0.79243369310E+02  0.79243369310E+02  0.00000000000E+00 0. -1.
          1   -1    0    0  501    0 -0.00000000000E+00 -0.00000000000E+00 -0.79064442619E+03  0.79064442619E+03  0.00000000000E+00 0. -1.
         25    2    1    2    0    0  0.29798046467E+02 -0.30059445256E+02 -0.42955033384E+03  0.44936570240E+03  0.12499820548E+03 0.  0.
          2    1    1    2  501    0  0.53877339024E+02  0.37280693728E+02 -0.32117195276E+03  0.32778657847E+03  0.00000000000E+00 0. -1.
          1    1    1    2  502    0 -0.83675385491E+02 -0.72212484716E+01  0.39321229718E+02  0.92735514627E+02  0.00000000000E+00 0. -1.
         22    1    3    3    0    0 -0.39752679947E+02 -0.42177310989E+02 -0.24526909914E+03  0.25202407051E+03  0.00000000000E+00 0.  1.
         22    1    3    3    0    0  0.69550726415E+02  0.12117865733E+02 -0.18428123470E+03  0.19734163189E+03  0.00000000000E+00 0.  1.
</event>
<event>
 7    1  0.6557591E-006  0.4506802E+02  0.7818608E-02  0.1481930E+00
          2   -1    0    0  502    0  0.00000000000E+00  0.00000000000E+00  0.20734045344E+04  0.20734045344E+04  0.00000000000E+00 0. -1.
          1   -1    0    0  501    0 -0.00000000000E+00 -0.00000000000E+00 -0.24572561114E+03  0.24572561114E+03  0.00000000000E+00 0. -1.
         25    2    1    2    0    0 -0.77930997234E+02 -0.34153790749E+02 -0.17158728750E+02  0.15217901150E+03  0.12499723124E+03 0.  0.
          2    1    1    2  501    0  0.41767913706E+02  0.11673223024E+02 -0.15790682272E+03  0.16375404549E+03  0.00000000000E+00 0. -1.
          1    1    1    2  502    0  0.36163083528E+02  0.22480567725E+02  0.20027444747E+04  0.20031970886E+04  0.00000000000E+00 0. -1.
         22    1    3    3    0    0 -0.94131696089E+02 -0.65840044380E+02 -0.19493977473E+02  0.11651481799E+03  0.00000000000E+00 0. -1.
         22    1    3    3    0    0  0.16200698855E+02  0.31686253631E+02  0.23352487234E+01  0.35664193516E+02  0.00000000000E+00 0. -1.
</event>
<event>
 7    1  0.6557591E-006  0.9297653E+02  0.7818608E-02  0.1311734E+00
          2   -1    0    0  502    0  0.00000000000E+00  0.00000000000E+00  0.16758549688E+04  0.16758549688E+04  0.00000000000E+00 0. -1.
          1   -1    0    0  501    0 -0.00000000000E+00 -0.00000000000E+00 -0.68965618873E+02  0.68965618873E+02  0.00000000000E+00 0. -1.
         25    2    1    2    0    0 -0.77811461800E+02  0.10989933300E+03  0.43345944041E+03  0.47079168398E+03  0.12500094498E+03 0.  0.
          2    1    1    2  501    0 -0.82737962319E+01 -0.79917997473E+02 -0.15316914224E+02  0.81792113835E+02  0.00000000000E+00 0. -1.
          1    1    1    2  502    0  0.86085258032E+02 -0.29981335524E+02  0.11887468238E+04  0.11922367899E+04  0.00000000000E+00 0. -1.
         22    1    3    3    0    0 -0.89757058488E+02  0.89399434991E+02  0.42812275555E+03  0.44647248778E+03  0.00000000000E+00 0. -1.
         22    1    3    3    0    0  0.11945596687E+02  0.20499898006E+02  0.53366848567E+01  0.24319196198E+02  0.00000000000E+00 0. -1.
</event>
<event>
 7    1  0.6557591E-006  0.5996041E+02  0.7818608E-02  0.1543644E+00
          2   -1    0    0  502    0  0.00000000000E+00  0.00000000000E+00  0.19664689282E+03  0.19664689282E+03  0.00000000000E+00 0. -1.
          1   -1    0    0  501    0 -0.00000000000E+00 -0.00000000000E+00 -0.21229715336E+04  0.21229715336E+04  0.00000000000E+00 0. -1.
         25    2    1    2    0    0 -0.64526783068E+02 -0.39076831491E+02  0.13231767407E+03  0.19703676815E+03  0.12499926655E+03 0.  0.
          2    1    1    2  501    0  0.43537014246E+02  0.41176030806E+02 -0.20866547116E+04  0.20875149874E+04  0.00000000000E+00 0. -1.
          1    1    1    2  502    0  0.20989768822E+02 -0.20991993155E+01  0.28012396766E+02  0.35066670864E+02  0.00000000000E+00 0. -1.
         22    1    3    3    0    0  0.28071981480E+01 -0.69437332001E+02  0.82864645962E+02  0.10814792179E+03  0.00000000000E+00 0.  1.
         22    1    3    3    0    0 -0.67333981216E+02  0.30360500510E+02  0.49453028110E+02  0.88888846357E+02  0.00000000000E+00 0.  1.
</event>
<event>
 7    1  0.6557591E-006  0.1223677E+03  0.7818608E-02  0.1300177E+00
          2   -1    0    0  502    0  0.00000000000E+00  0.00000000000E+00  0.70585771555E+02  0.70585771555E+02  0.00000000000E+00 0. -1.
          1   -1    0    0  501    0 -0.00000000000E+00 -0.00000000000E+00 -0.20180875474E+04  0.20180875474E+04  0.00000000000E+00 0. -1.
         25    2    1    2    0    0 -0.14767511197E+03  0.15906840244E+02 -0.40472670042E+03  0.44887420608E+03  0.12499353819E+03 0.  0.
          2    1    1    2  501    0  0.46773363597E+02  0.49141048797E+02 -0.15150751010E+04  0.15165932718E+04  0.00000000000E+00 0. -1.
          1    1    1    2  502    0  0.10090174837E+03 -0.65047889042E+02 -0.27699974356E+02  0.12320584107E+03  0.00000000000E+00 0. -1.
         22    1    3    3    0    0 -0.44652819272E+02  0.39010050205E+01 -0.29306611380E+03  0.29647401095E+03  0.00000000000E+00 0.  1.
         22    1    3    3    0    0 -0.10302229270E+03  0.12005835224E+02 -0.11166058662E+03  0.15240019513E+03  0.00000000000E+00 0.  1.
</event>
<event>
 7    1  0.6557591E-006  0.5267526E+02  0.7818608E-02  0.1453539E+00
          2   -1    0    0  502    0  0.00000000000E+00  0.00000000000E+00  0.45652629219E+03  0.45652629219E+03  0.00000000000E+00 0. -1.
          1   -1    0    0  501    0 -0.00000000000E+00 -0.00000000000E+00 -0.29449434826E+03  0.29449434826E+03  0.00000000000E+00 0. -1.
         25    2    1    2    0    0 -0.81180472062E+02 -0.48786107784E+02  0.23908274600E+01  0.15684794968E+03  0.12500083962E+03 0.  0.
          2    1    1    2  501    0  0.47058627542E+02  0.19946427457E+02 -0.21290657849E+03  0.21895567030E+03  0.00000000000E+00 0. -1.
          1    1    1    2  502    0  0.34121844520E+02  0.28839680327E+02  0.37254769496E+03  0.37521702047E+03  0.00000000000E+00 0. -1.
         22    1    3    3    0    0 -0.75059488624E+02  0.23561582553E+02 -0.19428335111E+02  0.81034160760E+02  0.00000000000E+00 0.  1.
         22    1    3    3    0    0 -0.61209834377E+01 -0.72347690337E+02  0.21819162571E+02  0.75813788921E+02  0.00000000000E+00 0.  1.
</event>
<event>
 7    1  0.6557591E-006  0.3681174E+02  0.7818608E-02  0.1603238E+00
          2   -1    0    0  502    0  0.00000000000E+00  0.00000000000E+00  0.76786092549E+03  0.76786092549E+03  0.00000000000E+00 0. -1.
          1   -1    0    0  501    0 -0.00000000000E+00 -0.00000000000E+00 -0.17280631190E+03  0.17280631190E+03  0.00000000000E+00 0. -1.
         25    2    1    2    0    0  0.34507102396E+02  0.45595488030E+02  0.49946013703E+03  0.51803812781E+03  0.12503353445E+03 0.  0.
          2    1    1    2  501    0 -0.17949859183E+02 -0.15480944920E+02 -0.16150893660E+03  0.16323906916E+03  0.00000000000E+00 0. -1.
          1    1    1    2  502    0 -0.16557243213E+02 -0.30114543110E+02  0.25710341316E+03  0.25939004042E+03  0.00000000000E+00 0. -1.
         22    1    3    3    0    0  0.69661681213E+01 -0.23079066538E+02  0.15965901435E+02  0.28915062151E+02  0.00000000000E+00 0.  1.
         22    1    3    3    0    0  0.27540934275E+02  0.68674554568E+02  0.48349423559E+03  0.48912306565E+03  0.00000000000E+00 0.  1.
</event>
<event>
 7    1  0.6557591E-006  0.4405533E+02  0.7818608E-02  0.1536116E+00
          2   -1    0    0  502    0  0.00000000000E+00  0.00000000000E+00  0.35166313660E+04  0.35166313660E+04  0.00000000000E+00 0. -1.
          1   -1    0    0  501    0 -0.00000000000E+00 -0.00000000000E+00 -0.12204581035E+02  0.12204581035E+02  0.00000000000E+00 0. -1.
         25    2    1    2    0    0  0.29984093544E+01  0.16012854268E+02  0.13231113758E+04  0.13291019655E+04  0.12499167918E+03 0.  0.
          2    1    1    2  501    0 -0.21447609830E+02 -0.39862015787E+02  0.47170621060E+02  0.65376201796E+02  0.00000000000E+00 0. -1.
          1    1    1    2  502    0  0.18449200476E+02  0.23849161518E+02  0.21341447881E+04  0.21343577798E+04  0.00000000000E+00 0. -1.
         22    1    3    3    0    0  0.40451380723E+02 -0.37484024797E+02  0.41544482335E+03  0.41908921195E+03  0.00000000000E+00 0.  1.
         22    1    3    3    0    0 -0.37452971369E+02  0.53496879066E+02  0.90766655246E+03  0.91001275353E+03  0.00000000000E+00 0.  1.
</event>
<event>
 7    1  0.6557591E-006  0.2594546E+03  0.7818608E-02  0.1216969E+00
          2   -1    0    0  502    0  0.00000000000E+00  0.00000000000E+00  0.22989326948E+04  0.22989326948E+04  0.00000000000E+00 0. -1.
          1   -1    0    0  501    0 -0.00000000000E+00 -0.00000000000E+00 -0.24580190412E+03  0.24580190412E+03  0.00000000000E+00 0. -1.
         25    2    1    2    0    0 -0.11045450322E+02 -0.32527833250E+03  0.78706386632E+03  0.86082969272E+03  0.12502093677E+03 0.  0.
          2    1    1    2  501    0  0.16175611976E+02  0.25277133954E+03 -0.13085505893E+03  0.28509304966E+03  0.00000000000E+00 0. -1.
          1    1    1    2  502    0 -0.51301616547E+01  0.72506992958E+02  0.13969219833E+04  0.13988118565E+04  0.00000000000E+00 0. -1.
         22    1    3    3    0    0 -0.12549199789E+01 -0.20677174468E+03  0.63484670103E+03  0.66767242195E+03  0.00000000000E+00 0.  1.
         22    1    3    3    0    0 -0.97905303427E+01 -0.11850658783E+03  0.15221716529E+03  0.19315727077E+03  0.00000000000E+00 0.  1.
</event>
<event>
 7    1  0.6557591E-006  0.1087576E+03  0.7818608E-02  0.1318185E+00
          2   -1    0    0  502    0  0.00000000000E+00  0.00000000000E+00  0.10707887473E+04  0.10707887473E+04  0.00000000000E+00 0. -1.
          1   -1    0    0  501    0 -0.00000000000E+00 -0.00000000000E+00 -0.56027860216E+03  0.56027860216E+03  0.00000000000E+00 0. -1.
         25    2    1    2    0    0  0.21686529742E+02  0.88214440604E+02 -0.93398872154E+02  0.18055554190E+03  0.12499944515E+03 0.  0.
          2    1    1    2  501    0  0.62284239091E+02 -0.17919740813E+02 -0.41787755991E+03  0.42287362016E+03  0.00000000000E+00 0. -1.
          1    1    1    2  502    0 -0.83970768832E+02 -0.70294699791E+02  0.10217865772E+04  0.10276381874E+04  0.00000000000E+00 0. -1.
         22    1    3    3    0    0  0.53779873206E+02  0.10476147793E+03 -0.64224906927E+02  0.13413456188E+03  0.00000000000E+00 0. -1.
         22    1    3    3    0    0 -0.32093343464E+02 -0.16547037328E+02 -0.29173965227E+02  0.46420980021E+02  0.00000000000E+00 0. -1.
</event>
<event>
 7    1  0.6557591E-006  0.5377491E+02  0.7818608E-02  0.1432030E+00
          2   -1    0    0  502    0  0.00000000000E+00  0.00000000000E+00  0.47278051322E+03  0.47278051322E+03  0.00000000000E+00 0. -1.
          1   -1    0    0  501    0 -0.00000000000E+00 -0.00000000000E+00 -0.78098090450E+02  0.78098090450E+02  0.00000000000E+00 0. -1.
         25    2    1    2    0    0 -0.44235449775E+02 -0.51354698710E+01  0.19222600840E+03  0.23358641474E+03  0.12501450627E+03 0.  0.
          2    1    1    2  501    0  0.19101692693E+02 -0.47677892906E+02 -0.41743255800E+02  0.66185765392E+02  0.00000000000E+00 0. -1.
          1    1    1    2  502    0  0.25133757082E+02  0.52813362777E+02  0.24419967017E+03  0.25110642354E+03  0.00000000000E+00 0. -1.
         22    1    3    3    0    0 -0.57631682955E+02 -0.18427414594E+02  0.25276150979E+02  0.65573350510E+02  0.00000000000E+00 0.  1.
         22    1    3    3    0    0  0.13396233180E+02  0.13291944723E+02  0.16694985742E+03  0.16801306423E+03  0.00000000000E+00 0.  1.
</event>
<event>
 7    1  0.6557591E-006  0.5484584E+02  0.7818608E-02  0.1442241E+00
          2   -1    0    0  502    0  0.00000000000E+00  0.00000000000E+00  0.30571043501E+03  0.30571043501E+03  0.00000000000E+00 0. -1.
          1   -1    0    0  501    0 -0.00000000000E+00 -0.00000000000E+00 -0.21108488163E+03  0.21108488163E+03  0.00000000000E+00 0. -1.
         25    2    1    2    0    0 -0.95807980006E+02 -0.16734188551E+02  0.99676299088E+02  0.18712532107E+03  0.12498527548E+03 0.  0.
          2    1    1    2  501    0  0.45137983419E+02  0.11760562051E+02 -0.15995282112E+03  0.16661528547E+03  0.00000000000E+00 0. -1.
          1    1    1    2  502    0  0.50669996587E+02  0.49736265000E+01  0.15490207541E+03  0.16305471009E+03  0.00000000000E+00 0. -1.
         22    1    3    3    0    0 -0.98423551107E+02  0.21123979328E+02  0.10866524797E+03  0.14812681739E+03  0.00000000000E+00 0.  1.
         22    1    3    3    0    0  0.26155711013E+01 -0.37858167879E+02 -0.89889488797E+01  0.38998503680E+02  0.00000000000E+00 0.  1.
</event>
<event>
 7    1  0.6557591E-006  0.4584695E+02  0.7818608E-02  0.1471025E+00
          2   -1    0    0  502    0  0.00000000000E+00  0.00000000000E+00  0.13240960296E+04  0.13240960296E+04  0.00000000000E+00 0. -1.
          1   -1    0    0  501    0 -0.00000000000E+00 -0.00000000000E+00 -0.10064458729E+02  0.10064458729E+02  0.00000000000E+00 0. -1.
         25    2    1    2    0    0  0.36142898467E+02  0.65882080653E+01  0.84036194216E+03  0.85040108705E+03  0.12499640568E+03 0.  0.
          2    1    1    2  501    0 -0.35289985206E+02  0.38630131652E+02  0.22430999497E+03  0.23033159568E+03  0.00000000000E+00 0. -1.
          1    1    1    2  502    0 -0.85291326036E+00 -0.45218339718E+02  0.24935963371E+03  0.25342780556E+03  0.00000000000E+00 0. -1.
         22    1    3    3    0    0 -0.26927416799E+02  0.45884895537E+02  0.43961690490E+03  0.44282449400E+03  0.00000000000E+00 0. -1.
         22    1    3    3    0    0  0.63070315266E+02 -0.39296687471E+02  0.40074503726E+03  0.40757659305E+03  0.00000000000E+00 0. -1.
</event>
<event>
 7    1  0.6557591E-006  0.9887600E+02  0.7818608E-02  0.1313778E+00
          2   -1    0    0  502    0  0.00000000000E+00  0.00000000000E+00  0.54395006179E+02  0.54395006179E+02  0.00000000000E+00 0. -1.
          1   -1    0    0  501    0 -0.00000000000E+00 -0.00000000000E+00 -0.19442729005E+04  0.19442729005E+04  0.00000000000E+00 0. -1.
         25    2    1    2    0    0  0.15168743848E+03 -0.63560416451E+02 -0.10558654183E+04  0.10758823172E+04  0.12498789319E+03 0.  0.
          2    1    1    2  501    0 -0.57365220292E+02  0.47013462640E+02 -0.82306408357E+03  0.82639912865E+03  0.00000000000E+00 0. -1.
          1    1    1    2  502    0 -0.94322218183E+02  0.16546953811E+02 -0.10948392427E+02  0.96386460772E+02  0.00000000000E+00 0. -1.
         22    1    3    3    0    0  0.94010299899E+02 -0.26006432866E+02 -0.27126396066E+03  0.28826794375E+03  0.00000000000E+00 0.  1.
         22    1    3    3    0    0  0.57677138576E+02 -0.37553983585E+02 -0.78460145765E+03  0.78761437350E+03  0.00000000000E+00 0.  1.
</event>
<event>
 7    1  0.6557591E-006  0.5174494E+02  0.7818608E-02  0.1491538E+00
          2   -1    0    0  502    0  0.00000000000E+00  0.00000000000E+00  0.24252063421E+04  0.24252063421E+04  0.00000000000E+00 0. -1.
          1   -1    0    0  501    0 -0.00000000000E+00 -0.00000000000E+00 -0.27883814994E+03  0.27883814994E+03  0.00000000000E+00 0. -1.
         25    2    1    2    0    0  0.47512015383E+00  0.40754748776E+02  0.10991854070E+03  0.17138802724E+03  0.12502237801E+03 0.  0.
          2    1    1    2  501    0  0.34173525960E+02 -0.39402075409E+02 -0.24522906871E+03  0.25071427874E+03  0.00000000000E+00 0. -1.
          1    1    1    2  502    0 -0.34648646114E+02 -0.13526733664E+01  0.22816787202E+04  0.22819421860E+04  0.00000000000E+00 0. -1.
         22    1    3    3    0    0  0.23778627864E+02 -0.29023947959E+02  0.86330836869E+02  0.94131961058E+02  0.00000000000E+00 0. -1.
         22    1    3    3    0    0 -0.23303507710E+02  0.69778696735E+02  0.23587703831E+02  0.77256066180E+02  0.00000000000E+00 0. -1.
</event>
<event>
 7    1  0.6557591E-006  0.1111336E+03  0.7818608E-02  0.1460861E+00
          2   -1    0    0  502    0  0.00000000000E+00  0.00000000000E+00  0.10126707550E+04  0.10126707550E+04  0.00000000000E+00 0. -1.
          1   -1    0    0  501    0 -0.00000000000E+00 -0.00000000000E+00 -0.27171759014E+03  0.27171759014E+03  0.00000000000E+00 0. -1.
         25    2    1    2    0    0  0.93002848880E+02 -0.25354519890E+02  0.14112252804E+03  0.21173672353E+03  0.12499796234E+03 0.  0.
          2    1    1    2  501    0 -0.10411621249E+03  0.42072687109E+02 -0.22294597819E+03  0.24963013819E+03  0.00000000000E+00 0. -1.
          1    1    1    2  502    0  0.11113363608E+02 -0.16718167219E+02  0.82277661505E+03  0.82302148346E+03  0.00000000000E+00 0. -1.
         22    1    3    3    0    0  0.95509393339E+02  0.80201594368E+01  0.37631519992E+02  0.10296843434E+03  0.00000000000E+00 0.  1.
         22    1    3    3    0    0 -0.25065444590E+01 -0.33374679326E+02  0.10349100805E+03  0.10876828919E+03  0.00000000000E+00 0.  1.
</event>
<event>
 7    1  0.6557591E-006  0.2767980E+03  0.7818608E-02  0.1241731E+00
          2   -1    0    0  502    0  0.00000000000E+00  0.00000000000E+00  0.12681061780E+04  0.12681061780E+04  0.00000000000E+00 0. -1.
          1   -1    0    0  501    0 -0.00000000000E+00 -0.00000000000E+00 -0.15061543034E+03  0.15061543034E+03  0.00000000000E+00 0. -1.
         25    2    1    2    0    0 -0.22975830515E+03  0.84535063756E+02  0.69164001777E+03  0.74425841958E+03  0.12497849873E+03 0.  0.
          2    1    1    2  501    0  0.27763882881E+03 -0.62404877192E+02  0.42762806622E+02  0.28776091742E+03  0.00000000000E+00 0. -1.
          1    1    1    2  502    0 -0.47880523666E+02 -0.22130186564E+02  0.38308792325E+03  0.38670227132E+03  0.00000000000E+00 0. -1.
         22    1    3    3    0    0 -0.14416152333E+03  0.79074762504E+02  0.28822992683E+03  0.33183106183E+03  0.00000000000E+00 0.  1.
         22    1    3    3    0    0 -0.85596781813E+02  0.54603012521E+01  0.40341009094E+03  0.41242735775E+03  0.00000000000E+00 0.  1.
</event>
<event>
 7    1  0.1200474E-005  0.4623909E+02  0.7818608E-02  0.1550701E+00
          2   -1    0    0  502    0  0.00000000000E+00  0.00000000000E+00  0.16565248408E+04  0.16565248408E+04  0.00000000000E+00 0. -1.
          1   -1    0    0  501    0 -0.00000000000E+00 -0.00000000000E+00 -0.13987418438E+04  0.13987418438E+04  0.00000000000E+00 0. -1.
         25    2    1    2    0    0 -0.31434347205E+02  0.36359999901E+02 -0.64949466814E+03  0.66315649330E+03  0.12499217132E+03 0.  0.
          2    1    1    2  501    0 -0.12775401896E+02 -0.22802591068E+02 -0.74186202247E+03  0.74232232180E+03  0.00000000000E+00 0. -1.
          1    1    1    2  502    0  0.44209749101E+02 -0.13557408834E+02  0.16491396876E+04  0.16497878695E+04  0.00000000000E+00 0. -1.
         22    1    3    3    0    0  0.12202227803E+02  0.68387127341E+02 -0.23228014052E+03  0.24244536958E+03  0.00000000000E+00 0. -1.
         22    1    3    3    0    0 -0.43636575008E+02 -0.32027127440E+02 -0.41721452761E+03  0.42071112372E+03  0.00000000000E+00 0. -1.
</event>
<event>
 7    1  0.1644716E-005  0.1029032E+03  0.7818608E-02  0.1344574E+00
          2   -1    0    0  502    0  0.00000000000E+00  0.00000000000E+00  0.16943541009E+04  0.16943541009E+04  0.00000000000E+00 0. -1.
          1   -1    0    0  501    0 -0.00000000000E+00 -0.00000000000E+00 -0.81656821731E+03  0.81656821731E+03  0.00000000000E+00 0. -1.
         25    2    1    2    0    0  0.48913885524E+02 -0.25731015559E+01 -0.26998313839E+03  0.30151957255E+03  0.12499587419E+03 0.  0.
          2    1    1    2  501    0  0.53757614246E+02 -0.78880023910E+01 -0.52783472778E+03  0.53062378530E+03  0.00000000000E+00 0. -1.
          1    1    1    2  502    0 -0.10267149977E+03  0.10461103947E+02  0.16756037498E+04  0.16787789604E+04  0.00000000000E+00 0. -1.
         22    1    3    3    0    0  0.56893625818E+02  0.31569908195E+02 -0.59606596342E+02  0.88241090710E+02  0.00000000000E+00 0.  1.
         22    1    3    3    0    0 -0.79797402939E+01 -0.34143009751E+02 -0.21037654205E+03  0.21327848184E+03  0.00000000000E+00 0.  1.
</event>
<event>
 7    1  0.6557591E-006  0.1892843E+03  0.7818608E-02  0.1216529E+00
          2   -1    0    0  502    0  0.00000000000E+00  0.00000000000E+00  0.82609711415E+03  0.82609711415E+03  0.00000000000E+00 0. -1.
          1   -1    0    0  501    0 -0.00000000000E+00 -0.00000000000E+00 -0.47542834728E+03  0.47542834728E+03  0.00000000000E+00 0. -1.
         25    2    1    2    0    0 -0.12750611226E+03 -0.21933009467E+03  0.21737547642E+03  0.35670857453E+03  0.12500164120E+03 0.  0.
          2    1    1    2  501    0 -0.39789576793E+01  0.10001875084E+03 -0.38455920223E+03  0.39737307740E+03  0.00000000000E+00 0. -1.
          1    1    1    2  502    0  0.13148506994E+03  0.11931134383E+03  0.51785249268E+03  0.54744380950E+03  0.00000000000E+00 0. -1.
         22    1    3    3    0    0 -0.12222058444E+03 -0.11425409051E+03  0.17822763298E+03  0.24445236267E+03  0.00000000000E+00 0.  1.
         22    1    3    3    0    0 -0.52855278236E+01 -0.10507600416E+03  0.39147843447E+02  0.11225621186E+03  0.00000000000E+00 0.  1.
</event>
<event>
 7    1  0.6557591E-006  0.2523352E+03  0.7818608E-02  0.1183701E+00
          2   -1    0    0  502    0  0.00000000000E+00  0.00000000000E+00  0.76254858262E+03  0.76254858262E+03  0.00000000000E+00 0. -1.
          1   -1    0    0  501    0 -0.00000000000E+00 -0.00000000000E+00 -0.10401174246E+04  0.10401174246E+04  0.00000000000E+00 0. -1.
         25    2    1    2    0    0 -0.71647223742E+02 -0.18546431692E+03 -0.23297951517E+03  0.33081060948E+03  0.12500346928E+03 0.  0.
          2    1    1    2  501    0 -0.10724710439E+03 -0.44231400197E+00 -0.73086142166E+03  0.73868840164E+03  0.00000000000E+00 0. -1.
          1    1    1    2  502    0  0.17889432814E+03  0.18590663093E+03  0.68627209483E+03  0.73316699612E+03  0.00000000000E+00 0. -1.
         22    1    3    3    0    0 -0.31752852584E+02  0.57279952614E+01 -0.87164444889E+01  0.33421998466E+02  0.00000000000E+00 0. -1.
         22    1    3    3    0    0 -0.39894371158E+02 -0.19119231219E+03 -0.22426307068E+03  0.29738861101E+03  0.00000000000E+00 0. -1.
</event>
<event>
 7    1  0.6557591E-006  0.2090690E+03  0.7818608E-02  0.1220982E+00
          2   -1    0    0  502    0  0.00000000000E+00  0.00000000000E+00  0.50381242220E+03  0.50381242220E+03  0.00000000000E+00 0. -1.
          1   -1    0    0  501    0 -0.00000000000E+00 -0.00000000000E+00 -0.31404245596E+03  0.31404245596E+03  0.00000000000E+00 0. -1.
         25    2    1    2    0    0 -0.23935646291E+03 -0.34714283567E+02  0.22999265504E+03  0.35639705460E+03  0.12500256533E+03 0.  0.
          2    1    1    2  501    0  0.18097682438E+03  0.98512311826E+02 -0.19529879787E+03  0.28389946635E+03  0.00000000000E+00 0. -1.
          1    1    1    2  502    0  0.58379638526E+02 -0.63798028260E+02  0.15507610908E+03  0.17755835720E+03  0.00000000000E+00 0. -1.
         22    1    3    3    0    0 -0.15434918140E+03 -0.42032992279E+02  0.21775923496E+03  0.27020275100E+03  0.00000000000E+00 0. -1.
         22    1    3    3    0    0 -0.85007281505E+02  0.73187087124E+01  0.12233420079E+02  0.86194303599E+02  0.00000000000E+00 0. -1.
</event>
<event>
 7    1  0.6557591E-006  0.1705286E+03  0.7818608E-02  0.1330745E+00
          2   -1    0    0  502    0  0.00000000000E+00  0.00000000000E+00  0.33645487809E+03  0.33645487809E+03  0.00000000000E+00 0. -1.
          1   -1    0    0  501    0 -0.00000000000E+00 -0.00000000000E+00 -0.62580181712E+03  0.62580181712E+03  0.00000000000E+00 0. -1.
         25    2    1    2    0    0 -0.15619795520E+03 -0.13442604378E+01 -0.11661913188E+03  0.23157061756E+03  0.12500128299E+03 0.  0.
          2    1    1    2  501    0  0.17197315673E+03  0.34785496816E+02 -0.43331444218E+03  0.46748925466E+03  0.00000000000E+00 0. -1.
          1    1    1    2  502    0 -0.15775201529E+02 -0.33441236378E+02  0.26058663504E+03  0.26319682299E+03  0.00000000000E+00 0. -1.
         22    1    3    3    0    0 -0.69531985308E+02  0.42623064475E+02 -0.23836488108E+01  0.81591080320E+02  0.00000000000E+00 0.  1.
         22    1    3    3    0    0 -0.86665969890E+02 -0.43967324913E+02 -0.11423548307E+03  0.14997953724E+03  0.00000000000E+00 0.  1.
</event>
<event>
 7    1  0.6557591E-006  0.1377453E+03  0.7818608E-02  0.1302312E+00
          2   -1    0    0  502    0  0.00000000000E+00  0.00000000000E+00  0.96072535517E+03  0.96072535517E+03  0.00000000000E+00 0. -1.
          1   -1    0    0  501    0 -0.00000000000E+00 -0.00000000000E+00 -0.88750296201E+03  0.88750296201E+03  0.00000000000E+00 0. -1.
         25    2    1    2    0    0 -0.10967499202E+03 -0.13597381039E+03 -0.20100850748E+03  0.29418904916E+03  0.12500118231E+03 0.  0.
          2    1    1    2  501    0  0.52151250727E+02  0.12243104262E+03 -0.63201270240E+03  0.64587086104E+03  0.00000000000E+00 0. -1.
          1    1    1    2  502    0  0.57523741292E+02  0.13542767770E+02  0.90624360305E+03  0.90816840698E+03  0.00000000000E+00 0. -1.
         22    1    3    3    0    0 -0.32464052484E+02  0.15116552308E+02 -0.70681023981E+01  0.36501820898E+02  0.00000000000E+00 0.  1.
         22    1    3    3    0    0 -0.77210939536E+02 -0.15109036270E+03 -0.19394040509E+03  0.25768722826E+03  0.00000000000E+00 0.  1.
</event>
<event>
 7    1  0.6557591E-006  0.4055026E+02  0.7818608E-02  0.1548894E+00
          2   -1    0    0  502    0  0.00000000000E+00  0.00000000000E+00  0.48144946687E+03  0.48144946687E+03  0.00000000000E+00 0. -1.
          1   -1    0    0  501    0 -0.00000000000E+00 -0.00000000000E+00 -0.14268861331E+04  0.14268861331E+04  0.00000000000E+00 0. -1.
         25    2    1    2    0    0  0.57890667898E+02  0.30743552007E+02 -0.22532606948E+03  0.26588358842E+03  0.12500299832E+03 0.  0.
          2    1    1    2  501    0 -0.17945871630E+02 -0.24230444661E+02 -0.11802004153E+04  0.11805855281E+04  0.00000000000E+00 0. -1.
          1    1    1    2  502    0 -0.39944796268E+02 -0.65131073466E+01  0.46008981862E+03  0.46186648342E+03  0.00000000000E+00 0. -1.
         22    1    3    3    0    0  0.62860990798E+02  0.55162716354E+01 -0.23107524253E+03  0.23953642965E+03  0.00000000000E+00 0.  1.
         22    1    3    3    0    0 -0.49703229002E+01  0.25227280372E+02  0.57491730579E+01  0.26347158776E+02  0.00000000000E+00 0.  1.
</event>
<event>
 7    1  0.6557591E-006  0.1809381E+03  0.7818608E-02  0.1325834E+00
          2   -1    0    0  502    0  0.00000000000E+00  0.00000000000E+00  0.16368896636E+04  0.16368896636E+04  0.00000000000E+00 0. -1.
          1   -1    0    0  501    0 -0.00000000000E+00 -0.00000000000E+00 -0.25186093933E+04  0.25186093933E+04  0.00000000000E+00 0. -1.
         25    2    1    2    0    0 -0.10508829211E+03  0.12911404107E+03  0.26247819214E+03  0.33500433593E+03  0.12497647381E+03 0.  0.
          2    1    1    2  501    0 -0.34989967329E+02 -0.99987132743E+01 -0.24758953459E+04  0.24761627644E+04  0.00000000000E+00 0. -1.
          1    1    1    2  502    0  0.14007825944E+03 -0.11911532780E+03  0.13316974240E+04  0.13443319565E+04  0.00000000000E+00 0. -1.
         22    1    3    3    0    0  0.17445487393E+02 -0.11618885519E+02  0.19392579664E+02  0.28555484186E+02  0.00000000000E+00 0. -1.
         22    1    3    3    0    0 -0.12253377951E+03  0.14073292659E+03  0.24308561247E+03  0.30644885175E+03  0.00000000000E+00 0. -1.
</event>
<event>
 7    1  0.8652560E-006  0.8132941E+02  0.7818608E-02  0.1365104E+00
          2   -1    0    0  502    0  0.00000000000E+00  0.00000000000E+00  0.12332901747E+04  0.12332901747E+04  0.00000000000E+00 0. -1.
          1   -1    0    0  501    0 -0.00000000000E+00 -0.00000000000E+00 -0.26709524433E+04  0.26709524433E+04  0.00000000000E+00 0. -1.
         25    2    1    2    0    0  0.40724520486E+02 -0.32596291301E+02 -0.65912233385E+03  0.67289602042E+03  0.12500319410E+03 0.  0.
          2    1    1    2  501    0 -0.86852805475E+02 -0.21890162684E+01 -0.20033208131E+04  0.20052038505E+04  0.00000000000E+00 0. -1.
          1    1    1    2  502    0  0.46128284988E+02  0.34785307570E+02  0.12247808783E+04  0.12261427471E+04  0.00000000000E+00 0. -1.
         22    1    3    3    0    0 -0.43213215536E+02 -0.26588001197E+02 -0.21897134318E+03  0.22477266946E+03  0.00000000000E+00 0.  1.
         22    1    3    3    0    0  0.83937736022E+02 -0.60082901043E+01 -0.44015099068E+03  0.44812335096E+03  0.00000000000E+00 0.  1.
</event>
<event>
 7    1  0.6557591E-006  0.6278074E+02  0.7818608E-02  0.1467314E+00
          2   -1    0    0  502    0  0.00000000000E+00  0.00000000000E+00  0.81455013836E+03  0.81455013836E+03  0.00000000000E+00 0. -1.
          1   -1    0    0  501    0 -0.00000000000E+00 -0.00000000000E+00 -0.10614532212E+04  0.10614532212E+04  0.00000000000E+00 0. -1.
         25    2    1    2    0    0 -0.14695995029E+02 -0.30882702388E+02  0.36815485086E+02  0.13476915459E+03  0.12505051583E+03 0.  0.
          2    1    1    2  501    0 -0.31260761262E+02 -0.13161062818E+02 -0.10108013907E+04  0.10113703081E+04  0.00000000000E+00 0. -1.
          1    1    1    2  502    0  0.45956756291E+02  0.44043765206E+02  0.72708282277E+03  0.72986389681E+03  0.00000000000E+00 0. -1.
         22    1    3    3    0    0  0.39071464740E+02  0.28984226613E+02  0.80217070884E+01  0.49305299248E+02  0.00000000000E+00 0. -1.
         22    1    3    3    0    0 -0.53767459770E+02 -0.59866929002E+02  0.28793777998E+02  0.85463855340E+02  0.00000000000E+00 0. -1.
</event>
<event>
 7    1  0.6557591E-006  0.8101803E+02  0.7818608E-02  0.1334936E+00
          2   -1    0    0  502    0  0.00000000000E+00  0.00000000000E+00  0.29528626670E+03  0.29528626670E+03  0.00000000000E+00 0. -1.
          1   -1    0    0  501    0 -0.00000000000E+00 -0.00000000000E+00 -0.18873612630E+03  0.18873612630E+03  0.00000000000E+00 0. -1.
         25    2    1    2    0    0  0.98520070079E+01  0.81675571872E+01  0.13165050601E+03  0.18199060785E+03  0.12499981832E+03 0.  0.
          2    1    1    2  501    0 -0.37203813162E+02 -0.78025416712E+02 -0.14016152981E+03  0.16467344596E+03  0.00000000000E+00 0. -1.
          1    1    1    2  502    0  0.27351806154E+02  0.69857859525E+02  0.11506116420E+03  0.13735833919E+03  0.00000000000E+00 0. -1.
         22    1    3    3    0    0  0.61682113665E+02  0.29637845325E+02  0.60169402801E+02  0.91123224565E+02  0.00000000000E+00 0. -1.
         22    1    3    3    0    0 -0.51830106657E+02 -0.21470288138E+02  0.71481103206E+02  0.90867383281E+02  0.00000000000E+00 0. -1.
</event>
<event>
 7    1  0.6557591E-006  0.5896627E+02  0.7818608E-02  0.1527257E+00
          2   -1    0    0  502    0  0.00000000000E+00  0.00000000000E+00  0.10957529759E+04  0.10957529759E+04  0.00000000000E+00 0. -1.
          1   -1    0    0  501    0 -0.00000000000E+00 -0.00000000000E+00 -0.43722963288E+03  0.43722963288E+03  0.00000000000E+00 0. -1.
         25    2    1    2    0    0  0.54534736104E+02 -0.60756195105E+02  0.60275202414E+02  0.16101563384E+03  0.12501032609E+03 0.  0.
          2    1    1    2  501    0 -0.35188488409E+02  0.46756660553E+02 -0.38450058157E+03  0.38892815821E+03  0.00000000000E+00 0. -1.
          1    1    1    2  502    0 -0.19346247695E+02  0.13999534552E+02  0.98274872213E+03  0.98303881669E+03  0.00000000000E+00 0. -1.
         22    1    3    3    0    0 -0.34660805378E+02 -0.60575909102E+01  0.42014917064E+02  0.54802546410E+02  0.00000000000E+00 0.  1.
         22    1    3    3    0    0  0.89195541482E+02 -0.54698604195E+02  0.18260285349E+02  0.10621308743E+03  0.00000000000E+00 0.  1.
</event>
<event>
 7    1  0.6557591E-006  0.3823482E+02  0.7818608E-02  0.1614187E+00
          2   -1    0    0  502    0  0.00000000000E+00  0.00000000000E+00  0.28887760824E+04  0.28887760824E+04  0.00000000000E+00 0. -1.
          1   -1    0    0  501    0 -0.00000000000E+00 -0.00000000000E+00 -0.28315747102E+02  0.28315747102E+02  0.00000000000E+00 0. -1.
         25    2    1    2    0    0  0.73727844472E+01  0.57256840737E+02  0.18873102635E+03  0.23361670603E+03  0.12499864506E+03 0.  0.
          2    1    1    2  501    0  0.42603419271E+01 -0.20953341169E+02  0.14189570414E+02  0.25661974359E+02  0.00000000000E+00 0. -1.
          1    1    1    2  502    0 -0.11633126374E+02 -0.36303499568E+02  0.26575397386E+04  0.26578131492E+04  0.00000000000E+00 0. -1.
         22    1    3    3    0    0  0.65469781575E+02  0.36545911105E+02  0.11759560977E+03  0.13946549162E+03  0.00000000000E+00 0.  1.
         22    1    3    3    0    0 -0.58096997127E+02  0.20710929633E+02  0.71135416588E+02  0.94151214409E+02  0.00000000000E+00 0.  1.
</event>
<event>
 7    1  0.6557591E-006  0.9863913E+02  0.7818608E-02  0.1422885E+00
          2   -1    0    0  502    0  0.00000000000E+00  0.00000000000E+00  0.23099833202E+03  0.23099833202E+03  0.00000000000E+00 0. -1.
          1   -1    0    0  501    0 -0.00000000000E+00 -0.00000000000E+00 -0.32568383910E+03  0.32568383910E+03  0.00000000000E+00 0. -1.
         25    2    1    2    0    0 -0.11327383987E+03  0.42444752404E+02  0.67858783701E+02  0.18671510259E+03  0.12500078082E+03 0.  0.
          2    1    1    2  501    0  0.27190383483E+02 -0.12719955855E+02 -0.24516938078E+03  0.24700028240E+03  0.00000000000E+00 0. -1.
          1    1    1    2  502    0  0.86083456384E+02 -0.29724796548E+02  0.82625090007E+02  0.12296678613E+03  0.00000000000E+00 0. -1.
         22    1    3    3    0    0 -0.12363822985E+03  0.67557461301E+02  0.73585808171E+02  0.15895060120E+03  0.00000000000E+00 0.  1.
         22    1    3    3    0    0  0.10364389987E+02 -0.25112708897E+02 -0.57270244702E+01  0.27764501387E+02  0.00000000000E+00 0.  1.
</event>
<event>
 7    1  0.6557591E-006  0.8612710E+02  0.7818608E-02  0.1466381E+00
          2   -1    0    0  502    0  0.00000000000E+00  0.00000000000E+00  0.16072925052E+04  0.16072925052E+04  0.00000000000E+00 0. -1.
          1   -1    0    0  501    0 -0.00000000000E+00 -0.00000000000E+00 -0.96417233990E+03  0.96417233990E+03  0.00000000000E+00 0. -1.
         25    2    1    2    0    0 -0.51474950085E+01 -0.75784531059E+02  0.68592382311E+02  0.16155640325E+03  0.12500305863E+03 0.  0.
          2    1    1    2  501    0 -0.24266644755E+02 -0.55381527354E+01 -0.91626825092E+03  0.91660626706E+03  0.00000000000E+00 0. -1.
          1    1    1    2  502    0  0.29414139763E+02  0.81322683795E+02  0.14907960339E+04  0.14933021747E+04  0.00000000000E+00 0. -1.
         22    1    3    3    0    0  0.37790953524E+02  0.17946738681E+02  0.29962214189E+02  0.51458486926E+02  0.00000000000E+00 0. -1.
         22    1    3    3    0    0 -0.42938448533E+02 -0.93731269741E+02  0.38630168122E+02  0.11009791632E+03  0.00000000000E+00 0. -1.
</event>
<event>
 7    1  0.6557591E-006  0.3578710E+02  0.7818608E-02  0.1584798E+00
          2   -1    0    0  502    0  0.00000000000E+00  0.00000000000E+00  0.71819769880E+02  0.71819769880E+02  0.00000000000E+00 0. -1.
          1   -1    0    0  501    0 -0.00000000000E+00 -0.00000000000E+00 -0.35989030707E+03  0.35989030707E+03  0.00000000000E+00 0. -1.
         25    2    1    2    0    0  0.20075484500E+02  0.65846380120E+01 -0.30684628161E+02  0.13043491481E+03  0.12500135224E+03 0.  0.
          2    1    1    2  501    0  0.17571397531E+02 -0.20849714245E+02 -0.25953076014E+03  0.26095915399E+03  0.00000000000E+00 0. -1.
          1    1    1    2  502    0 -0.37646882032E+02  0.14265076233E+02  0.21448511057E+01  0.40316008147E+02  0.00000000000E+00 0. -1.
         22    1    3    3    0    0  0.49312510292E+02  0.12357254528E+02 -0.66587265104E+02  0.83775230735E+02  0.00000000000E+00 0. -1.
         22    1    3    3    0    0 -0.29237025791E+02 -0.57726165165E+01  0.35902636944E+02  0.46659684076E+02  0.00000000000E+00 0. -1.
</event>
<event>
 7    1  0.6557591E-006  0.1139277E+03  0.7818608E-02  0.1365010E+00
          2   -1    0    0  502    0  0.00000000000E+00  0.00000000000E+00  0.14588306011E+03  0.14588306011E+03  0.00000000000E+00 0. -1.
          1   -1    0    0  501    0 -0.00000000000E+00 -0.00000000000E+00 -0.41763547803E+03  0.41763547803E+03  0.00000000000E+00 0. -1.
         25    2    1    2    0    0 -0.14776878448E+02 -0.13523885027E+03 -0.17483253192E+03  0.25436105161E+03  0.12500091040E+03 0.  0.
          2    1    1    2  501    0  0.32650195366E+02  0.25251452064E+02 -0.17063182260E+03  0.17555309731E+03  0.00000000000E+00 0. -1.
          1    1    1    2  502    0 -0.17873316919E+02  0.10998739821E+03  0.73711936596E+02  0.13360438922E+03  0.00000000000E+00 0. -1.
         22    1    3    3    0    0 -0.54079535248E+02 -0.11833407853E+03 -0.16559247619E+03  0.21059064187E+03  0.00000000000E+00 0.  1.
         22    1    3    3    0    0  0.39302656800E+02 -0.16904771748E+02 -0.92400557307E+01  0.43770409746E+02  0.00000000000E+00 0.  1.
</event>
<event>
 7    1  0.6557591E-006  0.1281895E+03  0.7818608E-02  0.1272227E+00
          2   -1    0    0  502    0  0.00000000000E+00  0.00000000000E+00  0.19973344535E+04  0.19973344535E+04  0.00000000000E+00 0. -1.
          1   -1    0    0  501    0 -0.00000000000E+00 -0.00000000000E+00 -0.12601053085E+04  0.12601053085E+04  0.00000000000E+00 0. -1.
         25    2    1    2    0    0  0.17684804170E+03 -0.51209086912E+02  0.29221085860E+03  0.36730070084E+03  0.12500007407E+03 0.  0.
          2    1    1    2  501    0 -0.79486012633E+02 -0.28001134242E+02 -0.12187414617E+04  0.12216516853E+04  0.00000000000E+00 0. -1.
          1    1    1    2  502    0 -0.97362029065E+02  0.79210221154E+02  0.16637597482E+04  0.16684873759E+04  0.00000000000E+00 0. -1.
         22    1    3    3    0    0  0.85405488821E+02 -0.38252980931E+02  0.24768091648E+03  0.26477013513E+03  0.00000000000E+00 0. -1.
         22    1    3    3    0    0  0.91442552877E+02 -0.12956105981E+02  0.44529942128E+02  0.10253056571E+03  0.00000000000E+00 0. -1.
</event>
<event>
 7    1  0.6557591E-006  0.8456295E+02  0.7818608E-02  0.1416308E+00
          2   -1    0    0  502    0  0.00000000000E+00  0.00000000000E+00  0.14379295460E+04  0.14379295460E+04  0.00000000000E+00 0. -1.
          1   -1    0    0  501    0 -0.00000000000E+00 -0.00000000000E+00 -0.80365272101E+03  0.80365272101E+03  0.00000000000E+00 0. -1.
         25    2    1    2    0    0 -0.59892241751E+02  0.19325724092E+02  0.35552498572E+01  0.14000137441E+03  0.12500872291E+03 0.  0.
          2    1    1    2  501    0  0.85151252182E+02  0.74823044357E+01 -0.73269627065E+03  0.73766560557E+03  0.00000000000E+00 0. -1.
          1    1    1    2  502    0 -0.25259010431E+02 -0.26808028528E+02  0.13634178457E+04  0.13639152870E+04  0.00000000000E+00 0. -1.
         22    1    3    3    0    0 -0.29908830448E+02  0.71479488932E+02  0.14571402810E+02  0.78842762867E+02  0.00000000000E+00 0. -1.
         22    1    3    3    0    0 -0.29983411303E+02 -0.52153764840E+02 -0.11016152953E+02  0.61158611546E+02  0.00000000000E+00 0. -1.
</event>
<event>
 7    1  0.6557591E-006  0.1890427E+03  0.7818608E-02  0.1261994E+00
          2   -1    0    0  502    0  0.00000000000E+00  0.00000000000E+00  0.13506115547E+04  0.13506115547E+04  0.00000000000E+00 0. -1.
          1   -1    0    0  501    0 -0.00000000000E+00 -0.00000000000E+00 -0.24094181423E+03  0.24094181423E+03  0.00000000000E+00 0. -1.
         25    2    1    2    0    0 -0.20930303150E+03 -0.11644296723E+03  0.27132682919E+03  0.38289671526E+03  0.12499969083E+03 0.  0.
          2    1    1    2  501    0  0.16930692078E+03  0.67613218591E+02 -0.13901477409E+03  0.22926292367E+03  0.00000000000E+00 0. -1.
          1    1    1    2  502    0  0.39996110722E+02  0.48829748638E+02  0.97735768538E+03  0.97939373001E+03  0.00000000000E+00 0. -1.
         22    1    3    3    0    0 -0.17077687348E+03 -0.75327671754E+02  0.12121339385E+03  0.22255715108E+03  0.00000000000E+00 0. -1.
         22    1    3    3    0    0 -0.38526158025E+02 -0.41115295475E+02  0.15011343534E+03  0.16033956419E+03  0.00000000000E+00 0. -1.
</event>
<event>
 7    1  0.6557591E-006  0.6102733E+02  0.7818608E-02  0.1472093E+00
          2   -1    0    0  502    0  0.00000000000E+00  0.00000000000E+00  0.17860959466E+04  0.17860959466E+04  0.00000000000E+00 0. -1.
          1   -1    0    0  501    0 -0.00000000000E+00 -0.00000000000E+00 -0.69319142516E+02  0.69319142516E+02  0.00000000000E+00 0. -1.
         25    2    1    2    0    0  0.68151514163E+02  0.45291519905E+01  0.14792607660E+04  0.14861021521E+04  0.12498820144E+03 0.  0.
          2    1    1    2  501    0 -0.50992367715E+02 -0.33554515815E+02 -0.50565201763E+02  0.79265167168E+02  0.00000000000E+00 0. -1.
          1    1    1    2  502    0 -0.17159146448E+02  0.29025363825E+02  0.28808123979E+03  0.29004776981E+03  0.00000000000E+00 0. -1.
         22    1    3    3    0    0  0.96701088090E+02  0.32637076801E+02  0.10168383771E+04  0.10219474372E+04  0.00000000000E+00 0. -1.
         22    1    3    3    0    0 -0.28549573927E+02 -0.28107924811E+02  0.46242238894E+03  0.46415471494E+03  0.00000000000E+00 0. -1.
</event>
<event>
 7    1  0.6557591E-006  0.1321189E+03  0.7818608E-02  0.1280641E+00
          2   -1    0    0  502    0  0.00000000000E+00  0.00000000000E+00  0.77195945047E+03  0.77195945047E+03  0.00000000000E+00 0. -1.
          1   -1    0    0  501    0 -0.00000000000E+00 -0.00000000000E+00 -0.58123354886E+03  0.58123354886E+03  0.00000000000E+00 0. -1.
         25    2    1    2    0    0  0.17795174168E+03 -0.98183411479E+02 -0.16476005959E+02  0.23917182792E+03  0.12499959936E+03 0.  0.
          2    1    1    2  501    0 -0.69903034403E+02  0.28371382970E+02 -0.44393458691E+03  0.45029910842E+03  0.00000000000E+00 0. -1.
          1    1    1    2  502    0 -0.10804870728E+03  0.69812028509E+02  0.65113649448E+03  0.66372206300E+03  0.00000000000E+00 0. -1.
         22    1    3    3    0    0  0.13577400350E+02  0.69908275157E+01 -0.39810663047E+02  0.42639258458E+02  0.00000000000E+00 0.  1.
         22    1    3    3    0    0  0.16437434133E+03 -0.10517423899E+03  0.23334657088E+02  0.19653256946E+03  0.00000000000E+00 0.  1.
</event>
<event>
 7    1  0.6557591E-006  0.1207208E+03  0.7818608E-02  0.1448871E+00
          2   -1    0    0  502    0  0.00000000000E+00  0.00000000000E+00  0.43859840872E+03  0.43859840872E+03  0.00000000000E+00 0. -1.
          1   -1    0    0  501    0 -0.00000000000E+00 -0.00000000000E+00 -0.17301016844E+04  0.17301016844E+04  0.00000000000E+00 0. -1.
         25    2    1    2    0    0 -0.63984867452E+02  0.85662965425E+02 -0.73143467061E+03  0.74970084659E+03  0.12498990001E+03 0.  0.
          2    1    1    2  501    0  0.78485296300E+02 -0.99690675992E+02 -0.98522662140E+03  0.99336280790E+03  0.00000000000E+00 0. -1.
          1    1    1    2  502    0 -0.14500428848E+02  0.14027710567E+02  0.42515801629E+03  0.42563643866E+03  0.00000000000E+00 0. -1.
         22    1    3    3    0    0 -0.88379092500E+02  0.18821831571E+02 -0.47806325773E+03  0.48652811196E+03  0.00000000000E+00 0.  1.
         22    1    3    3    0    0  0.24394225048E+02  0.66841133854E+02 -0.25337141288E+03  0.26317273463E+03  0.00000000000E+00 0.  1.
</event>
<event>
 7    1  0.6557591E-006  0.9043298E+02  0.7818608E-02  0.1339507E+00
          2   -1    0    0  502    0  0.00000000000E+00  0.00000000000E+00  0.81231424892E+03  0.81231424892E+03  0.00000000000E+00 0. -1.
          1   -1    0    0  501    0 -0.00000000000E+00 -0.00000000000E+00 -0.63747522328E+03  0.63747522328E+03  0.00000000000E+00 0. -1.
         25    2    1    2    0    0  0.24946416065E+02  0.16785844628E+02 -0.10261338315E+03  0.16449550831E+03  0.12500071040E+03 0.  0.
          2    1    1    2  501    0  0.27425614270E+02  0.58478912087E+02 -0.49914270109E+03  0.50330446405E+03  0.00000000000E+00 0. -1.
          1    1    1    2  502    0 -0.52372030335E+02 -0.75264756715E+02  0.77659510988E+03  0.78198949983E+03  0.00000000000E+00 0. -1.
         22    1    3    3    0    0 -0.17497997486E+02  0.42357203475E+01 -0.11667401289E+03  0.11805484542E+03  0.00000000000E+00 0. -1.
         22    1    3    3    0    0  0.42444413552E+02  0.12550124280E+02  0.14060629743E+02  0.46440662893E+02  0.00000000000E+00 0. -1.
</event>
<event>
 7    1  0.6557591E-006  0.7321889E+02  0.7818608E-02  0.1387941E+00
          2   -1    0    0  502    0  0.00000000000E+00  0.00000000000E+00  0.85213806601E+02  0.85213806601E+02  0.00000000000E+00 0. -1.
          1   -1    0    0  501    0 -0.00000000000E+00 -0.00000000000E+00 -0.36254457147E+03  0.36254457147E+03  0.00000000000E+00 0. -1.
         25    2    1    2    0    0 -0.99102203310E+02 -0.22242756417E+02 -0.52437992133E+02  0.16937918715E+03  0.12499431630E+03 0.  0.
          2    1    1    2  501    0  0.68354339765E+02 -0.21192361804E+02 -0.21181661280E+03  0.22357931350E+03  0.00000000000E+00 0. -1.
          1    1    1    2  502    0  0.30747863545E+02  0.43435118220E+02 -0.13076159931E+02  0.54799877426E+02  0.00000000000E+00 0. -1.
         22    1    3    3    0    0 -0.12868902757E+03 -0.13770764043E+02 -0.49093643704E+02  0.13842212833E+03  0.00000000000E+00 0. -1.
         22    1    3    3    0    0  0.29586824257E+02 -0.84719923744E+01 -0.33443484289E+01  0.30957058821E+02  0.00000000000E+00 0. -1.
</event>
<event>
 7    1  0.6557591E-006  0.3745975E+02  0.7818608E-02  0.1586803E+00
          2   -1    0    0  502    0  0.00000000000E+00  0.00000000000E+00  0.15898938238E+04  0.15898938238E+04  0.00000000000E+00 0. -1.
          1   -1    0    0  501    0 -0.00000000000E+00 -0.00000000000E+00 -0.21121641150E+02  0.21121641150E+02  0.00000000000E+00 0. -1.
         25    2    1    2    0    0 -0.43878109401E+02 -0.26703503550E+02  0.30755374594E+03  0.33593557072E+03  0.12500014177E+03 0.  0.
          2    1    1    2  501    0  0.18511724557E+02  0.31019572667E+02  0.41213906907E+02  0.54804050553E+02  0.00000000000E+00 0. -1.
          1    1    1    2  502    0  0.25366384844E+02 -0.43160691175E+01  0.12200045298E+04  0.12202758437E+04  0.00000000000E+00 0. -1.
         22    1    3    3    0    0 -0.43658907303E+02 -0.74363314281E+02  0.17542084337E+03  0.19546988256E+03  0.00000000000E+00 0.  1.
         22    1    3    3    0    0 -0.21920209840E+00  0.47659810731E+02  0.13213290257E+03  0.14046568816E+03  0.00000000000E+00 0.  1.
</event>
<event>
 7    1  0.6557591E-006  0.1309258E+03  0.7818608E-02  0.1342856E+00
          2   -1    0    0  502    0  0.00000000000E+00  0.00000000000E+00  0.44145820769E+03  0.44145820769E+03  0.00000000000E+00 0. -1.
          1   -1    0    0  501    0 -0.00000000000E+00 -0.00000000000E+00 -0.19881602604E+04  0.19881602604E+04  0.00000000000E+00 0. -1.
         25    2    1    2    0    0 -0.80056143209E+02  0.48127663906E+02  0.16041641476E+02  0.15686914090E+03  0.12500134002E+03 0.  0.
          2    1    1    2  501    0  0.12337630958E+03 -0.46787216404E+02 -0.19141438964E+04  0.19186864292E+04  0.00000000000E+00 0. -1.
          1    1    1    2  502    0 -0.43320166374E+02 -0.13404475017E+01  0.35140020223E+03  0.35406289800E+03  0.00000000000E+00 0. -1.
         22    1    3    3    0    0 -0.10083769127E+03  0.52408828304E+02 -0.19666267594E+02  0.11533294129E+03  0.00000000000E+00 0. -1.
         22    1    3    3    0    0  0.20781548061E+02 -0.42811643977E+01  0.35707909070E+02  0.41536199616E+02  0.00000000000E+00 0. -1.
</event>
<event>
 7    1  0.6557591E-006  0.1206001E+03  0.7818608E-02  0.1245995E+00
          2   -1    0    0  502    0  0.00000000000E+00  0.00000000000E+00  0.58686091179E+03  0.58686091179E+03  0.00000000000E+00 0. -1.
          1   -1    0    0  501    0 -0.00000000000E+00 -0.00000000000E+00 -0.12747973535E+04  0.12747973535E+04  0.00000000000E+00 0. -1.
         25    2    1    2    0    0 -0.59067947424E+02  0.20492702097E+02 -0.11302066882E+03  0.17975161673E+03  0.12501199496E+03 0.  0.
          2    1    1    2  501    0  0.50381822784E+02  0.10444941858E+03 -0.11182893165E+04  0.11242859977E+04  0.00000000000E+00 0. -1.
          1    1    1    2  502    0  0.86861246396E+01 -0.12494212068E+03  0.54337354368E+03  0.55762065085E+03  0.00000000000E+00 0. -1.
         22    1    3    3    0    0 -0.94634176454E+02  0.34931006876E+02 -0.74791200319E+02  0.12557677428E+03  0.00000000000E+00 0.  1.
         22    1    3    3    0    0  0.35566229030E+02 -0.14438304779E+02 -0.38229468499E+02  0.54174842446E+02  0.00000000000E+00 0.  1.
</event>
<event>
 7    1  0.6557591E-006  0.5416482E+02  0.7818608E-02  0.1448323E+00
          2   -1    0    0  502    0  0.00000000000E+00  0.00000000000E+00  0.59390136543E+03  0.59390136543E+03  0.00000000000E+00 0. -1.
          1   -1    0    0  501    0 -0.00000000000E+00 -0.00000000000E+00 -0.12694615826E+03  0.12694615826E+03  0.00000000000E+00 0. -1.
         25    2    1    2    0    0  0.20668824925E+02 -0.17182349590E+02  0.12530674487E+03  0.17902498830E+03  0.12500293063E+03 0.  0.
          2    1    1    2  501    0 -0.21832856778E+02 -0.39518019819E+02 -0.93058262150E+02  0.10343204378E+03  0.00000000000E+00 0. -1.
          1    1    1    2  502    0  0.11640318532E+01  0.56700369409E+02  0.43470672444E+03  0.43839049161E+03  0.00000000000E+00 0. -1.
         22    1    3    3    0    0  0.40925518537E+02 -0.56743325071E+02  0.34679003129E+02  0.78085442086E+02  0.00000000000E+00 0. -1.
         22    1    3    3    0    0 -0.20256693612E+02  0.39560975481E+02  0.90627741743E+02  0.10093954622E+03  0.00000000000E+00 0. -1.
</event>
<event>
 7    1  0.6557591E-006  0.4850076E+02  0.7818608E-02  0.1456923E+00
          2   -1    0    0  502    0  0.00000000000E+00  0.00000000000E+00  0.21479681855E+02  0.21479681855E+02  0.00000000000E+00 0. -1.
          1   -1    0    0  501    0 -0.00000000000E+00 -0.00000000000E+00 -0.20614557836E+04  0.20614557836E+04  0.00000000000E+00 0. -1.
         25    2    1    2    0    0 -0.45789712145E+00 -0.21907906701E+02 -0.92625181097E+03  0.93490365759E+03  0.12498906191E+03 0.  0.
          2    1    1    2  501    0  0.47616945056E+02  0.26002555216E+02 -0.10962212857E+04  0.10975630340E+04  0.00000000000E+00 0. -1.
          1    1    1    2  502    0 -0.47159047935E+02 -0.40946485155E+01 -0.17503005031E+02  0.50468773847E+02  0.00000000000E+00 0. -1.
         22    1    3    3    0    0 -0.14097961432E+02  0.40306982941E+02 -0.65014213066E+03  0.65154293446E+03  0.00000000000E+00 0.  1.
         22    1    3    3    0    0  0.13640064311E+02 -0.62214889641E+02 -0.27610968031E+03  0.28336072312E+03  0.00000000000E+00 0.  1.
</event>
<event>
 7    1  0.6557591E-006  0.2542540E+03  0.7818608E-02  0.1208723E+00
          2   -1    0    0  502    0  0.00000000000E+00  0.00000000000E+00  0.26279331324E+04  0.26279331324E+04  0.00000000000E+00 0. -1.
          1   -1    0    0  501    0 -0.00000000000E+00 -0.00000000000E+00 -0.31565923677E+04  0.31565923677E+04  0.00000000000E+00 0. -1.
         25    2    1    2    0    0 -0.20225746885E+03  0.20642766591E+03  0.36952792387E+03  0.48548639870E+03  0.12500276737E+03 0.  0.
          2    1    1    2  501    0  0.21971030327E+03 -0.12736385566E+03 -0.30926618195E+04  0.31030712687E+04  0.00000000000E+00 0. -1.
          1    1    1    2  502    0 -0.17452834421E+02 -0.79063810250E+02  0.21944746603E+04  0.21959678327E+04  0.00000000000E+00 0. -1.
         22    1    3    3    0    0 -0.73019199821E+02  0.36668079779E+01  0.68196273058E+02  0.99979901391E+02  0.00000000000E+00 0. -1.
         22    1    3    3    0    0 -0.12923826903E+03  0.20276085793E+03  0.30133165081E+03  0.38550649731E+03  0.00000000000E+00 0. -1.
</event>
<event>
 7    1  0.6557591E-006  0.9996847E+02  0.7818608E-02  0.1288431E+00
          2   -1    0    0  502    0  0.00000000000E+00  0.00000000000E+00  0.70517004611E+02  0.70517004611E+02  0.00000000000E+00 0. -1.
          1   -1    0    0  501    0 -0.00000000000E+00 -0.00000000000E+00 -0.21951933543E+04  0.21951933543E+04  0.00000000000E+00 0. -1.
         25    2    1    2    0    0  0.55536028177E+02  0.50073534780E+01 -0.11731708153E+03  0.18027129055E+03  0.12500046626E+03 0.  0.
          2    1    1    2  501    0 -0.37845941680E+02 -0.95933002200E+02 -0.19881686487E+04  0.19908415386E+04  0.00000000000E+00 0. -1.
          1    1    1    2  502    0 -0.17690086498E+02  0.90925648722E+02 -0.19190619449E+02  0.94597529728E+02  0.00000000000E+00 0. -1.
         22    1    3    3    0    0  0.42064693118E+02  0.41890035132E+02 -0.30471874844E+01  0.59443240171E+02  0.00000000000E+00 0. -1.
         22    1    3    3    0    0  0.13471335060E+02 -0.36882681654E+02 -0.11426989405E+03  0.12082805038E+03  0.00000000000E+00 0. -1.
</event>
<event>
 7    1  0.6557591E-006  0.1225307E+03  0.7818608E-02  0.1273416E+00
          2   -1    0    0  502    0  0.00000000000E+00  0.00000000000E+00  0.17840860742E+04  0.17840860742E+04  0.00000000000E+00 0. -1.
          1   -1    0    0  501    0 -0.00000000000E+00 -0.00000000000E+00 -0.17851392804E+03  0.17851392804E+03  0.00000000000E+00 0. -1.
         25    2    1    2    0    0 -0.43047755304E+02 -0.46624822640E+02  0.44852038989E+02  0.14718913012E+03  0.12500380514E+03 0.  0.
          2    1    1    2  501    0  0.11199856963E+03  0.99945043500E+02 -0.81549156798E+02  0.17083019725E+03  0.00000000000E+00 0. -1.
          1    1    1    2  502    0 -0.68950814324E+02 -0.53320220859E+02  0.16422692640E+04  0.16445806749E+04  0.00000000000E+00 0. -1.
         22    1    3    3    0    0 -0.53031660365E+02 -0.66750853217E+00 -0.28383629431E+02  0.60153412109E+02  0.00000000000E+00 0. -1.
         22    1    3    3    0    0  0.99839050609E+01 -0.45957314108E+02  0.73235668420E+02  0.87035718009E+02  0.00000000000E+00 0. -1.
</event>
<event>
 7    1  0.6557591E-006  0.1021267E+03  0.7818608E-02  0.1446214E+00
          2   -1    0    0  502    0  0.00000000000E+00  0.00000000000E+00  0.11783570607E+04  0.11783570607E+04  0.00000000000E+00 0. -1.
          1   -1    0    0  501    0 -0.00000000000E+00 -0.00000000000E+00 -0.19620123114E+04  0.19620123114E+04  0.00000000000E+00 0. -1.
         25    2    1    2    0    0 -0.11801493006E+03 -0.44266229038E+02  0.57744642091E+03  0.60411621545E+03  0.12500003997E+03 0.  0.
          2    1    1    2  501    0  0.96808435615E+02  0.32357015333E+02 -0.19470883219E+04  0.19497619811E+04  0.00000000000E+00 0. -1.
          1    1    1    2  502    0  0.21206494442E+02  0.11909213705E+02  0.58598665022E+03  0.58649117557E+03  0.00000000000E+00 0. -1.
         22    1    3    3    0    0 -0.47600551570E+02 -0.79873094488E+02  0.38612130347E+03  0.39715889103E+03  0.00000000000E+00 0. -1.
         22    1    3    3    0    0 -0.70414378487E+02  0.35606865451E+02  0.19132511744E+03  0.20695732441E+03  0.00000000000E+00 0. -1.
</event>
<event>
 7    1  0.6557591E-006  0.1338654E+03  0.7818608E-02  0.1275048E+00
          2   -1    0    0  502    0  0.00000000000E+00  0.00000000000E+00  0.93324001877E+03  0.93324001877E+03  0.00000000000E+00 0. -1.
          1   -1    0    0  501    0 -0.00000000000E+00 -0.00000000000E+00 -0.13115885530E+03  0.13115885530E+03  0.00000000000E+00 0. -1.
         25    2    1    2    0    0 -0.32187985094E+02 -0.11619168952E+03  0.40899761311E+02  0.17842406825E+03  0.12500313020E+03 0.  0.
          2    1    1    2  501    0  0.11033555784E+03  0.10833109363E+03  0.38912830369E+02  0.15944832874E+03  0.00000000000E+00 0. -1.
          1    1    1    2  502    0 -0.78147572746E+02  0.78605958950E+01  0.72226857179E+03  0.72652647708E+03  0.00000000000E+00 0. -1.
         22    1    3    3    0    0 -0.33971877311E+02 -0.10463481715E+03 -0.23899928453E+02  0.11257770644E+03  0.00000000000E+00 0. -1.
         22    1    3    3    0    0  0.17838922179E+01 -0.11556872373E+02  0.64799689764E+02  0.65846361813E+02  0.00000000000E+00 0. -1.
</event>
<event>
 7    1  0.6557591E-006  0.5780409E+02  0.7818608E-02  0.1409323E+00
          2   -1    0    0  502    0  0.00000000000E+00  0.00000000000E+00  0.31930017828E+03  0.31930017828E+03  0.00000000000E+00 0. -1.
          1   -1    0    0  501    0 -0.00000000000E+00 -0.00000000000E+00 -0.18037876950E+03  0.18037876950E+03  0.00000000000E+00 0. -1.
         25    2    1    2    0    0 -0.23352302694E+02  0.13340017368E+02  0.73051000600E+02  0.14725765110E+03  0.12500032405E+03 0.  0.
          2    1    1    2  501    0 -0.12993606199E+02 -0.58287629524E+02 -0.13274820548E+03  0.14556224654E+03  0.00000000000E+00 0. -1.
          1    1    1    2  502    0  0.36345908893E+02  0.44947612156E+02  0.19861861367E+03  0.20685905014E+03  0.00000000000E+00 0. -1.
         22    1    3    3    0    0 -0.34949062816E+02 -0.31827722626E+02  0.86630649246E+02  0.98687944087E+02  0.00000000000E+00 0.  1.
         22    1    3    3    0    0  0.11596760122E+02  0.45167739994E+02 -0.13579648646E+02  0.48569707008E+02  0.00000000000E+00 0.  1.
</event>
<event>
 7    1  0.6557591E-006  0.4120354E+02  0.7818608E-02  0.1516294E+00
          2   -1    0    0  502    0  0.00000000000E+00  0.00000000000E+00  0.71800748364E+03  0.71800748364E+03  0.00000000000E+00 0. -1.
          1   -1    0    0  501    0 -0.00000000000E+00 -0.00000000000E+00 -0.26999095862E+03  0.26999095862E+03  0.00000000000E+00 0. -1.
         25    2    1    2    0    0  0.42249163950E+02 -0.36317157345E+02  0.15439108843E+03  0.20631524648E+03  0.12500177988E+03 0.  0.
          2    1    1    2  501    0 -0.41193343407E+02 -0.43542249258E+00 -0.24165512864E+03  0.24514135174E+03  0.00000000000E+00 0. -1.
          1    1    1    2  502    0 -0.10558205433E+01  0.36752579838E+02  0.53528056523E+03  0.53654184403E+03  0.00000000000E+00 0. -1.
         22    1    3    3    0    0 -0.41832725946E+02  0.60531894702E+01  0.40436249206E+02  0.58495370010E+02  0.00000000000E+00 0.  1.
         22    1    3    3    0    0  0.84081889896E+02 -0.42370346815E+02  0.11395483922E+03  0.14781987647E+03  0.00000000000E+00 0.  1.
</event>
<event>
 7    1  0.6557591E-006  0.1308787E+03  0.7818608E-02  0.1369386E+00
          2   -1    0    0  502    0  0.00000000000E+00  0.00000000000E+00  0.90343460328E+03  0.90343460328E+03  0.00000000000E+00 0. -1.
          1   -1    0    0  501    0 -0.00000000000E+00 -0.00000000000E+00 -0.15680715619E+03  0.15680715619E+03  0.00000000000E+00 0. -1.
         25    2    1    2    0    0  0.67595961303E+02  0.14249567996E+03  0.75785732233E+03  0.78412185324E+03  0.12500050771E+03 0.  0.
          2    1    1    2  501    0 -0.38205242396E+02 -0.12415082956E+03 -0.11077580300E+03  0.17071715660E+03  0.00000000000E+00 0. -1.
          1    1    1    2  502    0 -0.29390718908E+02 -0.18344850407E+02  0.99545927759E+02  0.10540274962E+03  0.00000000000E+00 0. -1.
         22    1    3    3    0    0  0.97424273365E+02  0.96996982433E+02  0.42041429654E+03  0.44232124568E+03  0.00000000000E+00 0.  1.
         22    1    3    3    0    0 -0.29828312061E+02  0.45498697532E+02  0.33744302579E+03  0.34180060757E+03  0.00000000000E+00 0.  1.
</event>
<event>
 7    1  0.6557591E-006  0.5324109E+02  0.7818608E-02  0.1460616E+00
          2   -1    0    0  502    0  0.00000000000E+00  0.00000000000E+00  0.14296762091E+04  0.14296762091E+04  0.00000000000E+00 0. -1.
          1   -1    0    0  501    0 -0.00000000000E+00 -0.00000000000E+00 -0.48824805591E+03  0.48824805591E+03  0.00000000000E+00 0. -1.
         25    2    1    2    0    0 -0.28874525066E+02 -0.57549222859E+02  0.12855488662E+03  0.19051635937E+03  0.12499789223E+03 0.  0.
          2    1    1    2  501    0 -0.12700798740E+02  0.51744862074E+02 -0.45536679560E+03  0.45847329211E+03  0.00000000000E+00 0. -1.
          1    1    1    2  502    0  0.41575323805E+02  0.58043607849E+01  0.12682400622E+04  0.12689346136E+04  0.00000000000E+00 0. -1.
         22    1    3    3    0    0 -0.71985693375E+01 -0.75865902605E+02  0.14041286528E+03  0.15975990522E+03  0.00000000000E+00 0. -1.
         22    1    3    3    0    0 -0.21675955728E+02  0.18316679746E+02 -0.11857978662E+02  0.30756454145E+02  0.00000000000E+00 0. -1.
</event>
<event>
 7    1  0.6557591E-006  0.1262324E+03  0.7818608E-02  0.1254370E+00
          2   -1    0    0  502    0  0.00000000000E+00  0.00000000000E+00  0.13743483265E+04  0.13743483265E+04  0.00000000000E+00 0. -1.
          1   -1    0    0  501    0 -0.00000000000E+00 -0.00000000000E+00 -0.84540224264E+03  0.84540224264E+03  0.00000000000E+00 0. -1.
         25    2    1    2    0    0 -0.21453375636E+03  0.18633924115E+02 -0.23583801092E+03  0.34294284856E+03  0.12497309405E+03 0.  0.
          2    1    1    2  501    0  0.11606141094E+03  0.75832556027E+01 -0.54793300448E+03  0.56014135205E+03  0.00000000000E+00 0. -1.
          1    1    1    2  502    0  0.98472345423E+02 -0.26217179718E+02  0.13127170992E+04  0.13166663685E+04  0.00000000000E+00 0. -1.
         22    1    3    3    0    0 -0.15436379209E+02 -0.22041367797E+02 -0.86971165697E+02  0.91038933210E+02  0.00000000000E+00 0. -1.
         22    1    3    3    0    0 -0.19909737715E+03  0.40675291912E+02 -0.14886684522E+03  0.25190391535E+03  0.00000000000E+00 0. -1.
</event>
<event>
 7    1  0.6557591E-006  0.9001982E+02  0.7818608E-02  0.1390008E+00
          2   -1    0    0  502    0  0.00000000000E+00  0.00000000000E+00  0.21526105223E+04  0.21526105223E+04  0.00000000000E+00 0. -1.
          1   -1    0    0  501    0 -0.00000000000E+00 -0.00000000000E+00 -0.12204043542E+02  0.12204043542E+02  0.00000000000E+00 0. -1.
         25    2    1    2    0    0 -0.82722315626E+02 -0.45864394366E+02  0.16381417986E+04  0.16456246878E+04  0.12500214664E+03 0.  0.
          2    1    1    2  501    0  0.32496742374E+02 -0.27499485907E+02  0.16476824523E+03  0.17017883131E+03  0.00000000000E+00 0. -1.
          1    1    1    2  502    0  0.50225573252E+02  0.73363880274E+02  0.33749643486E+03  0.34901104664E+03  0.00000000000E+00 0. -1.
         22    1    3    3    0    0 -0.11449281875E+03 -0.43878548913E+02  0.14011435323E+04  0.14064981801E+04  0.00000000000E+00 0.  1.
         22    1    3    3    0    0  0.31770503122E+02 -0.19858454534E+01  0.23699826631E+03  0.23912650770E+03  0.00000000000E+00 0.  1.
</event>
<event>
 7    1  0.6557591E-006  0.6507019E+02  0.7818608E-02  0.1450244E+00
          2   -1    0    0  502    0  0.00000000000E+00  0.00000000000E+00  0.10539302185E+04  0.10539302185E+04  0.00000000000E+00 0. -1.
          1   -1    0    0  501    0 -0.00000000000E+00 -0.00000000000E+00 -0.74881240038E+03  0.74881240038E+03  0.00000000000E+00 0. -1.
         25    2    1    2    0    0  0.28434609922E+02  0.55886365544E+01  0.22471294483E+01  0.12833809509E+03  0.12500342860E+03 0.  0.
          2    1    1    2  501    0 -0.63882576611E+02 -0.16376149743E+02 -0.68383286803E+03  0.68700549726E+03  0.00000000000E+00 0. -1.
          1    1    1    2  502    0  0.35447966689E+02  0.10787513189E+02  0.98670355669E+03  0.98739902652E+03  0.00000000000E+00 0. -1.
         22    1    3    3    0    0  0.17774504658E+02 -0.21000193568E+02 -0.56575786854E+02  0.62910736794E+02  0.00000000000E+00 0. -1.
         22    1    3    3    0    0  0.10660105264E+02  0.26588830123E+02  0.58822916302E+02  0.65427358298E+02  0.00000000000E+00 0. -1.
</event>
<event>
 7    1  0.6557591E-006  0.6327448E+02  0.7818608E-02  0.1388948E+00
          2   -1    0    0  502    0  0.00000000000E+00  0.00000000000E+00  0.13955930526E+04  0.13955930526E+04  0.00000000000E+00 0. -1.
          1   -1    0    0  501    0 -0.00000000000E+00 -0.00000000000E+00 -0.32712570631E+03  0.32712570631E+03  0.00000000000E+00 0. -1.
         25    2    1    2    0    0  0.41135695598E+01 -0.41475833194E+02 -0.71376201289E+02  0.14985536318E+03  0.12499960628E+03 0.  0.
          2    1    1    2  501    0  0.56930601606E+02  0.39301962894E+02 -0.21027570716E+03  0.22136307440E+03  0.00000000000E+00 0. -1.
          1    1    1    2  502    0 -0.61044171166E+02  0.21738703007E+01  0.13501192548E+04  0.13515003214E+04  0.00000000000E+00 0. -1.
         22    1    3    3    0    0 -0.34959450574E+02  0.27570686477E+02 -0.51481190813E+02  0.68063345090E+02  0.00000000000E+00 0.  1.
         22    1    3    3    0    0  0.39073020134E+02 -0.69046519672E+02 -0.19895010476E+02  0.81792018088E+02  0.00000000000E+00 0.  1.
</event>
<event>
 7    1  0.6557591E-006  0.6122719E+02  0.7818608E-02  0.1434667E+00
          2   -1    0    0  502    0  0.00000000000E+00  0.00000000000E+00  0.18437100644E+04  0.18437100644E+04  0.00000000000E+00 0. -1.
          1   -1    0    0  501    0 -0.00000000000E+00 -0.00000000000E+00 -0.52415449663E+03  0.52415449663E+03  0.00000000000E+00 0. -1.
         25    2    1    2    0    0 -0.74977365031E+02 -0.72570057024E+02  0.35879469212E+02  0.16671829677E+03  0.12497854106E+03 0.  0.
          2    1    1    2  501    0  0.40774072447E+02  0.44539389006E+02 -0.45646581953E+03  0.46044253339E+03  0.00000000000E+00 0. -1.
          1    1    1    2  502    0  0.34203292583E+02  0.28030668017E+02  0.17401419181E+04  0.17407037308E+04  0.00000000000E+00 0. -1.
         22    1    3    3    0    0 -0.79723519530E+02 -0.55621293840E+02 -0.27432379006E+02  0.10100546180E+03  0.00000000000E+00 0. -1.
         22    1    3    3    0    0  0.47461544995E+01 -0.16948763183E+02  0.63311848218E+02  0.65712834977E+02  0.00000000000E+00 0. -1.
</event>
<event>
 7    1  0.6557591E-006  0.6552139E+02  0.7818608E-02  0.1420261E+00
          2   -1    0    0  502    0  0.00000000000E+00  0.00000000000E+00  0.25910033801E+03  0.25910033801E+03  0.00000000000E+00 0. -1.
          1   -1    0    0  501    0 -0.00000000000E+00 -0.00000000000E+00 -0.13357990436E+04  0.13357990436E+04  0.00000000000E+00 0. -1.
         25    2    1    2    0    0  0.18760912041E+02 -0.20045448670E+02  0.10659308684E+02  0.12842438887E+03  0.12500164384E+03 0.  0.
          2    1    1    2  501    0  0.46040229971E+01 -0.45880163334E+02 -0.12700318640E+04  0.12708686486E+04  0.00000000000E+00 0. -1.
          1    1    1    2  502    0 -0.23364935038E+02  0.65925612004E+02  0.18267384971E+03  0.19560634416E+03  0.00000000000E+00 0. -1.
         22    1    3    3    0    0  0.34565151729E+02 -0.51415646358E+02 -0.34734663380E+02  0.71026862838E+02  0.00000000000E+00 0.  1.
         22    1    3    3    0    0 -0.15804239688E+02  0.31370197688E+02  0.45393972064E+02  0.57397526034E+02  0.00000000000E+00 0.  1.
</event>
<event>
 7    1  0.6557591E-006  0.7317735E+02  0.7818608E-02  0.1365119E+00
          2   -1    0    0  502    0  0.00000000000E+00  0.00000000000E+00  0.62825944946E+03  0.62825944946E+03  0.00000000000E+00 0. -1.
          1   -1    0    0  501    0 -0.00000000000E+00 -0.00000000000E+00 -0.53408709979E+03  0.53408709979E+03  0.00000000000E+00 0. -1.
         25    2    1    2    0    0 -0.69224066707E+02 -0.26773668969E+02  0.50692857719E+03  0.52736172331E+03  0.12500001630E+03 0.  0.
          2    1    1    2  501    0  0.11706986204E+02  0.72234833598E+02 -0.50886820446E+03  0.51410288291E+03  0.00000000000E+00 0. -1.
          1    1    1    2  502    0  0.57517080503E+02 -0.45461164629E+02  0.96111976942E+02  0.12088194303E+03  0.00000000000E+00 0. -1.
         22    1    3    3    0    0 -0.66377590351E+02  0.39307051912E+02  0.31678983067E+03  0.32604727517E+03  0.00000000000E+00 0. -1.
         22    1    3    3    0    0 -0.28464763566E+01 -0.66080720881E+02  0.19013874652E+03  0.20131444814E+03  0.00000000000E+00 0. -1.
</event>
<event>
 7    1  0.6557591E-006  0.1133647E+03  0.7818608E-02  0.1280997E+00
          2   -1    0    0  502    0  0.00000000000E+00  0.00000000000E+00  0.19796284371E+04  0.19796284371E+04  0.00000000000E+00 0. -1.
          1   -1    0    0  501    0 -0.00000000000E+00 -0.00000000000E+00 -0.68364015756E+03  0.68364015756E+03  0.00000000000E+00 0. -1.
         25    2    1    2    0    0 -0.15030723040E+03 -0.81335141941E+02  0.19815200163E+03  0.28999456516E+03  0.12499985300E+03 0.  0.
          2    1    1    2  501    0  0.11254493414E+03  0.22646969918E+01 -0.63163352949E+03  0.64158585289E+03  0.00000000000E+00 0. -1.
          1    1    1    2  502    0  0.37762296257E+02  0.79070444949E+02  0.17294698074E+04  0.17316881766E+04  0.00000000000E+00 0. -1.
         22    1    3    3    0    0 -0.17060874497E+03 -0.66168175976E+02  0.15436736213E+03  0.23940520851E+03  0.00000000000E+00 0.  1.
         22    1    3    3    0    0  0.20301514570E+02 -0.15166965965E+02  0.43784639501E+02  0.50589356654E+02  0.00000000000E+00 0.  1.
</event>
<event>
 7    1  0.6557591E-006  0.1990022E+03  0.7818608E-02  0.1210884E+00
          2   -1    0    0  502    0  0.00000000000E+00  0.00000000000E+00  0.15060791468E+04  0.15060791468E+04  0.00000000000E+00 0. -1.
          1   -1    0    0  501    0 -0.00000000000E+00 -0.00000000000E+00 -0.10081877456E+04  0.10081877456E+04  0.00000000000E+00 0. -1.
         25    2    1    2    0    0  0.83895573764E+02 -0.73076314784E+02  0.85533323628E+03  0.87154968423E+03  0.12500116765E+03 0.  0.
          2    1    1    2  501    0 -0.10105616999E+03  0.17269605053E+03 -0.98599227431E+03  0.10060899763E+04  0.00000000000E+00 0. -1.
          1    1    1    2  502    0  0.17160596231E+02 -0.99619735744E+02  0.62855043924E+03  0.63662723197E+03  0.00000000000E+00 0. -1.
         22    1    3    3    0    0 -0.24806194944E+01 -0.68343730345E+02  0.22084558214E+03  0.23119210648E+03  0.00000000000E+00 0.  1.
         22    1    3    3    0    0  0.86376193258E+02 -0.47325844394E+01  0.63448765414E+03  0.64035757774E+03  0.00000000000E+00 0.  1.
</event>
<event>
 7    1  0.6557591E-006  0.6057034E+02  0.7818608E-02  0.1506791E+00
          2   -1    0    0  502    0  0.00000000000E+00  0.00000000000E+00  0.79061240854E+03  0.79061240854E+03  0.00000000000E+00 0. -1.
          1   -1    0    0  501    0 -0.00000000000E+00 -0.00000000000E+00 -0.38425056890E+02  0.38425056890E+02  0.00000000000E+00 0. -1.
         25    2    1    2    0    0  0.29729597048E+02 -0.21357721931E+02  0.50559678435E+03  0.52210518836E+03  0.12500287254E+03 0.  0.
          2    1    1    2  501    0 -0.43924375170E+02  0.43938730039E+02  0.33341497402E+01  0.62217998087E+02  0.00000000000E+00 0. -1.
          1    1    1    2  502    0  0.14194778122E+02 -0.22581008108E+02  0.24325641756E+03  0.24471427898E+03  0.00000000000E+00 0. -1.
         22    1    3    3    0    0 -0.41418141878E+02 -0.24431952392E+02  0.10857741177E+03  0.11874947209E+03  0.00000000000E+00 0.  1.
         22    1    3    3    0    0  0.71147738926E+02  0.30742304611E+01  0.39701937258E+03  0.40335571627E+03  0.00000000000E+00 0.  1.
</event>
<event>
 7    1  0.6557591E-006  0.7008012E+02  0.7818608E-02  0.1521507E+00
          2   -1    0    0  502    0  0.00000000000E+00  0.00000000000E+00  0.86602534119E+03  0.86602534119E+03  0.00000000000E+00 0. -1.
          1   -1    0    0  501    0 -0.00000000000E+00 -0.00000000000E+00 -0.91437694392E+02  0.91437694392E+02  0.00000000000E+00 0. -1.
         25    2    1    2    0    0  0.17453345038E+02 -0.61765416778E+02  0.37954239496E+03  0.40472086466E+03  0.12500785079E+03 0.  0.
          2    1    1    2  501    0 -0.18288164222E+02 -0.10067154885E+02 -0.74686407915E+02  0.77549107573E+02  0.00000000000E+00 0. -1.
          1    1    1    2  502    0  0.83481918393E+00  0.71832571663E+02  0.46973165975E+03  0.47519306334E+03  0.00000000000E+00 0. -1.
         22    1    3    3    0    0  0.43166091077E+02 -0.83253335983E+02  0.18605042656E+03  0.20834872353E+03  0.00000000000E+00 0.  1.
         22    1    3    3    0    0 -0.25712746039E+02  0.21487919206E+02  0.19349196840E+03  0.19637214114E+03  0.00000000000E+00 0.  1.
</event>
<event>
 7    1  0.6557591E-006  0.1066092E+03  0.7818608E-02  0.1312214E+00
          2   -1    0    0  502    0  0.00000000000E+00  0.00000000000E+00  0.19026117820E+04  0.19026117820E+04  0.00000000000E+00 0. -1.
          1   -1    0    0  501    0 -0.00000000000E+00 -0.00000000000E+00 -0.80500084436E+03  0.80500084436E+03  0.00000000000E+00 0. -1.
         25    2    1    2    0    0  0.67578213963E+02  0.77443962707E+01 -0.82798904040E+02  0.16464065789E+03  0.12499638812E+03 0.  0.
          2    1    1    2  501    0 -0.97937350093E+02  0.55071353023E+02 -0.67598867051E+03  0.68526291387E+03  0.00000000000E+00 0. -1.
          1    1    1    2  502    0  0.30359136130E+02 -0.62815749294E+02  0.18563985122E+04  0.18577090546E+04  0.00000000000E+00 0. -1.
         22    1    3    3    0    0  0.85297116763E+02 -0.38102910151E+01 -0.66867341434E+01  0.85643615402E+02  0.00000000000E+00 0.  1.
         22    1    3    3    0    0 -0.17718902800E+02  0.11554687286E+02 -0.76112169897E+02  0.78997042483E+02  0.00000000000E+00 0.  1.
</event>
<event>
 7    1  0.6557591E-006  0.4921782E+02  0.7818608E-02  0.1559666E+00
          2   -1    0    0  502    0  0.00000000000E+00  0.00000000000E+00  0.17677165955E+04  0.17677165955E+04  0.00000000000E+00 0. -1.
          1   -1    0    0  501    0 -0.00000000000E+00 -0.00000000000E+00 -0.76738935803E+03  0.76738935803E+03  0.00000000000E+00 0. -1.
         25    2    1    2    0    0 -0.21390476434E+02 -0.58452770758E+02  0.69920389606E+03  0.71301476348E+03  0.12501874177E+03 0.  0.
          2    1    1    2  501    0  0.20914855502E+02  0.10018952945E+02 -0.75975442632E+03  0.76010828104E+03  0.00000000000E+00 0. -1.
          1    1    1    2  502    0  0.47562093102E+00  0.48433817813E+02  0.10608777677E+04  0.10619829090E+04  0.00000000000E+00 0. -1.
         22    1    3    3    0    0  0.61207522126E+01 -0.71515354942E+02  0.65732967710E+03  0.66123688191E+03  0.00000000000E+00 0. -1.
         22    1    3    3    0    0 -0.27511228646E+02  0.13062584185E+02  0.41874218955E+02  0.51777881574E+02  0.00000000000E+00 0. -1.
</event>
<event>
 7    1  0.6557591E-006  0.8605681E+02  0.7818608E-02  0.1369170E+00
          2   -1    0    0  502    0  0.00000000000E+00  0.00000000000E+00  0.96797009410E+03  0.96797009410E+03  0.00000000000E+00 0. -1.
          1   -1    0    0  501    0 -0.00000000000E+00 -0.00000000000E+00 -0.72840721511E+03  0.72840721511E+03  0.00000000000E+00 0. -1.
         25    2    1    2    0    0  0.23842692338E+02 -0.30877877220E+02 -0.11476179177E+03  0.17411674491E+03  0.12499781889E+03 0.  0.
          2    1    1    2  501    0 -0.57635058293E+02  0.71429150629E+02 -0.57961174723E+03  0.58683362295E+03  0.00000000000E+00 0. -1.
          1    1    1    2  502    0  0.33792365955E+02 -0.40551273408E+02  0.93393641798E+03  0.93542694135E+03  0.00000000000E+00 0. -1.
         22    1    3    3    0    0  0.63616136022E+02 -0.36782147800E+02 -0.28268635652E+02  0.78734077252E+02  0.00000000000E+00 0.  1.
         22    1    3    3    0    0 -0.39773443684E+02  0.59042705792E+01 -0.86493156120E+02  0.95382667656E+02  0.00000000000E+00 0.  1.
</event>
<event>
 7    1  0.6557591E-006  0.9861332E+02  0.7818608E-02  0.1330985E+00
          2   -1    0    0  502    0  0.00000000000E+00  0.00000000000E+00  0.70136125193E+03  0.70136125193E+03  0.00000000000E+00 0. -1.
          1   -1    0    0  501    0 -0.00000000000E+00 -0.00000000000E+00 -0.73863641538E+03  0.73863641538E+03  0.00000000000E+00 0. -1.
         25    2    1    2    0    0 -0.15041397324E+02 -0.12948571328E+03 -0.35598757883E+02  0.18407852999E+03  0.12499936026E+03 0.  0.
          2    1    1    2  501    0 -0.40884581264E+02  0.48985479354E+02 -0.62332903731E+03  0.62658615922E+03  0.00000000000E+00 0. -1.
          1    1    1    2  502    0  0.55925978589E+02  0.80500233926E+02  0.62165263176E+03  0.62933297809E+03  0.00000000000E+00 0. -1.
         22    1    3    3    0    0 -0.22263246553E+02 -0.99803066613E+02 -0.80243920284E+02  0.12998227185E+03  0.00000000000E+00 0. -1.
         22    1    3    3    0    0  0.72218492289E+01 -0.29682646667E+02  0.44645162400E+02  0.54096258144E+02  0.00000000000E+00 0. -1.
</event>
<event>
 7    1  0.6557591E-006  0.2774161E+02  0.7818608E-02  0.1638092E+00
          2   -1    0    0  502    0  0.00000000000E+00  0.00000000000E+00  0.10651907850E+04  0.10651907850E+04  0.00000000000E+00 0. -1.
          1   -1    0    0  501    0 -0.00000000000E+00 -0.00000000000E+00 -0.44422331975E+02  0.44422331975E+02  0.00000000000E+00 0. -1.
         25    2    1    2    0    0  0.23354704494E+02 -0.22553311545E+02  0.52658670989E+03  0.54219179741E+03  0.12499715223E+03 0.  0.
          2    1    1    2  501    0 -0.27673703793E+02 -0.27231616743E+01 -0.30982561580E+02  0.41631341718E+02  0.00000000000E+00 0. -1.
          1    1    1    2  502    0  0.43189992996E+01  0.25276473220E+02  0.52516430467E+03  0.52578997780E+03  0.00000000000E+00 0. -1.
         22    1    3    3    0    0  0.71991672056E+02  0.67288994626E+01  0.28622304034E+03  0.29521468079E+03  0.00000000000E+00 0. -1.
         22    1    3    3    0    0 -0.48636967563E+02 -0.29282211008E+02  0.24036366955E+03  0.24697711662E+03  0.00000000000E+00 0. -1.
</event>
<event>
 7    1  0.6557591E-006  0.4398538E+02  0.7818608E-02  0.1578929E+00
          2   -1    0    0  502    0  0.00000000000E+00  0.00000000000E+00  0.10276142046E+03  0.10276142046E+03  0.00000000000E+00 0. -1.
          1   -1    0    0  501    0 -0.00000000000E+00 -0.00000000000E+00 -0.12564866691E+04  0.12564866691E+04  0.00000000000E+00 0. -1.
         25    2    1    2    0    0  0.14445401022E+02 -0.15488151472E+02 -0.31975625654E+02  0.13074819641E+03  0.12499639108E+03 0.  0.
          2    1    1    2  501    0 -0.30491459437E+02  0.31967571294E+02 -0.11722112365E+04  0.11730434083E+04  0.00000000000E+00 0. -1.
          1    1    1    2  502    0  0.16046058415E+02 -0.16479419822E+02  0.50461613553E+02  0.55456484839E+02  0.00000000000E+00 0. -1.
         22    1    3    3    0    0 -0.17555742425E+02  0.14170585802E+02 -0.69580929941E+02  0.73147217346E+02  0.00000000000E+00 0.  1.
         22    1    3    3    0    0  0.32001143447E+02 -0.29658737274E+02  0.37605304287E+02  0.57600979064E+02  0.00000000000E+00 0.  1.
</event>
<event>
 7    1  0.6557591E-006  0.2601578E+02  0.7818608E-02  0.1681392E+00
          2   -1    0    0  502    0  0.00000000000E+00  0.00000000000E+00  0.16664395764E+04  0.16664395764E+04  0.00000000000E+00 0. -1.
          1   -1    0    0  501    0 -0.00000000000E+00 -0.00000000000E+00 -0.65651820975E+03  0.65651820975E+03  0.00000000000E+00 0. -1.
         25    2    1    2    0    0 -0.25688522206E+02 -0.36189850271E+01  0.23429046134E+01  0.12768001769E+03  0.12499480185E+03 0.  0.
          2    1    1    2  501    0  0.59811113466E+01  0.20625525555E+02 -0.59354967351E+03  0.59393804469E+03  0.00000000000E+00 0. -1.
          1    1    1    2  502    0  0.19707410860E+02 -0.17006540528E+02  0.16011281356E+04  0.16013397238E+04  0.00000000000E+00 0. -1.
         22    1    3    3    0    0 -0.65763701611E+02 -0.67722474009E+01 -0.33237570091E+02  0.73996377276E+02  0.00000000000E+00 0. -1.
         22    1    3    3    0    0  0.40075179404E+02  0.31532623737E+01  0.35580474704E+02  0.53683640414E+02  0.00000000000E+00 0. -1.
</event>
<event>
 7    1  0.6557591E-006  0.6744028E+02  0.7818608E-02  0.1494273E+00
          2   -1    0    0  502    0  0.00000000000E+00  0.00000000000E+00  0.21120059828E+04  0.21120059828E+04  0.00000000000E+00 0. -1.
          1   -1    0    0  501    0 -0.00000000000E+00 -0.00000000000E+00 -0.15887944521E+02  0.15887944521E+02  0.00000000000E+00 0. -1.
         25    2    1    2    0    0  0.38053580867E+02 -0.21099719391E+02  0.41886209984E+03  0.43927515147E+03  0.12499570732E+03 0.  0.
          2    1    1    2  501    0  0.25176886779E+02 -0.68992158666E+01  0.29418373281E+02  0.39330846596E+02  0.00000000000E+00 0. -1.
          1    1    1    2  502    0 -0.63230467647E+02  0.27998935258E+02  0.16478375652E+04  0.16492879292E+04  0.00000000000E+00 0. -1.
         22    1    3    3    0    0  0.50822327693E+02  0.31915340888E+02  0.10699181724E+03  0.12267333424E+03  0.00000000000E+00 0.  1.
         22    1    3    3    0    0 -0.12768746825E+02 -0.53015060279E+02  0.31187028260E+03  0.31660181724E+03  0.00000000000E+00 0.  1.
</event>
<event>
 7    1  0.6557591E-006  0.7145572E+02  0.7818608E-02  0.1374270E+00
          2   -1    0    0  502    0  0.00000000000E+00  0.00000000000E+00  0.47572569113E+03  0.47572569113E+03  0.00000000000E+00 0. -1.
          1   -1    0    0  501    0 -0.00000000000E+00 -0.00000000000E+00 -0.19944423319E+03  0.19944423319E+03  0.00000000000E+00 0. -1.
         25    2    1    2    0    0  0.57287318857E+02 -0.31606034307E+02  0.35533945427E+02  0.14547047864E+03  0.12497287935E+03 0.  0.
          2    1    1    2  501    0  0.10352182508E+02  0.60064523084E+02 -0.13432997357E+03  0.14751086880E+03  0.00000000000E+00 0. -1.
          1    1    1    2  502    0 -0.67639501364E+02 -0.28458488777E+02  0.37507748608E+03  0.38218857687E+03  0.00000000000E+00 0. -1.
         22    1    3    3    0    0  0.77764744789E+02  0.13404788575E+01  0.61190541588E+02  0.98961784520E+02  0.00000000000E+00 0.  1.
         22    1    3    3    0    0 -0.20477425932E+02 -0.32946513165E+02 -0.25656596161E+02  0.46508694124E+02  0.00000000000E+00 0.  1.
</event>
<event>
 7    1  0.6557591E-006  0.2811403E+03  0.7818608E-02  0.1241639E+00
          2   -1    0    0  502    0  0.00000000000E+00  0.00000000000E+00  0.91856254194E+03  0.91856254194E+03  0.00000000000E+00 0. -1.
          1   -1    0    0  501    0 -0.00000000000E+00 -0.00000000000E+00 -0.60592982336E+03  0.60592982336E+03  0.00000000000E+00 0. -1.
         25    2    1    2    0    0 -0.29350711362E+03 -0.96086164152E+02 -0.10043343060E+03  0.34798023015E+03  0.12499755962E+03 0.  0.
          2    1    1    2  501    0  0.19206394400E+02  0.48302485587E+02 -0.35538902376E+03  0.35917039676E+03  0.00000000000E+00 0. -1.
          1    1    1    2  502    0  0.27430071922E+03  0.47783678565E+02  0.76845517294E+03  0.81734173839E+03  0.00000000000E+00 0. -1.
         22    1    3    3    0    0 -0.27034369590E+03 -0.10023356053E+03 -0.12473575879E+03  0.31415201749E+03  0.00000000000E+00 0.  1.
         22    1    3    3    0    0 -0.23163417714E+02  0.41473963737E+01  0.24302328191E+02  0.33828212668E+02  0.00000000000E+00 0.  1.
</event>
<event>
 7    1  0.6557591E-006  0.4668349E+02  0.7818608E-02  0.1507164E+00
          2   -1    0    0  502    0  0.00000000000E+00  0.00000000000E+00  0.11055497003E+04  0.11055497003E+04  0.00000000000E+00 0. -1.
          1   -1    0    0  501    0 -0.00000000000E+00 -0.00000000000E+00 -0.88229624444E+03  0.88229624444E+03  0.00000000000E+00 0. -1.
         25    2    1    2    0    0  0.25000393715E+02  0.55924255542E+02  0.46645232797E+02  0.14681008268E+03  0.12499952236E+03 0.  0.
          2    1    1    2  501    0 -0.39611278608E+02 -0.24650744754E+02 -0.83126423074E+03  0.83257247968E+03  0.00000000000E+00 0. -1.
          1    1    1    2  502    0  0.14610884893E+02 -0.31273510787E+02  0.10078724538E+04  0.10084633824E+04  0.00000000000E+00 0. -1.
         22    1    3    3    0    0  0.69483361557E+02  0.87575977964E+01  0.60012364217E+01  0.70289742431E+02  0.00000000000E+00 0. -1.
         22    1    3    3    0    0 -0.44482967843E+02  0.47166657745E+02  0.40643996376E+02  0.76520340252E+02  0.00000000000E+00 0. -1.
</event>
<event>
 7    1  0.6557591E-006  0.8556551E+02  0.7818608E-02  0.1331115E+00
          2   -1    0    0  502    0  0.00000000000E+00  0.00000000000E+00  0.54007711344E+02  0.54007711344E+02  0.00000000000E+00 0. -1.
          1   -1    0    0  501    0 -0.00000000000E+00 -0.00000000000E+00 -0.18037473937E+04  0.18037473937E+04  0.00000000000E+00 0. -1.
         25    2    1    2    0    0  0.73912176258E+02  0.37779046112E+02 -0.11383787626E+04  0.11482237321E+04  0.12498506194E+03 0.  0.
          2    1    1    2  501    0 -0.95026010399E+02  0.32571839099E+02 -0.62652877681E+03  0.63453067343E+03  0.00000000000E+00 0. -1.
          1    1    1    2  502    0  0.21113834141E+02 -0.70350885211E+02  0.15167857036E+02  0.75000699525E+02  0.00000000000E+00 0. -1.
         22    1    3    3    0    0  0.68301206821E+02 -0.30175564434E+02 -0.41727031872E+03  0.42389873605E+03  0.00000000000E+00 0.  1.
         22    1    3    3    0    0  0.56109694365E+01  0.67954610546E+02 -0.72110844383E+03  0.72432499601E+03  0.00000000000E+00 0.  1.
</event>
<event>
 7    1  0.6557591E-006  0.1611045E+03  0.7818608E-02  0.1203879E+00
          2   -1    0    0  502    0  0.00000000000E+00  0.00000000000E+00  0.96938132722E+03  0.96938132722E+03  0.00000000000E+00 0. -1.
          1   -1    0    0  501    0 -0.00000000000E+00 -0.00000000000E+00 -0.12321117081E+04  0.12321117081E+04  0.00000000000E+00 0. -1.
         25    2    1    2    0    0  0.20374134164E+03 -0.13600691165E+03 -0.85870987701E+02  0.28811611335E+03  0.12501461487E+03 0.  0.
          2    1    1    2  501    0 -0.13441673096E+03 -0.71643554892E+01 -0.10334306990E+04  0.10421603500E+04  0.00000000000E+00 0. -1.
          1    1    1    2  502    0 -0.69324610684E+02  0.14317126714E+03  0.85657130579E+03  0.87121657197E+03  0.00000000000E+00 0. -1.
         22    1    3    3    0    0  0.11957821167E+03 -0.14767985002E+03 -0.61345147352E+02  0.19967852642E+03  0.00000000000E+00 0.  1.
         22    1    3    3    0    0  0.84163129969E+02  0.11672938376E+02 -0.24525840349E+02  0.88437586926E+02  0.00000000000E+00 0.  1.
</event>
<event>
 7    1  0.6557591E-006  0.4581395E+02  0.7818608E-02  0.1544628E+00
          2   -1    0    0  502    0  0.00000000000E+00  0.00000000000E+00  0.46658901818E+02  0.46658901818E+02  0.00000000000E+00 0. -1.
          1   -1    0    0  501    0 -0.00000000000E+00 -0.00000000000E+00 -0.61325336903E+03  0.61325336903E+03  0.00000000000E+00 0. -1.
         25    2    1    2    0    0  0.62332171308E+02  0.26239021365E+02 -0.84796222854E+02  0.16547990005E+03  0.12497764636E+03 0.  0.
          2    1    1    2  501    0 -0.45001963286E+02 -0.49736320133E+01 -0.45068051864E+03  0.45294905187E+03  0.00000000000E+00 0. -1.
          1    1    1    2  502    0 -0.17330208023E+02 -0.21265389352E+02 -0.31117725716E+02  0.41483318914E+02  0.00000000000E+00 0. -1.
         22    1    3    3    0    0  0.37537477244E+02 -0.25853015113E+02 -0.96400471462E+02  0.10663250671E+03  0.00000000000E+00 0.  1.
         22    1    3    3    0    0  0.24794694064E+02  0.52092036479E+02  0.11604248608E+02  0.58847393349E+02  0.00000000000E+00 0.  1.
</event>
<event>
 7    1  0.6557591E-006  0.3810098E+02  0.7818608E-02  0.1540451E+00
          2   -1    0    0  502    0  0.00000000000E+00  0.00000000000E+00  0.10651371566E+04  0.10651371566E+04  0.00000000000E+00 0. -1.
          1   -1    0    0  501    0 -0.00000000000E+00 -0.00000000000E+00 -0.46201707895E+02  0.46201707895E+02  0.00000000000E+00 0. -1.
         25    2    1    2    0    0  0.88674507723E+01 -0.39557148364E+01  0.26597132230E+03  0.29404054666E+03  0.12499927771E+03 0.  0.
          2    1    1    2  501    0 -0.35852780709E+02 -0.16549461818E+02 -0.19535115604E+02  0.44055956609E+02  0.00000000000E+00 0. -1.
          1    1    1    2  502    0  0.26985329937E+02  0.20505176654E+02  0.77249924202E+03  0.77324236125E+03  0.00000000000E+00 0. -1.
         22    1    3    3    0    0 -0.32648924507E+02 -0.38194794238E+02  0.21181662107E+03  0.21769491390E+03  0.00000000000E+00 0.  1.
         22    1    3    3    0    0  0.41516375279E+02  0.34239079402E+02  0.54154701235E+02  0.76345632753E+02  0.00000000000E+00 0.  1.
</event>
<event>
 7    1  0.6557591E-006  0.9268598E+02  0.7818608E-02  0.1359520E+00
          2   -1    0    0  502    0  0.00000000000E+00  0.00000000000E+00  0.35476187305E+04  0.35476187305E+04  0.00000000000E+00 0. -1.
          1   -1    0    0  501    0 -0.00000000000E+00 -0.00000000000E+00 -0.39883860618E+02  0.39883860618E+02  0.00000000000E+00 0. -1.
         25    2    1    2    0    0  0.81085865419E+02  0.60401658345E+02  0.54370640745E+03  0.56697896400E+03  0.12500084086E+03 0.  0.
          2    1    1    2  501    0  0.11551553093E+02 -0.51850965459E+02 -0.18810495962E+01  0.53155426303E+02  0.00000000000E+00 0. -1.
          1    1    1    2  502    0 -0.92637418512E+02 -0.85506928861E+01  0.29659095120E+04  0.29673682008E+04  0.00000000000E+00 0. -1.
         22    1    3    3    0    0 -0.99869990699E+01  0.55824757674E+02  0.10964939596E+03  0.12344688637E+03  0.00000000000E+00 0.  1.
         22    1    3    3    0    0  0.91072864489E+02  0.45769006712E+01  0.43405701149E+03  0.44353207763E+03  0.00000000000E+00 0.  1.
</event>
<event>
 7    1  0.6557591E-006  0.1389618E+03  0.7818608E-02  0.1342562E+00
          2   -1    0    0  502    0  0.00000000000E+00  0.00000000000E+00  0.52568829784E+03  0.52568829784E+03  0.00000000000E+00 0. -1.
          1   -1    0    0  501    0 -0.00000000000E+00 -0.00000000000E+00 -0.92184615640E+03  0.92184615640E+03  0.00000000000E+00 0. -1.
         25    2    1    2    0    0 -0.16737116041E+03 -0.26024782310E+01 -0.13959356360E+03  0.25126116794E+03  0.12500373310E+03 0.  0.
          2    1    1    2  501    0  0.32509760892E+02 -0.24880724484E+02 -0.71574217870E+03  0.71691198997E+03  0.00000000000E+00 0. -1.
          1    1    1    2  502    0  0.13486139951E+03  0.27483202715E+02  0.45917788373E+03  0.47936129632E+03  0.00000000000E+00 0. -1.
         22    1    3    3    0    0  0.14570256417E+02  0.20880517306E+02 -0.16527709646E+02  0.30355453566E+02  0.00000000000E+00 0.  1.
         22    1    3    3    0    0 -0.18194141682E+03 -0.23482995537E+02 -0.12306585395E+03  0.22090571438E+03  0.00000000000E+00 0.  1.
</event>
<event>
 7    1  0.6557591E-006  0.6714384E+02  0.7818608E-02  0.1392997E+00
          2   -1    0    0  502    0  0.00000000000E+00  0.00000000000E+00  0.59664755166E+03  0.59664755166E+03  0.00000000000E+00 0. -1.
          1   -1    0    0  501    0 -0.00000000000E+00 -0.00000000000E+00 -0.13587210843E+03  0.13587210843E+03  0.00000000000E+00 0. -1.
         25    2    1    2    0    0  0.80578455931E+02 -0.19041894785E+02  0.57345889531E+02  0.16052125698E+03  0.12499216607E+03 0.  0.
          2    1    1    2  501    0 -0.42242506557E+02 -0.36340583361E+02 -0.72436014439E+02  0.91389515520E+02  0.00000000000E+00 0. -1.
          1    1    1    2  502    0 -0.38335949374E+02  0.55382478146E+02  0.47586556814E+03  0.48060888760E+03  0.00000000000E+00 0. -1.
         22    1    3    3    0    0  0.70234001361E+02 -0.13387513006E+02  0.96232837281E+02  0.11988661069E+03  0.00000000000E+00 0. -1.
         22    1    3    3    0    0  0.10344454570E+02 -0.56543817786E+01 -0.38886947750E+02  0.40634646288E+02  0.00000000000E+00 0. -1.
</event>
<event>
 7    1  0.6557591E-006  0.1086060E+03  0.7818608E-02  0.1307099E+00
          2   -1    0    0  502    0  0.00000000000E+00  0.00000000000E+00  0.14664531809E+04  0.14664531809E+04  0.00000000000E+00 0. -1.
          1   -1    0    0  501    0 -0.00000000000E+00 -0.00000000000E+00 -0.42217300560E+02  0.42217300560E+02  0.00000000000E+00 0. -1.
         25    2    1    2    0    0 -0.11634451053E+03  0.12279578968E+03  0.44996898498E+03  0.49670166158E+03  0.12500240826E+03 0.  0.
          2    1    1    2  501    0  0.61133805986E+02 -0.37540836864E+02  0.64263000104E+02  0.96314016888E+02  0.00000000000E+00 0. -1.
          1    1    1    2  502    0  0.55210704542E+02 -0.85254952817E+02  0.91000389526E+03  0.91565480300E+03  0.00000000000E+00 0. -1.
         22    1    3    3    0    0 -0.28620915011E+01 -0.99111065003E+01 -0.34061306322E+01  0.10863854091E+02  0.00000000000E+00 0. -1.
         22    1    3    3    0    0 -0.11348241903E+03  0.13270689618E+03  0.45337511562E+03  0.48583780749E+03  0.00000000000E+00 0. -1.
</event>
<event>
 7    1  0.6557591E-006  0.4092321E+02  0.7818608E-02  0.1510883E+00
          2   -1    0    0  502    0  0.00000000000E+00  0.00000000000E+00  0.26194192185E+04  0.26194192185E+04  0.00000000000E+00 0. -1.
          1   -1    0    0  501    0 -0.00000000000E+00 -0.00000000000E+00 -0.10244092144E+02  0.10244092144E+02  0.00000000000E+00 0. -1.
         25    2    1    2    0    0  0.39206700438E+02 -0.23015421262E+02  0.15853422703E+04  0.15909122147E+04  0.12499874307E+03 0.  0.
          2    1    1    2  501    0 -0.33234350284E+02 -0.19227788255E+02  0.45701141407E+02  0.59689397768E+02  0.00000000000E+00 0. -1.
          1    1    1    2  502    0 -0.59723501538E+01  0.42243209517E+02  0.97813171458E+03  0.97906169815E+03  0.00000000000E+00 0. -1.
         22    1    3    3    0    0  0.54382553834E+02 -0.66907394656E+02  0.97431511918E+03  0.97812269838E+03  0.00000000000E+00 0. -1.
         22    1    3    3    0    0 -0.15175853396E+02  0.43891973394E+02  0.61102715116E+03  0.61278951632E+03  0.00000000000E+00 0. -1.
</event>
<event>
 7    1  0.6557591E-006  0.1680413E+03  0.7818608E-02  0.1323509E+00
          2   -1    0    0  502    0  0.00000000000E+00  0.00000000000E+00  0.19481856674E+03  0.19481856674E+03  0.00000000000E+00 0. -1.
          1   -1    0    0  501    0 -0.00000000000E+00 -0.00000000000E+00 -0.25284795675E+04  0.25284795675E+04  0.00000000000E+00 0. -1.
         25    2    1    2    0    0  0.14885552359E+03 -0.17439881719E+02 -0.49786166495E+02  0.20141082090E+03  0.12500216008E+03 0.  0.
          2    1    1    2  501    0 -0.16796221742E+03 -0.17701761412E+02 -0.23964617934E+04  0.24024058329E+04  0.00000000000E+00 0. -1.
          1    1    1    2  502    0  0.19106693831E+02  0.35141643132E+02  0.11258695906E+03  0.11948148050E+03  0.00000000000E+00 0. -1.
         22    1    3    3    0    0  0.11145581982E+03  0.40826945660E+02 -0.57230650746E+02  0.13177475725E+03  0.00000000000E+00 0. -1.
         22    1    3    3    0    0  0.37399703766E+02 -0.58266827379E+02  0.74444842511E+01  0.69636063648E+02  0.00000000000E+00 0. -1.
</event>
<event>
 7    1  0.6557591E-006  0.7183509E+02  0.7818608E-02  0.1415447E+00
          2   -1    0    0  502    0  0.00000000000E+00  0.00000000000E+00  0.12331989053E+04  0.12331989053E+04  0.00000000000E+00 0. -1.
          1   -1    0    0  501    0 -0.00000000000E+00 -0.00000000000E+00 -0.92342741103E+02  0.92342741103E+02  0.00000000000E+00 0. -1.
         25    2    1    2    0    0 -0.34549346724E+01  0.48217836597E+02  0.18224889125E+03  0.22620314806E+03  0.12496523312E+03 0.  0.
          2    1    1    2  501    0  0.40861225956E+02  0.15349159910E+02 -0.62135453229E+02  0.75934518136E+02  0.00000000000E+00 0. -1.
          1    1    1    2  502    0 -0.37406291284E+02 -0.63566996507E+02  0.10207427262E+04  0.10234039802E+04  0.00000000000E+00 0. -1.
         22    1    3    3    0    0 -0.71838758189E+01  0.79784226537E+02  0.60535075163E+02  0.10040730153E+03  0.00000000000E+00 0. -1.
         22    1    3    3    0    0  0.37289411465E+01 -0.31566389940E+02  0.12171381609E+03  0.12579584652E+03  0.00000000000E+00 0. -1.
</event>
<event>
 7    1  0.6557591E-006  0.1059371E+03  0.7818608E-02  0.1356193E+00
          2   -1    0    0  502    0  0.00000000000E+00  0.00000000000E+00  0.77199959101E+03  0.77199959101E+03  0.00000000000E+00 0. -1.
          1   -1    0    0  501    0 -0.00000000000E+00 -0.00000000000E+00 -0.85257593071E+03  0.85257593071E+03  0.00000000000E+00 0. -1.
         25    2    1    2    0    0  0.12687468606E+03  0.77292894977E+02 -0.58860084722E+03  0.61979637710E+03  0.12500085657E+03 0.  0.
          2    1    1    2  501    0 -0.47138102525E+02 -0.79231592163E+01 -0.24233952954E+03  0.24700855196E+03  0.00000000000E+00 0. -1.
          1    1    1    2  502    0 -0.79736583540E+02 -0.69369735760E+02  0.75036403706E+03  0.75777059266E+03  0.00000000000E+00 0. -1.
         22    1    3    3    0    0  0.11382609318E+03  0.10711972094E+03 -0.42136877311E+03  0.44942480690E+03  0.00000000000E+00 0. -1.
         22    1    3    3    0    0  0.13048592886E+02 -0.29826825961E+02 -0.16723207411E+03  0.17037157020E+03  0.00000000000E+00 0. -1.
</event>
<event>
 7    1  0.6557591E-006  0.1454609E+03  0.7818608E-02  0.1364670E+00
          2   -1    0    0  502    0  0.00000000000E+00  0.00000000000E+00  0.86460497174E+03  0.86460497174E+03  0.00000000000E+00 0. -1.
          1   -1    0    0  501    0 -0.00000000000E+00 -0.00000000000E+00 -0.23984363192E+03  0.23984363192E+03  0.00000000000E+00 0. -1.
         25    2    1    2    0    0 -0.17360002276E+03  0.47162184855E+00  0.53230139568E+03  0.57367870784E+03  0.12500117461E+03 0.  0.
          2    1    1    2  501    0  0.14375823059E+03  0.12196652778E+02 -0.19439773879E+03  0.24208607570E+03  0.00000000000E+00 0. -1.
          1    1    1    2  502    0  0.29841792172E+02 -0.12668274626E+02  0.28685768292E+03  0.28868382011E+03  0.00000000000E+00 0. -1.
         22    1    3    3    0    0 -0.64971246844E+02 -0.48170905863E+02  0.12131508604E+03  0.14580483253E+03  0.00000000000E+00 0.  1.
         22    1    3    3    0    0 -0.10862877592E+03  0.48642527711E+02  0.41098630965E+03  0.42787387531E+03  0.00000000000E+00 0.  1.
</event>
<event>
 7    1  0.6557591E-006  0.3549465E+02  0.7818608E-02  0.1577706E+00
          2   -1    0    0  502    0  0.00000000000E+00  0.00000000000E+00  0.23257350559E+02  0.23257350559E+02  0.00000000000E+00 0. -1.
          1   -1    0    0  501    0 -0.00000000000E+00 -0.00000000000E+00 -0.90554088675E+03  0.90554088675E+03  0.00000000000E+00 0. -1.
         25    2    1    2    0    0 -0.97293721799E+01  0.40886860508E+02 -0.52398137034E+03  0.54032400125E+03  0.12500861498E+03 0.  0.
          2    1    1    2  501    0 -0.19761946509E+02 -0.20839371047E+02 -0.35087566932E+03  0.35204907220E+03  0.00000000000E+00 0. -1.
          1    1    1    2  502    0  0.29491318689E+02 -0.20047489460E+02 -0.74264965367E+01  0.36425163863E+02  0.00000000000E+00 0. -1.
         22    1    3    3    0    0  0.41589346620E+02 -0.95840325581E+01 -0.81227314165E+02  0.91757310329E+02  0.00000000000E+00 0. -1.
         22    1    3    3    0    0 -0.51318718800E+02  0.50470893066E+02 -0.44275405617E+03  0.44856669092E+03  0.00000000000E+00 0. -1.
</event>
<event>
 7    1  0.6557591E-006  0.1110309E+03  0.7818608E-02  0.1451637E+00
          2   -1    0    0  502    0  0.00000000000E+00  0.00000000000E+00  0.11840219579E+04  0.11840219579E+04  0.00000000000E+00 0. -1.
          1   -1    0    0  501    0 -0.00000000000E+00 -0.00000000000E+00 -0.11052830129E+03  0.11052830129E+03  0.00000000000E+00 0. -1.
         25    2    1    2    0    0  0.12576281687E+03 -0.30443644459E+02  0.11257288060E+03  0.21222413343E+03  0.12499331089E+03 0.  0.
          2    1    1    2  501    0 -0.17217257056E+02  0.12866236620E+02 -0.55737773260E+02  0.59738374210E+02  0.00000000000E+00 0. -1.
          1    1    1    2  502    0 -0.10854555981E+03  0.17577407839E+02  0.10166585493E+04  0.10225877515E+04  0.00000000000E+00 0. -1.
         22    1    3    3    0    0  0.11589605337E+03  0.61521155883E+01  0.12665665018E+03  0.17178955366E+03  0.00000000000E+00 0. -1.
         22    1    3    3    0    0  0.98667634959E+01 -0.36595760047E+02 -0.14083769574E+02  0.40434579764E+02  0.00000000000E+00 0. -1.
</event>
<event>
 7    1  0.6557591E-006  0.3088591E+03  0.7818608E-02  0.1282041E+00
          2   -1    0    0  502    0  0.00000000000E+00  0.00000000000E+00  0.51276257927E+03  0.51276257927E+03  0.00000000000E+00 0. -1.
          1   -1    0    0  501    0 -0.00000000000E+00 -0.00000000000E+00 -0.93199332891E+03  0.93199332891E+03  0.00000000000E+00 0. -1.
         25    2    1    2    0    0 -0.26037586853E+03  0.10706568140E+03  0.20583181417E+03  0.37047237114E+03  0.12499755602E+03 0.  0.
          2    1    1    2  501    0  0.28378968109E+03 -0.12865055658E+03 -0.81976984003E+03  0.87698924704E+03  0.00000000000E+00 0. -1.
          1    1    1    2  502    0 -0.23413812565E+02  0.21584875182E+02  0.19470727622E+03  0.19729429000E+03  0.00000000000E+00 0. -1.
         22    1    3    3    0    0 -0.22281037861E+03  0.46041416313E+02  0.11546163173E+03  0.25513852166E+03  0.00000000000E+00 0.  1.
         22    1    3    3    0    0 -0.37565489913E+02  0.61024265084E+02  0.90370182447E+02  0.11533384948E+03  0.00000000000E+00 0.  1.
</event>
<event>
 7    1  0.6557591E-006  0.2693362E+02  0.7818608E-02  0.1639592E+00
          2   -1    0    0  502    0  0.00000000000E+00  0.00000000000E+00  0.29933810662E+03  0.29933810662E+03  0.00000000000E+00 0. -1.
          1   -1    0    0  501    0 -0.00000000000E+00 -0.00000000000E+00 -0.75065820037E+03  0.75065820037E+03  0.00000000000E+00 0. -1.
         25    2    1    2    0    0 -0.14837608446E+02  0.13047642387E+02  0.17666506748E+03  0.21731561712E+03  0.12500054312E+03 0.  0.
          2    1    1    2  501    0 -0.11891295689E+02 -0.23330526908E+02 -0.72808953805E+03  0.72856028702E+03  0.00000000000E+00 0. -1.
          1    1    1    2  502    0  0.26728904135E+02  0.10282884521E+02  0.10010437683E+03  0.10412040285E+03  0.00000000000E+00 0. -1.
         22    1    3    3    0    0 -0.31227116928E+02 -0.50329891021E+02  0.10258350222E+03  0.11845507878E+03  0.00000000000E+00 0.  1.
         22    1    3    3    0    0  0.16389508482E+02  0.63377533407E+02  0.74081565259E+02  0.98860538337E+02  0.00000000000E+00 0.  1.
</event>
<event>
 7    1  0.6557591E-006  0.1272484E+03  0.7818608E-02  0.1293662E+00
          2   -1    0    0  502    0  0.00000000000E+00  0.00000000000E+00  0.26870690042E+04  0.26870690042E+04  0.00000000000E+00 0. -1.
          1   -1    0    0  501    0 -0.00000000000E+00 -0.00000000000E+00 -0.71772233508E+02  0.71772233508E+02  0.00000000000E+00 0. -1.
         25    2    1    2    0    0  0.17871369193E+02 -0.60472230818E+02  0.10326227685E+04  0.10420711113E+04  0.12500456909E+03 0.  0.
          2    1    1    2  501    0 -0.53490456822E+02  0.11991610127E+03 -0.12694130623E+01  0.13131150644E+03  0.00000000000E+00 0. -1.
          1    1    1    2  502    0  0.35619087629E+02 -0.59443870447E+02  0.15839434152E+04  0.15854586200E+04  0.00000000000E+00 0. -1.
         22    1    3    3    0    0 -0.16017529839E+02  0.76999331462E+01  0.72326785042E+03  0.72348616689E+03  0.00000000000E+00 0. -1.
         22    1    3    3    0    0  0.33888899032E+02 -0.68172163964E+02  0.30935491811E+03  0.31858494436E+03  0.00000000000E+00 0. -1.
</event>
<event>
 7    1  0.6557591E-006  0.2426917E+03  0.7818608E-02  0.1252380E+00
          2   -1    0    0  502    0  0.00000000000E+00  0.00000000000E+00  0.47270043049E+03  0.47270043049E+03  0.00000000000E+00 0. -1.
          1   -1    0    0  501    0 -0.00000000000E+00 -0.00000000000E+00 -0.21494819029E+04  0.21494819029E+04  0.00000000000E+00 0. -1.
         25    2    1    2    0    0  0.21163791435E+03 -0.13814100084E+03  0.76237229334E+02  0.29208079062E+03  0.12500212082E+03 0.  0.
          2    1    1    2  501    0 -0.17015414516E+03  0.17280676419E+03 -0.20317516401E+04  0.20461743176E+04  0.00000000000E+00 0. -1.
          1    1    1    2  502    0 -0.41483769189E+02 -0.34665763351E+02  0.27873293838E+03  0.28392722517E+03  0.00000000000E+00 0. -1.
         22    1    3    3    0    0  0.19166811831E+03 -0.16082902418E+03  0.77188556409E+02  0.26184101252E+03  0.00000000000E+00 0.  1.
         22    1    3    3    0    0  0.19969796042E+02  0.22688023335E+02 -0.95132707483E+00  0.30239778108E+02  0.00000000000E+00 0.  1.
</event>
<event>
 7    1  0.6557591E-006  0.4793765E+02  0.7818608E-02  0.1586122E+00
          2   -1    0    0  502    0  0.00000000000E+00  0.00000000000E+00  0.11453087555E+04  0.11453087555E+04  0.00000000000E+00 0. -1.
          1   -1    0    0  501    0 -0.00000000000E+00 -0.00000000000E+00 -0.23069944620E+03  0.23069944620E+03  0.00000000000E+00 0. -1.
         25    2    1    2    0    0 -0.31364618892E+01 -0.28140772637E+02  0.16890736130E+03  0.21202626501E+03  0.12499479938E+03 0.  0.
          2    1    1    2  501    0  0.97889982207E+00  0.48215968872E+02 -0.20625140065E+03  0.21181448998E+03  0.00000000000E+00 0. -1.
          1    1    1    2  502    0  0.21575620672E+01 -0.20075196235E+02  0.95195334866E+03  0.95216744672E+03  0.00000000000E+00 0. -1.
         22    1    3    3    0    0 -0.61117778079E+02 -0.56047897856E+01  0.55835857549E+02  0.82972522283E+02  0.00000000000E+00 0.  1.
         22    1    3    3    0    0  0.57981316189E+02 -0.22535982851E+02  0.11307150375E+03  0.12905374272E+03  0.00000000000E+00 0.  1.
</event>
<event>
 7    1  0.6557591E-006  0.1496493E+03  0.7818608E-02  0.1417717E+00
          2   -1    0    0  502    0  0.00000000000E+00  0.00000000000E+00  0.26312799987E+04  0.26312799987E+04  0.00000000000E+00 0. -1.
          1   -1    0    0  501    0 -0.00000000000E+00 -0.00000000000E+00 -0.26285813326E+02  0.26285813326E+02  0.00000000000E+00 0. -1.
         25    2    1    2    0    0  0.14593092729E+03  0.46354582139E+02  0.98569282450E+03  0.10053160619E+04  0.12500182854E+03 0.  0.
          2    1    1    2  501    0 -0.11372869695E+02  0.17161863989E+02 -0.49681035998E+01  0.21179088604E+02  0.00000000000E+00 0. -1.
          1    1    1    2  502    0 -0.13455805759E+03 -0.63516446128E+02  0.16242694645E+04  0.16310706616E+04  0.00000000000E+00 0. -1.
         22    1    3    3    0    0  0.41550493522E+01 -0.33450788100E+02  0.13035163714E+03  0.13463940346E+03  0.00000000000E+00 0.  1.
         22    1    3    3    0    0  0.14177587794E+03  0.79805370239E+02  0.85534118737E+03  0.87067665840E+03  0.00000000000E+00 0.  1.
</event>
<event>
 7    1  0.6557591E-006  0.1646699E+03  0.7818608E-02  0.1315470E+00
          2   -1    0    0  502    0  0.00000000000E+00  0.00000000000E+00  0.15526477032E+04  0.15526477032E+04  0.00000000000E+00 0. -1.
          1   -1    0    0  501    0 -0.00000000000E+00 -0.00000000000E+00 -0.34468762701E+03  0.34468762701E+03  0.00000000000E+00 0. -1.
         25    2    1    2    0    0 -0.17705892979E+03  0.59334742321E+02  0.21952955650E+03  0.31414670356E+03  0.12499779564E+03 0.  0.
          2    1    1    2  501    0  0.14029509938E+03 -0.83255206914E+02 -0.27459578240E+03  0.31940098325E+03  0.00000000000E+00 0. -1.
          1    1    1    2  502    0  0.36763830415E+02  0.23920464592E+02  0.12630263020E+04  0.12637876434E+04  0.00000000000E+00 0. -1.
         22    1    3    3    0    0 -0.65129255199E+02  0.83360719389E+02  0.74539405518E+02  0.12941001659E+03  0.00000000000E+00 0.  1.
         22    1    3    3    0    0 -0.11192967460E+03 -0.24025977067E+02  0.14499015099E+03  0.18473668697E+03  0.00000000000E+00 0.  1.
</event>
<event>
 7    1  0.6557591E-006  0.3116926E+02  0.7818608E-02  0.1634891E+00
          2   -1    0    0  502    0  0.00000000000E+00  0.00000000000E+00  0.32623883868E+03  0.32623883868E+03  0.00000000000E+00 0. -1.
          1   -1    0    0  501    0 -0.00000000000E+00 -0.00000000000E+00 -0.46775643821E+03  0.46775643821E+03  0.00000000000E+00 0. -1.
         25    2    1    2    0    0 -0.85970697118E+01  0.13925574697E+02  0.60787245660E+02  0.13998099614E+03  0.12502703231E+03 0.  0.
          2    1    1    2  501    0 -0.22276093894E+02 -0.66458732712E+01 -0.42672793525E+03  0.42736064712E+03  0.00000000000E+00 0. -1.
          1    1    1    2  502    0  0.30873163606E+02 -0.72797014260E+01  0.22442309006E+03  0.22665363363E+03  0.00000000000E+00 0. -1.
         22    1    3    3    0    0  0.56604157686E+02 -0.51794276950E+01  0.37770173888E+02  0.68245462663E+02  0.00000000000E+00 0.  1.
         22    1    3    3    0    0 -0.65201227398E+02  0.19105002392E+02  0.23017071772E+02  0.71735533479E+02  0.00000000000E+00 0.  1.
</event>
<event>
 7    1  0.6557591E-006  0.1015523E+03  0.7818608E-02  0.1449114E+00
          2   -1    0    0  502    0  0.00000000000E+00  0.00000000000E+00  0.12459033991E+04  0.12459033991E+04  0.00000000000E+00 0. -1.
          1   -1    0    0  501    0 -0.00000000000E+00 -0.00000000000E+00 -0.30630385264E+03  0.30630385264E+03  0.00000000000E+00 0. -1.
         25    2    1    2    0    0 -0.98154341132E+02  0.71776798699E+02  0.30963043490E+03  0.35536231721E+03  0.12500074704E+03 0.  0.
          2    1    1    2  501    0  0.74472265574E+02 -0.68269218388E+02 -0.27427176319E+03  0.29228719542E+03  0.00000000000E+00 0. -1.
          1    1    1    2  502    0  0.23682075558E+02 -0.35075803113E+01  0.90424087473E+03  0.90455773909E+03  0.00000000000E+00 0. -1.
         22    1    3    3    0    0 -0.69260415995E+02  0.10716248661E+03  0.24473017960E+03  0.27599576911E+03  0.00000000000E+00 0.  1.
         22    1    3    3    0    0 -0.28893925137E+02 -0.35385687910E+02  0.64900255299E+02  0.79366548095E+02  0.00000000000E+00 0.  1.
</event>
<event>
 7    1  0.6557591E-006  0.5877161E+02  0.7818608E-02  0.1445369E+00
          2   -1    0    0  502    0  0.00000000000E+00  0.00000000000E+00  0.11551045314E+04  0.11551045314E+04  0.00000000000E+00 0. -1.
          1   -1    0    0  501    0 -0.00000000000E+00 -0.00000000000E+00 -0.75308900916E+02  0.75308900916E+02  0.00000000000E+00 0. -1.
         25    2    1    2    0    0  0.91642384549E+02 -0.58501483724E+01  0.83842520976E+03  0.85265160838E+03  0.12500152807E+03 0.  0.
          2    1    1    2  501    0 -0.42231325966E+02  0.50220417072E+01 -0.59346330690E+02  0.73011593340E+02  0.00000000000E+00 0. -1.
          1    1    1    2  502    0 -0.49411058583E+02  0.82810666517E+00  0.30071675144E+03  0.30475023063E+03  0.00000000000E+00 0. -1.
         22    1    3    3    0    0 -0.35118457825E+01  0.43935594444E+02  0.33590830366E+03  0.33878762962E+03  0.00000000000E+00 0.  1.
         22    1    3    3    0    0  0.95154230331E+02 -0.49785742816E+02  0.50251690611E+03  0.51386397875E+03  0.00000000000E+00 0.  1.
</event>
<event>
 7    1  0.6557591E-006  0.6349280E+02  0.7818608E-02  0.1403758E+00
          2   -1    0    0  502    0  0.00000000000E+00  0.00000000000E+00  0.29568121045E+03  0.29568121045E+03  0.00000000000E+00 0. -1.
          1   -1    0    0  501    0 -0.00000000000E+00 -0.00000000000E+00 -0.10644902995E+04  0.10644902995E+04  0.00000000000E+00 0. -1.
         25    2    1    2    0    0  0.10310162722E+02  0.11595409050E+03 -0.13814447406E+03  0.21968271464E+03  0.12499979536E+03 0.  0.
          2    1    1    2  501    0 -0.65449448801E+01 -0.53705907605E+02 -0.88092024485E+03  0.88258010322E+03  0.00000000000E+00 0. -1.
          1    1    1    2  502    0 -0.37652178416E+01 -0.62248182891E+02  0.25025562990E+03  0.25790869205E+03  0.00000000000E+00 0. -1.
         22    1    3    3    0    0  0.54527536588E+02  0.72270626015E+02 -0.12788209361E+03  0.15668479663E+03  0.00000000000E+00 0.  1.
         22    1    3    3    0    0 -0.44217373866E+02  0.43683464481E+02 -0.10262380457E+02  0.62997918008E+02  0.00000000000E+00 0.  1.
</event>
<event>
 7    1  0.6557591E-006  0.7261438E+02  0.7818608E-02  0.1398215E+00
          2   -1    0    0  502    0  0.00000000000E+00  0.00000000000E+00  0.90566197524E+03  0.90566197524E+03  0.00000000000E+00 0. -1.
          1   -1    0    0  501    0 -0.00000000000E+00 -0.00000000000E+00 -0.65588463542E+02  0.65588463542E+02  0.00000000000E+00 0. -1.
         25    2    1    2    0    0 -0.46685597670E+02 -0.64716654721E+02  0.45924991378E+03  0.48260028976E+03  0.12499906376E+03 0.  0.
          2    1    1    2  501    0 -0.24247783333E+02  0.43069989737E+02 -0.38604438943E+02  0.62715880912E+02  0.00000000000E+00 0. -1.
          1    1    1    2  502    0  0.70933381003E+02  0.21646664984E+02  0.41942803686E+03  0.42593426811E+03  0.00000000000E+00 0. -1.
         22    1    3    3    0    0 -0.35939047063E+02 -0.25846514767E+02  0.34986278437E+02  0.56424259927E+02  0.00000000000E+00 0. -1.
         22    1    3    3    0    0 -0.10746550606E+02 -0.38870139954E+02  0.42426363534E+03  0.42617602983E+03  0.00000000000E+00 0. -1.
</event>
<event>
 7    1  0.6557591E-006  0.1171432E+03  0.7818608E-02  0.1439769E+00
          2   -1    0    0  502    0  0.00000000000E+00  0.00000000000E+00  0.56484100430E+03  0.56484100430E+03  0.00000000000E+00 0. -1.
          1   -1    0    0  501    0 -0.00000000000E+00 -0.00000000000E+00 -0.55743457150E+02  0.55743457150E+02  0.00000000000E+00 0. -1.
         25    2    1    2    0    0 -0.10311959274E+03  0.76929088032E+02  0.19134859795E+03  0.26227970020E+03  0.12499848082E+03 0.  0.
          2    1    1    2  501    0  0.93763108449E+02 -0.56747056820E+02  0.13353387867E+03  0.17275139860E+03  0.00000000000E+00 0. -1.
          1    1    1    2  502    0  0.93564842921E+01 -0.20182031212E+02  0.18421507053E+03  0.18555336265E+03  0.00000000000E+00 0. -1.
         22    1    3    3    0    0 -0.95225192881E+02  0.24325842930E+02  0.18397083801E+03  0.20857817056E+03  0.00000000000E+00 0. -1.
         22    1    3    3    0    0 -0.78943998599E+01  0.52603245103E+02  0.73777599363E+01  0.53701529644E+02  0.00000000000E+00 0. -1.
</event>
<event>
 7    1  0.6557591E-006  0.9066652E+02  0.7818608E-02  0.1322039E+00
          2   -1    0    0  502    0  0.00000000000E+00  0.00000000000E+00  0.11100111497E+04  0.11100111497E+04  0.00000000000E+00 0. -1.
          1   -1    0    0  501    0 -0.00000000000E+00 -0.00000000000E+00 -0.21997796027E+03  0.21997796027E+03  0.00000000000E+00 0. -1.
         25    2    1    2    0    0 -0.51163508700E+02 -0.85129236327E+01  0.41535269577E+03  0.43683846698E+03  0.12497923772E+03 0.  0.
          2    1    1    2  501    0  0.10270291347E+02  0.90082951933E+02 -0.19617743728E+03  0.21611571903E+03  0.00000000000E+00 0. -1.
          1    1    1    2  502    0  0.40893217353E+02 -0.81570028300E+02  0.67085793095E+03  0.67703492396E+03  0.00000000000E+00 0. -1.
         22    1    3    3    0    0  0.34469598919E+02 -0.19444692641E+02  0.65810985439E+02  0.76794108667E+02  0.00000000000E+00 0.  1.
         22    1    3    3    0    0 -0.85633107619E+02  0.10931769009E+02  0.34954171033E+03  0.36004435831E+03  0.00000000000E+00 0.  1.
</event>
<event>
 7    1  0.6557591E-006  0.1111868E+03  0.7818608E-02  0.1443473E+00
          2   -1    0    0  502    0  0.00000000000E+00  0.00000000000E+00  0.14718486077E+03  0.14718486077E+03  0.00000000000E+00 0. -1.
          1   -1    0    0  501    0 -0.00000000000E+00 -0.00000000000E+00 -0.40774289690E+04  0.40774289690E+04  0.00000000000E+00 0. -1.
         25    2    1    2    0    0  0.83950063076E+02 -0.10213424091E+03 -0.73746962748E+03  0.75958184675E+03  0.12499645680E+03 0.  0.
          2    1    1    2  501    0 -0.68284629094E+02  0.85569851684E+02 -0.33270419630E+04  0.33288426237E+04  0.00000000000E+00 0. -1.
          1    1    1    2  502    0 -0.15665433982E+02  0.16564389224E+02  0.13426748221E+03  0.13618935931E+03  0.00000000000E+00 0. -1.
         22    1    3    3    0    0 -0.16727571809E+01 -0.64503524989E+02 -0.50339952197E+03  0.50751806034E+03  0.00000000000E+00 0. -1.
         22    1    3    3    0    0  0.85622820257E+02 -0.37630715919E+02 -0.23407010551E+03  0.25206378641E+03  0.00000000000E+00 0. -1.
</event>
<event>
 7    1  0.6557591E-006  0.1067298E+03  0.7818608E-02  0.1342442E+00
          2   -1    0    0  502    0  0.00000000000E+00  0.00000000000E+00  0.33134965671E+03  0.33134965671E+03  0.00000000000E+00 0. -1.
          1   -1    0    0  501    0 -0.00000000000E+00 -0.00000000000E+00 -0.16967389052E+03  0.16967389052E+03  0.00000000000E+00 0. -1.
         25    2    1    2    0    0  0.10585950351E+02 -0.63382486179E+02  0.10929969678E+03  0.17804678772E+03  0.12499933202E+03 0.  0.
          2    1    1    2  501    0  0.56668047818E+01  0.11420356504E+03 -0.10596057980E+03  0.15589166564E+03  0.00000000000E+00 0. -1.
          1    1    1    2  502    0 -0.16252755133E+02 -0.50821078856E+02  0.15833664922E+03  0.16708509387E+03  0.00000000000E+00 0. -1.
         22    1    3    3    0    0 -0.40088991131E+00  0.30180013994E+02 -0.42784819371E+01  0.30484411837E+02  0.00000000000E+00 0. -1.
         22    1    3    3    0    0  0.10986840263E+02 -0.93562500173E+02  0.11357817871E+03  0.14756237589E+03  0.00000000000E+00 0. -1.
</event>
<event>
 7    1  0.6557591E-006  0.6185065E+02  0.7818608E-02  0.1424982E+00
          2   -1    0    0  502    0  0.00000000000E+00  0.00000000000E+00  0.18615718050E+04  0.18615718050E+04  0.00000000000E+00 0. -1.
          1   -1    0    0  501    0 -0.00000000000E+00 -0.00000000000E+00 -0.10253407818E+03  0.10253407818E+03  0.00000000000E+00 0. -1.
         25    2    1    2    0    0 -0.66755955447E+01 -0.56834692222E+02  0.11893420595E+03  0.18178320092E+03  0.12500016389E+03 0.  0.
          2    1    1    2  501    0 -0.39907146267E+02  0.49793263620E+02 -0.56400675869E+02  0.85164462445E+02  0.00000000000E+00 0. -1.
          1    1    1    2  502    0  0.46582741812E+02  0.70414286020E+01  0.16965041968E+04  0.16971582199E+04  0.00000000000E+00 0. -1.
         22    1    3    3    0    0  0.29713130221E+02 -0.10587278623E+02 -0.15417254705E+02  0.35109148648E+02  0.00000000000E+00 0.  1.
         22    1    3    3    0    0 -0.36388725766E+02 -0.46247413599E+02  0.13435146066E+03  0.14667405227E+03  0.00000000000E+00 0.  1.
</event>
<event>
 7    1  0.6557591E-006  0.2721989E+03  0.7818608E-02  0.1254697E+00
          2   -1    0    0  502    0  0.00000000000E+00  0.00000000000E+00  0.11420004162E+04  0.11420004162E+04  0.00000000000E+00 0. -1.
          1   -1    0    0  501    0 -0.00000000000E+00 -0.00000000000E+00 -0.12193703878E+04  0.12193703878E+04  0.00000000000E+00 0. -1.
         25    2    1    2    0    0 -0.20010294644E+03  0.12723166699E+03  0.30782413128E+03  0.40817669996E+03  0.12499374519E+03 0.  0.
          2    1    1    2  501    0  0.24652216165E+03 -0.11922587255E+03 -0.11524277547E+04  0.11845158145E+04  0.00000000000E+00 0. -1.
          1    1    1    2  502    0 -0.46419215206E+02 -0.80057944448E+01  0.76723365184E+03  0.76867828954E+03  0.00000000000E+00 0. -1.
         22    1    3    3    0    0 -0.11033930636E+03  0.13875912100E+03  0.21236381828E+03  0.27663558611E+03  0.00000000000E+00 0. -1.
         22    1    3    3    0    0 -0.89763640085E+02 -0.11527454001E+02  0.95460312995E+02  0.13154111385E+03  0.00000000000E+00 0. -1.
</event>
<event>
 7    1  0.6557591E-006  0.3152009E+02  0.7818608E-02  0.1597531E+00
          2   -1    0    0  502    0  0.00000000000E+00  0.00000000000E+00  0.84275204452E+03  0.84275204452E+03  0.00000000000E+00 0. -1.
          1   -1    0    0  501    0 -0.00000000000E+00 -0.00000000000E+00 -0.30418146624E+03  0.30418146624E+03  0.00000000000E+00 0. -1.
         25    2    1    2    0    0  0.43561558135E+01 -0.62014385340E+01  0.10699221609E+03  0.16471727195E+03  0.12500804551E+03 0.  0.
          2    1    1    2  501    0 -0.17048636607E+02 -0.23024751112E+02 -0.27421321325E+03  0.27570578792E+03  0.00000000000E+00 0. -1.
          1    1    1    2  502    0  0.12692480794E+02  0.29226189646E+02  0.70579157544E+03  0.70651045088E+03  0.00000000000E+00 0. -1.
         22    1    3    3    0    0  0.40078228464E+01  0.57708706485E+02  0.70232079564E+02  0.90988474259E+02  0.00000000000E+00 0. -1.
         22    1    3    3    0    0  0.34833296713E+00 -0.63910145019E+02  0.36760136526E+02  0.73728797695E+02  0.00000000000E+00 0. -1.
</event>
<event>
 7    1  0.6557591E-006  0.9075365E+02  0.7818608E-02  0.1486434E+00
          2   -1    0    0  502    0  0.00000000000E+00  0.00000000000E+00  0.62637517233E+03  0.62637517233E+03  0.00000000000E+00 0. -1.
          1   -1    0    0  501    0 -0.00000000000E+00 -0.00000000000E+00 -0.12853514097E+04  0.12853514097E+04  0.00000000000E+00 0. -1.
         25    2    1    2    0    0 -0.49956357792E+02  0.64128889080E+02 -0.66530058229E+03  0.68180274333E+03  0.12498785508E+03 0.  0.
          2    1    1    2  501    0  0.10436118672E+02  0.17629948266E+02 -0.60829112707E+03  0.60863603485E+03  0.00000000000E+00 0. -1.
          1    1    1    2  502    0  0.39520239121E+02 -0.81758837346E+02  0.61461547200E+03  0.62128780384E+03  0.00000000000E+00 0. -1.
         22    1    3    3    0    0 -0.34339313330E+02  0.83025595752E+00 -0.53499951556E+03  0.53610107201E+03  0.00000000000E+00 0.  1.
         22    1    3    3    0    0 -0.15617044463E+02  0.63298633122E+02 -0.13030106673E+03  0.14570167131E+03  0.00000000000E+00 0.  1.
</event>
<event>
 7    1  0.6557591E-006  0.6611949E+02  0.7818608E-02  0.1498419E+00
          2   -1    0    0  502    0  0.00000000000E+00  0.00000000000E+00  0.54742210720E+03  0.54742210720E+03  0.00000000000E+00 0. -1.
          1   -1    0    0  501    0 -0.00000000000E+00 -0.00000000000E+00 -0.12687083904E+04  0.12687083904E+04  0.00000000000E+00 0. -1.
         25    2    1    2    0    0  0.46790636446E+02  0.25287468220E+02  0.19963231220E+03  0.24146753299E+03  0.12499875883E+03 0.  0.
          2    1    1    2  501    0 -0.65740242356E+02 -0.76684500494E+01 -0.12463993079E+04  0.12481553667E+04  0.00000000000E+00 0. -1.
          1    1    1    2  502    0  0.18949605911E+02 -0.17619018170E+02  0.32548071246E+03  0.32650759799E+03  0.00000000000E+00 0. -1.
         22    1    3    3    0    0  0.59185430639E+02  0.64682267859E+02  0.96534193831E+02  0.13040537395E+03  0.00000000000E+00 0. -1.
         22    1    3    3    0    0 -0.12394794193E+02 -0.39394799639E+02  0.10309811837E+03  0.11106215905E+03  0.00000000000E+00 0. -1.
</event>
<event>
 7    1  0.6557591E-006  0.5872972E+02  0.7818608E-02  0.1485484E+00
          2   -1    0    0  502    0  0.00000000000E+00  0.00000000000E+00  0.14467534876E+04  0.14467534876E+04  0.00000000000E+00 0. -1.
          1   -1    0    0  501    0 -0.00000000000E+00 -0.00000000000E+00 -0.50461921634E+02  0.50461921634E+02  0.00000000000E+00 0. -1.
         25    2    1    2    0    0  0.29937139722E+02  0.17420289841E+02  0.31719552476E+03  0.34267201240E+03  0.12494562146E+03 0.  0.
          2    1    1    2  501    0 -0.60248393667E+02 -0.75756768563E+01 -0.12903694408E+02  0.62078701248E+02  0.00000000000E+00 0. -1.
          1    1    1    2  502    0  0.30311253945E+02 -0.98446129842E+01  0.10919997356E+04  0.10924646956E+04  0.00000000000E+00 0. -1.
         22    1    3    3    0    0  0.85424585224E+00 -0.52598844289E+02  0.15366591186E+03  0.16242099810E+03  0.00000000000E+00 0.  1.
         22    1    3    3    0    0  0.29082893870E+02  0.70019134130E+02  0.16352961290E+03  0.18025101430E+03  0.00000000000E+00 0.  1.
</event>
<event>
 7    1  0.6557591E-006  0.1916664E+03  0.7818608E-02  0.1266539E+00
          2   -1    0    0  502    0  0.00000000000E+00  0.00000000000E+00  0.72674883243E+03  0.72674883243E+03  0.00000000000E+00 0. -1.
          1   -1    0    0  501    0 -0.00000000000E+00 -0.00000000000E+00 -0.24352934812E+03  0.24352934812E+03  0.00000000000E+00 0. -1.
         25    2    1    2    0    0 -0.12124933277E+03 -0.67712056109E+02 -0.47258125950E+02  0.19272847216E+03  0.12499844108E+03 0.  0.
          2    1    1    2  501    0 -0.53467580325E+02 -0.26227918263E+02 -0.10011643225E+03  0.11649028220E+03  0.00000000000E+00 0. -1.
          1    1    1    2  502    0  0.17471691310E+03  0.93939974372E+02  0.63059404250E+03  0.66105942619E+03  0.00000000000E+00 0. -1.
         22    1    3    3    0    0 -0.11098026820E+03  0.13018693741E+01 -0.48836034356E+01  0.11109529412E+03  0.00000000000E+00 0. -1.
         22    1    3    3    0    0 -0.10269064568E+02 -0.69013925483E+02 -0.42374522514E+02  0.81633178035E+02  0.00000000000E+00 0. -1.
</event>
<event>
 7    1  0.6557591E-006  0.1258373E+03  0.7818608E-02  0.1293567E+00
          2   -1    0    0  502    0  0.00000000000E+00  0.00000000000E+00  0.19294485925E+04  0.19294485925E+04  0.00000000000E+00 0. -1.
          1   -1    0    0  501    0 -0.00000000000E+00 -0.00000000000E+00 -0.65108187670E+03  0.65108187670E+03  0.00000000000E+00 0. -1.
         25    2    1    2    0    0 -0.76371634377E+02 -0.25779500424E+02 -0.38532676312E+03  0.41303525279E+03  0.12499678591E+03 0.  0.
          2    1    1    2  501    0 -0.46990059401E+02  0.52068894019E+02 -0.24489644463E+03  0.25474203422E+03  0.00000000000E+00 0. -1.
          1    1    1    2  502    0  0.12336169378E+03 -0.26289393595E+02  0.19085899236E+04  0.19127531822E+04  0.00000000000E+00 0. -1.
         22    1    3    3    0    0 -0.75901664481E+02 -0.35013186960E+02 -0.11302251737E+03  0.14057409208E+03  0.00000000000E+00 0. -1.
         22    1    3    3    0    0 -0.46996989612E+00  0.92336865359E+01 -0.27230424575E+03  0.27246116070E+03  0.00000000000E+00 0. -1.
</event>
<event>
 7    1  0.6557591E-006  0.1173270E+03  0.7818608E-02  0.1321748E+00
          2   -1    0    0  502    0  0.00000000000E+00  0.00000000000E+00  0.11755596196E+04  0.11755596196E+04  0.00000000000E+00 0. -1.
          1   -1    0    0  501    0 -0.00000000000E+00 -0.00000000000E+00 -0.14855075481E+03  0.14855075481E+03  0.00000000000E+00 0. -1.
         25    2    1    2    0    0 -0.22313791687E+02  0.80894359744E+02  0.28242086786E+03  0.32004320916E+03  0.12499722554E+03 0.  0.
          2    1    1    2  501    0 -0.21386936717E+02 -0.11932432178E+03 -0.10020069744E+03  0.15727642735E+03  0.00000000000E+00 0. -1.
          1    1    1    2  502    0  0.43700728404E+02  0.38429962039E+02  0.84478869435E+03  0.84679073787E+03  0.00000000000E+00 0. -1.
         22    1    3    3    0    0  0.35454896743E+02 -0.15060289225E+02  0.75064472373E+02  0.84371423048E+02  0.00000000000E+00 0.  1.
         22    1    3    3    0    0 -0.57768688430E+02  0.95954648969E+02  0.20735639549E+03  0.23567178611E+03  0.00000000000E+00 0.  1.
</event>
<event>
 7    1  0.6557591E-006  0.1383745E+03  0.7818608E-02  0.1242038E+00
          2   -1    0    0  502    0  0.00000000000E+00  0.00000000000E+00  0.10629324097E+04  0.10629324097E+04  0.00000000000E+00 0. -1.
          1   -1    0    0  501    0 -0.00000000000E+00 -0.00000000000E+00 -0.14687382025E+04  0.14687382025E+04  0.00000000000E+00 0. -1.
         25    2    1    2    0    0  0.19003388241E+02  0.22665813607E+03 -0.89844760526E+02  0.27464355394E+03  0.12498784467E+03 0.  0.
          2    1    1    2  501    0 -0.49372332271E+02 -0.12595139551E+03 -0.12800691581E+04  0.12871978988E+04  0.00000000000E+00 0. -1.
          1    1    1    2  502    0  0.30368944030E+02 -0.10070674056E+03  0.96410812583E+03  0.96982915952E+03  0.00000000000E+00 0. -1.
         22    1    3    3    0    0 -0.16596000256E+02  0.20855487546E+03 -0.43906304328E+02  0.21377166992E+03  0.00000000000E+00 0.  1.
         22    1    3    3    0    0  0.35599388497E+02  0.18103260615E+02 -0.45938456198E+02  0.60871884020E+02  0.00000000000E+00 0.  1.
</event>
<event>
 7    1  0.6557591E-006  0.6527922E+02  0.7818608E-02  0.1489425E+00
          2   -1    0    0  502    0  0.00000000000E+00  0.00000000000E+00  0.33568180424E+03  0.33568180424E+03  0.00000000000E+00 0. -1.
          1   -1    0    0  501    0 -0.00000000000E+00 -0.00000000000E+00 -0.13621422283E+04  0.13621422283E+04  0.00000000000E+00 0. -1.
         25    2    1    2    0    0 -0.65347281430E+02  0.29886722488E+02  0.10197141442E+03  0.17660592307E+03  0.12501199675E+03 0.  0.
          2    1    1    2  501    0  0.21324484112E+02  0.17980652287E+02 -0.13192898045E+04  0.13195846414E+04  0.00000000000E+00 0. -1.
          1    1    1    2  502    0  0.44022797318E+02 -0.47867374775E+02  0.19085796604E+03  0.20163346809E+03  0.00000000000E+00 0. -1.
         22    1    3    3    0    0  0.29331227640E+02  0.27169264279E+02  0.62058569880E+02  0.73822462244E+02  0.00000000000E+00 0. -1.
         22    1    3    3    0    0 -0.94678509071E+02  0.27174582090E+01  0.39912844540E+02  0.10278346082E+03  0.00000000000E+00 0. -1.
</event>
<event>
 7    1  0.6557591E-006  0.5502039E+02  0.7818608E-02  0.1477686E+00
          2   -1    0    0  502    0  0.00000000000E+00  0.00000000000E+00  0.27657439209E+04  0.27657439209E+04  0.00000000000E+00 0. -1.
          1   -1    0    0  501    0 -0.00000000000E+00 -0.00000000000E+00 -0.84268750203E+03  0.84268750203E+03  0.00000000000E+00 0. -1.
         25    2    1    2    0    0  0.45735245397E+02 -0.59095165112E+02  0.20857276853E+04  0.20908057653E+04  0.12499928002E+03 0.  0.
          2    1    1    2  501    0 -0.49797967542E+02  0.23385019476E+02 -0.83877000618E+03  0.84057231692E+03  0.00000000000E+00 0. -1.
          1    1    1    2  502    0  0.40627221442E+01  0.35710145635E+02  0.67609873980E+03  0.67705334071E+03  0.00000000000E+00 0. -1.
         22    1    3    3    0    0 -0.27470648083E+02 -0.66342962889E+02  0.10930945180E+04  0.10954504327E+04  0.00000000000E+00 0. -1.
         22    1    3    3    0    0  0.73205893480E+02  0.72477977776E+01  0.99263316730E+03  0.99535533265E+03  0.00000000000E+00 0. -1.
</event>
<event>
 7    1  0.6557591E-006  0.8262279E+02  0.7818608E-02  0.1389498E+00
          2   -1    0    0  502    0  0.00000000000E+00  0.00000000000E+00  0.19684416848E+03  0.19684416848E+03  0.00000000000E+00 0. -1.
          1   -1    0    0  501    0 -0.00000000000E+00 -0.00000000000E+00 -0.75042880188E+03  0.75042880188E+03  0.00000000000E+00 0. -1.
         25    2    1    2    0    0  0.12708470201E+02 -0.69926171007E+02 -0.30692549985E+02  0.14703580268E+03  0.12500528004E+03 0.  0.
          2    1    1    2  501    0  0.33362076004E+02  0.76744189885E+02 -0.65491552087E+03  0.66024013683E+03  0.00000000000E+00 0. -1.
          1    1    1    2  502    0 -0.46070546206E+02 -0.68180188774E+01  0.13202343745E+03  0.13999703085E+03  0.00000000000E+00 0. -1.
         22    1    3    3    0    0  0.34275535192E+02 -0.74448426395E+02 -0.66125923724E+02  0.10530915579E+03  0.00000000000E+00 0.  1.
         22    1    3    3    0    0 -0.21567064990E+02  0.45222553880E+01  0.35433373739E+02  0.41726646889E+02  0.00000000000E+00 0.  1.
</event>
<event>
 7    1  0.6557591E-006  0.6788034E+02  0.7818608E-02  0.1450918E+00
          2   -1    0    0  502    0  0.00000000000E+00  0.00000000000E+00  0.24966056644E+04  0.24966056644E+04  0.00000000000E+00 0. -1.
          1   -1    0    0  501    0 -0.00000000000E+00 -0.00000000000E+00 -0.10312779118E+04  0.10312779118E+04  0.00000000000E+00 0. -1.
         25    2    1    2    0    0  0.30160758228E+02 -0.26331229864E+02  0.11291882395E+03  0.17314269260E+03  0.12499890477E+03 0.  0.
          2    1    1    2  501    0  0.34935487787E+02  0.53530339006E+01 -0.10003569727E+04  0.10009811268E+04  0.00000000000E+00 0. -1.
          1    1    1    2  502    0 -0.65096246015E+02  0.20978195963E+02  0.23527659014E+04  0.23537597568E+04  0.00000000000E+00 0. -1.
         22    1    3    3    0    0 -0.32828225397E+02 -0.27704342937E+02 -0.99372940652E+00  0.42967551692E+02  0.00000000000E+00 0.  1.
         22    1    3    3    0    0  0.62988983625E+02  0.13731130733E+01  0.11391255336E+03  0.13017514090E+03  0.00000000000E+00 0.  1.
</event>
<event>
 7    1  0.6557591E-006  0.5775977E+02  0.7818608E-02  0.1414093E+00
          2   -1    0    0  502    0  0.00000000000E+00  0.00000000000E+00  0.13559176086E+04  0.13559176086E+04  0.00000000000E+00 0. -1.
          1   -1    0    0  501    0 -0.00000000000E+00 -0.00000000000E+00 -0.10612160324E+03  0.10612160324E+03  0.00000000000E+00 0. -1.
         25    2    1    2    0    0 -0.78569840837E+00  0.22630846972E+01  0.37200665332E+03  0.39245348181E+03  0.12500018558E+03 0.  0.
          2    1    1    2  501    0 -0.49244201699E+02  0.30186082123E+02 -0.86195283559E+02  0.10375845923E+03  0.00000000000E+00 0. -1.
          1    1    1    2  502    0  0.50029900107E+02 -0.32449166820E+02  0.96398463556E+03  0.96582727076E+03  0.00000000000E+00 0. -1.
         22    1    3    3    0    0 -0.22868524527E+02 -0.56470363999E+02  0.15456181963E+03  0.16613617160E+03  0.00000000000E+00 0. -1.
         22    1    3    3    0    0  0.22082826119E+02  0.58733448696E+02  0.21744483368E+03  0.22631731021E+03  0.00000000000E+00 0. -1.
</event>
<event>
 7    1  0.6557591E-006  0.7542484E+02  0.7818608E-02  0.1453742E+00
          2   -1    0    0  502    0  0.00000000000E+00  0.00000000000E+00  0.12339793689E+03  0.12339793689E+03  0.00000000000E+00 0. -1.
          1   -1    0    0  501    0 -0.00000000000E+00 -0.00000000000E+00 -0.17539835536E+03  0.17539835536E+03  0.00000000000E+00 0. -1.
         25    2    1    2    0    0  0.67205728515E+02  0.43130599709E+02 -0.24577266688E+02  0.15034955317E+03  0.12499635004E+03 0.  0.
          2    1    1    2  501    0 -0.24527603275E+02  0.19210314597E+02 -0.58875988202E+02  0.66610971289E+02  0.00000000000E+00 0. -1.
          1    1    1    2  502    0 -0.42678125240E+02 -0.62340914306E+02  0.31452836419E+02  0.81835767787E+02  0.00000000000E+00 0. -1.
         22    1    3    3    0    0  0.88294818087E+01  0.34404760320E+02  0.46145038061E+02  0.58232394931E+02  0.00000000000E+00 0.  1.
         22    1    3    3    0    0  0.58376246706E+02  0.87258393889E+01 -0.70722304749E+02  0.92117158236E+02  0.00000000000E+00 0.  1.
</event>
<event>
 7    1  0.6557591E-006  0.2179229E+03  0.7818608E-02  0.1264540E+00
          2   -1    0    0  502    0  0.00000000000E+00  0.00000000000E+00  0.53900247216E+03  0.53900247216E+03  0.00000000000E+00 0. -1.
          1   -1    0    0  501    0 -0.00000000000E+00 -0.00000000000E+00 -0.45759566888E+03  0.45759566888E+03  0.00000000000E+00 0. -1.
         25    2    1    2    0    0  0.35005915591E+01 -0.22154575594E+03  0.43309164101E+02  0.25806933773E+03  0.12501729187E+03 0.  0.
          2    1    1    2  501    0  0.52368238424E+02  0.10489534752E+02 -0.31711717704E+03  0.32158321895E+03  0.00000000000E+00 0. -1.
          1    1    1    2  502    0 -0.55868829983E+02  0.21105622119E+03  0.35521481621E+03  0.41694558437E+03  0.00000000000E+00 0. -1.
         22    1    3    3    0    0  0.62385092990E+02 -0.96652506846E+02  0.67626368806E+01  0.11523601939E+03  0.00000000000E+00 0. -1.
         22    1    3    3    0    0 -0.58884501431E+02 -0.12489324909E+03  0.36546527221E+02  0.14283331835E+03  0.00000000000E+00 0. -1.
</event>
<event>
 7    1  0.8658158E-006  0.7792303E+02  0.7818608E-02  0.1373947E+00
          2   -1    0    0  502    0  0.00000000000E+00  0.00000000000E+00  0.11225662206E+04  0.11225662206E+04  0.00000000000E+00 0. -1.
          1   -1    0    0  501    0 -0.00000000000E+00 -0.00000000000E+00 -0.60838611678E+03  0.60838611678E+03  0.00000000000E+00 0. -1.
         25    2    1    2    0    0  0.55801902613E+02  0.22691627892E+01 -0.25045932079E+03  0.28543677533E+03  0.12500111961E+03 0.  0.
          2    1    1    2  501    0 -0.36729990116E+01  0.55919831300E+02 -0.33673876569E+03  0.34137005547E+03  0.00000000000E+00 0. -1.
          1    1    1    2  502    0 -0.52128903602E+02 -0.58188994089E+02  0.11013781904E+04  0.11041455066E+04  0.00000000000E+00 0. -1.
         22    1    3    3    0    0  0.19460802797E+02  0.63060590702E+02 -0.12595450934E+03  0.14219669253E+03  0.00000000000E+00 0.  1.
         22    1    3    3    0    0  0.36341099817E+02 -0.60791427913E+02 -0.12450481145E+03  0.14324008279E+03  0.00000000000E+00 0.  1.
</event>
<event>
 7    1  0.6557591E-006  0.1959948E+03  0.7818608E-02  0.1186507E+00
          2   -1    0    0  502    0  0.00000000000E+00  0.00000000000E+00  0.25585169422E+04  0.25585169422E+04  0.00000000000E+00 0. -1.
          1   -1    0    0  501    0 -0.00000000000E+00 -0.00000000000E+00 -0.77185301289E+03  0.77185301289E+03  0.00000000000E+00 0. -1.
         25    2    1    2    0    0  0.27297084621E+03  0.56833527782E+02  0.23093145934E+02  0.30644193314E+03  0.12502092719E+03 0.  0.
          2    1    1    2  501    0 -0.15236706209E+03 -0.11483906964E+03 -0.61381165630E+03  0.64278183153E+03  0.00000000000E+00 0. -1.
          1    1    1    2  502    0 -0.12060378412E+03  0.58005541857E+02  0.23773824397E+04  0.23811461904E+04  0.00000000000E+00 0. -1.
         22    1    3    3    0    0  0.22691706316E+03 -0.38138491674E+01  0.34108278462E+02  0.22949787288E+03  0.00000000000E+00 0. -1.
         22    1    3    3    0    0  0.46053783055E+02  0.60647376949E+02 -0.11015132528E+02  0.76944060259E+02  0.00000000000E+00 0. -1.
</event>
<event>
 7    1  0.6557591E-006  0.5327857E+02  0.7818608E-02  0.1505313E+00
          2   -1    0    0  502    0  0.00000000000E+00  0.00000000000E+00  0.73236120955E+03  0.73236120955E+03  0.00000000000E+00 0. -1.
          1   -1    0    0  501    0 -0.00000000000E+00 -0.00000000000E+00 -0.62989410763E+03  0.62989410763E+03  0.00000000000E+00 0. -1.
         25    2    1    2    0    0 -0.46072218145E+02 -0.44193137216E+02  0.96812877991E+02  0.17051008275E+03  0.12500108925E+03 0.  0.
          2    1    1    2  501    0  0.29936058992E+02 -0.64794260731E+01 -0.59146752580E+03  0.59226006506E+03  0.00000000000E+00 0. -1.
          1    1    1    2  502    0  0.16136159153E+02  0.50672563289E+02  0.59712174972E+03  0.59948516937E+03  0.00000000000E+00 0. -1.
         22    1    3    3    0    0  0.34258513345E+02 -0.18755372232E+02 -0.38376340319E+01  0.39244581271E+02  0.00000000000E+00 0.  1.
         22    1    3    3    0    0 -0.80330731490E+02 -0.25437764984E+02  0.10065051202E+03  0.13126550148E+03  0.00000000000E+00 0.  1.
</event>
<event>
 7    1  0.6557591E-006  0.2021373E+03  0.7818608E-02  0.1215458E+00
          2   -1    0    0  502    0  0.00000000000E+00  0.00000000000E+00  0.17062352783E+04  0.17062352783E+04  0.00000000000E+00 0. -1.
          1   -1    0    0  501    0 -0.00000000000E+00 -0.00000000000E+00 -0.13713407887E+04  0.13713407887E+04  0.00000000000E+00 0. -1.
         25    2    1    2    0    0 -0.11559967830E+02 -0.22178602827E+03 -0.37354357593E+03  0.45220066457E+03  0.12501185034E+03 0.  0.
          2    1    1    2  501    0  0.95246600334E+02  0.17724659621E+03 -0.94653654078E+03  0.96768780801E+03  0.00000000000E+00 0. -1.
          1    1    1    2  502    0 -0.83686632504E+02  0.44539432058E+02  0.16549746062E+04  0.16576875944E+04  0.00000000000E+00 0. -1.
         22    1    3    3    0    0 -0.13969960411E+02 -0.44730931249E+02 -0.10130612245E+02  0.47944189520E+02  0.00000000000E+00 0.  1.
         22    1    3    3    0    0  0.24099925807E+01 -0.17705509702E+03 -0.36341296369E+03  0.40425647505E+03  0.00000000000E+00 0.  1.
</event>
<event>
 7    1  0.6557591E-006  0.9070144E+02  0.7818608E-02  0.1478486E+00
          2   -1    0    0  502    0  0.00000000000E+00  0.00000000000E+00  0.15611630230E+03  0.15611630230E+03  0.00000000000E+00 0. -1.
          1   -1    0    0  501    0 -0.00000000000E+00 -0.00000000000E+00 -0.91395402510E+03  0.91395402510E+03  0.00000000000E+00 0. -1.
         25    2    1    2    0    0 -0.56234790671E+02 -0.45652190360E+02 -0.81955229518E+02  0.16609710052E+03  0.12500045196E+03 0.  0.
          2    1    1    2  501    0 -0.12752392680E+02 -0.17531236254E+02 -0.77056575614E+03  0.77087064564E+03  0.00000000000E+00 0. -1.
          1    1    1    2  502    0  0.68987183351E+02  0.63183426614E+02  0.94683262868E+02  0.13310258124E+03  0.00000000000E+00 0. -1.
         22    1    3    3    0    0 -0.94918000651E+02 -0.17262907542E+02 -0.53712258676E+02  0.11041938940E+03  0.00000000000E+00 0.  1.
         22    1    3    3    0    0  0.38683209980E+02 -0.28389282819E+02 -0.28242970842E+02  0.55677711118E+02  0.00000000000E+00 0.  1.
</event>
<event>
 7    1  0.6557591E-006  0.1910226E+03  0.7818608E-02  0.1305681E+00
          2   -1    0    0  502    0  0.00000000000E+00  0.00000000000E+00  0.45786926004E+03  0.45786926004E+03  0.00000000000E+00 0. -1.
          1   -1    0    0  501    0 -0.00000000000E+00 -0.00000000000E+00 -0.15887433701E+04  0.15887433701E+04  0.00000000000E+00 0. -1.
         25    2    1    2    0    0 -0.10126047737E+02  0.15688567092E+03 -0.17343589356E+03  0.26536634922E+03  0.12499455804E+03 0.  0.
          2    1    1    2  501    0 -0.24401895928E+01 -0.19624757018E+03 -0.13612502097E+04  0.13753258512E+04  0.00000000000E+00 0. -1.
          1    1    1    2  502    0  0.12566237330E+02  0.39361899262E+02  0.40381199323E+03  0.40592042978E+03  0.00000000000E+00 0. -1.
         22    1    3    3    0    0  0.38892060661E+02  0.38426395804E+02 -0.10886504840E+03  0.12182273614E+03  0.00000000000E+00 0.  1.
         22    1    3    3    0    0 -0.49018108398E+02  0.11845927511E+03 -0.64570845166E+02  0.14354361308E+03  0.00000000000E+00 0.  1.
</event>
<event>
 7    1  0.6557591E-006  0.6099612E+02  0.7818608E-02  0.1500618E+00
          2   -1    0    0  502    0  0.00000000000E+00  0.00000000000E+00  0.30372689078E+03  0.30372689078E+03  0.00000000000E+00 0. -1.
          1   -1    0    0  501    0 -0.00000000000E+00 -0.00000000000E+00 -0.65351520055E+03  0.65351520055E+03  0.00000000000E+00 0. -1.
         25    2    1    2    0    0  0.21624603320E+02  0.82010572365E+02 -0.17048629506E+03  0.22777918354E+03  0.12499768880E+03 0.  0.
          2    1    1    2  501    0 -0.17293979066E+02 -0.21545312097E+02 -0.45061449455E+03  0.45146063492E+03  0.00000000000E+00 0. -1.
          1    1    1    2  502    0 -0.43306242544E+01 -0.60465260268E+02  0.27131247983E+03  0.27800227286E+03  0.00000000000E+00 0. -1.
         22    1    3    3    0    0  0.57650678431E+02  0.69207828145E+02 -0.16654601727E+03  0.18934333912E+03  0.00000000000E+00 0.  1.
         22    1    3    3    0    0 -0.36026075111E+02  0.12802744220E+02 -0.39402777838E+01  0.38435844423E+02  0.00000000000E+00 0.  1.
</event>
<event>
 7    1  0.6557591E-006  0.6129367E+02  0.7818608E-02  0.1494395E+00
          2   -1    0    0  502    0  0.00000000000E+00  0.00000000000E+00  0.94707387140E+03  0.94707387140E+03  0.00000000000E+00 0. -1.
          1   -1    0    0  501    0 -0.00000000000E+00 -0.00000000000E+00 -0.11643875690E+03  0.11643875690E+03  0.00000000000E+00 0. -1.
         25    2    1    2    0    0 -0.38426475447E+02  0.70385111093E+02  0.12744963830E+02  0.14906187771E+03  0.12500540551E+03 0.  0.
          2    1    1    2  501    0  0.26722533153E+02 -0.10465351861E+02 -0.42836569253E+02  0.51561507281E+02  0.00000000000E+00 0. -1.
          1    1    1    2  502    0  0.11703942294E+02 -0.59919759232E+02  0.86072671992E+03  0.86288924330E+03  0.00000000000E+00 0. -1.
         22    1    3    3    0    0  0.28941681876E+01 -0.28863627513E+02  0.28192160127E+02  0.40450996222E+02  0.00000000000E+00 0. -1.
         22    1    3    3    0    0 -0.41320643634E+02  0.99248738606E+02 -0.15447196297E+02  0.10861088149E+03  0.00000000000E+00 0. -1.
</event>
<event>
 7    1  0.6557591E-006  0.1320368E+03  0.7818608E-02  0.1406028E+00
          2   -1    0    0  502    0  0.00000000000E+00  0.00000000000E+00  0.76608311456E+03  0.76608311456E+03  0.00000000000E+00 0. -1.
          1   -1    0    0  501    0 -0.00000000000E+00 -0.00000000000E+00 -0.10484980216E+04  0.10484980216E+04  0.00000000000E+00 0. -1.
         25    2    1    2    0    0 -0.11833077122E+02  0.13858701480E+03 -0.40718938616E+03  0.44807863783E+03  0.12499954837E+03 0.  0.
          2    1    1    2  501    0  0.24513635278E+02 -0.72265020431E+01 -0.61475701655E+03  0.61528800577E+03  0.00000000000E+00 0. -1.
          1    1    1    2  502    0 -0.12680558157E+02 -0.13136051276E+03  0.73953149563E+03  0.75121449260E+03  0.00000000000E+00 0. -1.
         22    1    3    3    0    0 -0.13609059638E+02  0.12968162265E+03 -0.18852188554E+03  0.22922266704E+03  0.00000000000E+00 0.  1.
         22    1    3    3    0    0  0.17759825165E+01  0.89053921513E+01 -0.21866750062E+03  0.21885597079E+03  0.00000000000E+00 0.  1.
</event>
<event>
 7    1  0.6557591E-006  0.5005939E+02  0.7818608E-02  0.1447889E+00
          2   -1    0    0  502    0  0.00000000000E+00  0.00000000000E+00  0.90719897486E+03  0.90719897486E+03  0.00000000000E+00 0. -1.
          1   -1    0    0  501    0 -0.00000000000E+00 -0.00000000000E+00 -0.16427500785E+03  0.16427500785E+03  0.00000000000E+00 0. -1.
         25    2    1    2    0    0  0.31826500183E+02  0.25042714406E+02  0.19568585649E+03  0.23571222329E+03  0.12500893617E+03 0.  0.
          2    1    1    2  501    0 -0.45727213269E+02  0.21952317651E+02 -0.13890195884E+03  0.14787371792E+03  0.00000000000E+00 0. -1.
          1    1    1    2  502    0  0.13900713086E+02 -0.46995032058E+02  0.68614006935E+03  0.68788804149E+03  0.00000000000E+00 0. -1.
         22    1    3    3    0    0  0.37777205264E+02  0.62807665040E+02  0.59930094754E+02  0.94675954089E+02  0.00000000000E+00 0.  1.
         22    1    3    3    0    0 -0.59507050812E+01 -0.37764950634E+02  0.13575576173E+03  0.14103626921E+03  0.00000000000E+00 0.  1.
</event>
<event>
 7    1  0.6557591E-006  0.1275016E+03  0.7818608E-02  0.1271404E+00
          2   -1    0    0  502    0  0.00000000000E+00  0.00000000000E+00  0.99116593441E+03  0.99116593441E+03  0.00000000000E+00 0. -1.
          1   -1    0    0  501    0 -0.00000000000E+00 -0.00000000000E+00 -0.92310864177E+03  0.92310864177E+03  0.00000000000E+00 0. -1.
         25    2    1    2    0    0  0.94005179632E+02  0.87711685429E+01 -0.91412264445E+02  0.18137140564E+03  0.12500190998E+03 0.  0.
          2    1    1    2  501    0  0.10655751288E+02 -0.84736203128E+02 -0.77995603257E+03  0.78461785723E+03  0.00000000000E+00 0. -1.
          1    1    1    2  502    0 -0.10466093092E+03  0.75965034585E+02  0.93942558965E+03  0.94828531330E+03  0.00000000000E+00 0. -1.
         22    1    3    3    0    0 -0.80288559730E+01 -0.36595782179E+02 -0.49543445457E+02  0.62114948195E+02  0.00000000000E+00 0.  1.
         22    1    3    3    0    0  0.10203403561E+03  0.45366950721E+02 -0.41868818987E+02  0.11925645745E+03  0.00000000000E+00 0.  1.
</event>
<event>
 7    1  0.6557591E-006  0.1967263E+03  0.7818608E-02  0.1381127E+00
          2   -1    0    0  502    0  0.00000000000E+00  0.00000000000E+00  0.16040471210E+04  0.16040471210E+04  0.00000000000E+00 0. -1.
          1   -1    0    0  501    0 -0.00000000000E+00 -0.00000000000E+00 -0.22483484043E+04  0.22483484043E+04  0.00000000000E+00 0. -1.
         25    2    1    2    0    0 -0.10604213313E+03 -0.15084898236E+03  0.23952705816E+03  0.32710865276E+03  0.12500603843E+03 0.  0.
          2    1    1    2  501    0  0.98657493662E+02  0.17043355234E+03 -0.22000764291E+04  0.22088723799E+04  0.00000000000E+00 0. -1.
          1    1    1    2  502    0  0.73846394695E+01 -0.19584569980E+02  0.13162480877E+04  0.13164144927E+04  0.00000000000E+00 0. -1.
         22    1    3    3    0    0 -0.51059363170E+02 -0.14551424392E+03  0.21969339215E+03  0.26841505231E+03  0.00000000000E+00 0.  1.
         22    1    3    3    0    0 -0.54982769962E+02 -0.53347384404E+01  0.19833666003E+02  0.58693600452E+02  0.00000000000E+00 0.  1.
</event>
<event>
 7    1  0.6557591E-006  0.1113843E+03  0.7818608E-02  0.1359529E+00
          2   -1    0    0  502    0  0.00000000000E+00  0.00000000000E+00  0.10351754100E+04  0.10351754100E+04  0.00000000000E+00 0. -1.
          1   -1    0    0  501    0 -0.00000000000E+00 -0.00000000000E+00 -0.13289836259E+04  0.13289836259E+04  0.00000000000E+00 0. -1.
         25    2    1    2    0    0  0.71216684441E+02  0.71542091054E+02  0.24570499253E+03  0.29357465991E+03  0.12500020261E+03 0.  0.
          2    1    1    2  501    0 -0.27807711701E+02  0.34357811389E+02 -0.13003934321E+04  0.13011444218E+04  0.00000000000E+00 0. -1.
          1    1    1    2  502    0 -0.43408972740E+02 -0.10589990244E+03  0.76088022374E+03  0.76943995421E+03  0.00000000000E+00 0. -1.
         22    1    3    3    0    0  0.16488683718E+01  0.88234453876E+02  0.15080447852E+03  0.17472844176E+03  0.00000000000E+00 0. -1.
         22    1    3    3    0    0  0.69567816069E+02 -0.16692362822E+02  0.94900514005E+02  0.11884621815E+03  0.00000000000E+00 0. -1.
</event>
<event>
 7    1  0.6557591E-006  0.1623003E+03  0.7818608E-02  0.1219839E+00
          2   -1    0    0  502    0  0.00000000000E+00  0.00000000000E+00  0.29795983831E+04  0.29795983831E+04  0.00000000000E+00 0. -1.
          1   -1    0    0  501    0 -0.00000000000E+00 -0.00000000000E+00 -0.57340615548E+03  0.57340615548E+03  0.00000000000E+00 0. -1.
         25    2    1    2    0    0  0.74351669571E+02 -0.33221745982E+02 -0.30842651543E+00  0.14918761408E+03  0.12499997557E+03 0.  0.
          2    1    1    2  501    0 -0.18181685309E+03 -0.86491269467E+00 -0.48094786340E+03  0.51416822485E+03  0.00000000000E+00 0. -1.
          1    1    1    2  502    0  0.10746518352E+03  0.34086658677E+02  0.28874485175E+04  0.28896486996E+04  0.00000000000E+00 0. -1.
         22    1    3    3    0    0  0.90920352114E+02 -0.65291671153E+02  0.77453651172E+01  0.11220295643E+03  0.00000000000E+00 0.  1.
         22    1    3    3    0    0 -0.16568682543E+02  0.32069925170E+02 -0.80537916327E+01  0.36984657647E+02  0.00000000000E+00 0.  1.
</event>
<event>
 7    1  0.6557591E-006  0.6313546E+02  0.7818608E-02  0.1394793E+00
          2   -1    0    0  502    0  0.00000000000E+00  0.00000000000E+00  0.87647876549E+03  0.87647876549E+03  0.00000000000E+00 0. -1.
          1   -1    0    0  501    0 -0.00000000000E+00 -0.00000000000E+00 -0.21865240025E+04  0.21865240025E+04  0.00000000000E+00 0. -1.
         25    2    1    2    0    0 -0.34117133512E+02 -0.24717350734E+02  0.40754135567E+03  0.42835896538E+03  0.12500608151E+03 0.  0.
          2    1    1    2  501    0 -0.24731466970E+02  0.58089938069E+02 -0.21731588169E+04  0.21740757415E+04  0.00000000000E+00 0. -1.
          1    1    1    2  502    0  0.58848600482E+02 -0.33372587335E+02  0.45557222426E+03  0.46056806107E+03  0.00000000000E+00 0. -1.
         22    1    3    3    0    0 -0.49248208772E+02 -0.68746822963E+02  0.23970574412E+03  0.25418567131E+03  0.00000000000E+00 0. -1.
         22    1    3    3    0    0  0.15131075259E+02  0.44029472229E+02  0.16783561154E+03  0.17417329406E+03  0.00000000000E+00 0. -1.
</event>
<event>
 7    1  0.6557591E-006  0.7182169E+02  0.7818608E-02  0.1369730E+00
          2   -1    0    0  502    0  0.00000000000E+00  0.00000000000E+00  0.47560768725E+03  0.47560768725E+03  0.00000000000E+00 0. -1.
          1   -1    0    0  501    0 -0.00000000000E+00 -0.00000000000E+00 -0.20432529990E+04  0.20432529990E+04  0.00000000000E+00 0. -1.
         25    2    1    2    0    0 -0.13012011197E+03  0.34042578832E+02 -0.13905322993E+04  0.14026025934E+04  0.12499527565E+03 0.  0.
          2    1    1    2  501    0  0.61638512505E+02 -0.12806354509E+02 -0.64240095144E+03  0.64547834306E+03  0.00000000000E+00 0. -1.
          1    1    1    2  502    0  0.68481599460E+02 -0.21236224323E+02  0.46528793896E+03  0.47077974981E+03  0.00000000000E+00 0. -1.
         22    1    3    3    0    0 -0.14046523563E+02 -0.52418072331E+01 -0.13642783556E+02  0.20270838918E+02  0.00000000000E+00 0.  1.
         22    1    3    3    0    0 -0.11607358840E+03  0.39284386065E+02 -0.13768895157E+04  0.13823317545E+04  0.00000000000E+00 0.  1.
</event>
<event>
 7    1  0.6557591E-006  0.6332206E+02  0.7818608E-02  0.1385355E+00
          2   -1    0    0  502    0  0.00000000000E+00  0.00000000000E+00  0.15532697133E+03  0.15532697133E+03  0.00000000000E+00 0. -1.
          1   -1    0    0  501    0 -0.00000000000E+00 -0.00000000000E+00 -0.86739063697E+03  0.86739063697E+03  0.00000000000E+00 0. -1.
         25    2    1    2    0    0 -0.12798950509E+02  0.26544257375E+01 -0.30966056683E+03  0.33419431078E+03  0.12500124641E+03 0.  0.
          2    1    1    2  501    0  0.67197231973E+02  0.29757147199E+02 -0.53582297166E+03  0.54083935947E+03  0.00000000000E+00 0. -1.
          1    1    1    2  502    0 -0.54398281463E+02 -0.32411572937E+02  0.13341987285E+03  0.14768393805E+03  0.00000000000E+00 0. -1.
         22    1    3    3    0    0  0.29301626681E+02  0.26166803797E+02 -0.26680482459E+03  0.26968148133E+03  0.00000000000E+00 0.  1.
         22    1    3    3    0    0 -0.42100577190E+02 -0.23512378059E+02 -0.42855742236E+02  0.64512829455E+02  0.00000000000E+00 0.  1.
</event>
<event>
 7    1  0.6557591E-006  0.9107584E+02  0.7818608E-02  0.1463083E+00
          2   -1    0    0  502    0  0.00000000000E+00  0.00000000000E+00  0.17603684009E+03  0.17603684009E+03  0.00000000000E+00 0. -1.
          1   -1    0    0  501    0 -0.00000000000E+00 -0.00000000000E+00 -0.19383043625E+03  0.19383043625E+03  0.00000000000E+00 0. -1.
         25    2    1    2    0    0 -0.30195620876E+02  0.65408968724E+02  0.74618801818E+02  0.16242760037E+03  0.12499860427E+03 0.  0.
          2    1    1    2  501    0  0.50107220668E+02 -0.78995102375E+02 -0.13158274209E+03  0.16144651678E+03  0.00000000000E+00 0. -1.
          1    1    1    2  502    0 -0.19911599792E+02  0.13586133651E+02  0.39170344121E+02  0.45993159192E+02  0.00000000000E+00 0. -1.
         22    1    3    3    0    0  0.14381939692E+02 -0.31583380627E+02  0.32896638552E+02  0.47817768132E+02  0.00000000000E+00 0. -1.
         22    1    3    3    0    0 -0.44577560568E+02  0.96992349351E+02  0.41722163266E+02  0.11460983224E+03  0.00000000000E+00 0. -1.
</event>
<event>
 7    1  0.6557591E-006  0.1587649E+03  0.7818608E-02  0.1296375E+00
          2   -1    0    0  502    0  0.00000000000E+00  0.00000000000E+00  0.67757028226E+03  0.67757028226E+03  0.00000000000E+00 0. -1.
          1   -1    0    0  501    0 -0.00000000000E+00 -0.00000000000E+00 -0.11605654629E+04  0.11605654629E+04  0.00000000000E+00 0. -1.
         25    2    1    2    0    0 -0.51417825689E+02 -0.20212712122E+03  0.12457528395E+02  0.24347487532E+03  0.12500263583E+03 0.  0.
          2    1    1    2  501    0  0.51002738692E+02  0.14796905930E+03 -0.10378405571E+04  0.10495756970E+04  0.00000000000E+00 0. -1.
          1    1    1    2  502    0  0.41508699678E+00  0.54158061928E+02  0.54238784802E+03  0.54508517284E+03  0.00000000000E+00 0. -1.
         22    1    3    3    0    0  0.27216932568E+02 -0.11360890082E+03 -0.24647912631E+02  0.11939540762E+03  0.00000000000E+00 0.  1.
         22    1    3    3    0    0 -0.78634758257E+02 -0.88518220401E+02  0.37105441026E+02  0.12407946769E+03  0.00000000000E+00 0.  1.
</event>
<event>
 7    1  0.6557591E-006  0.1155806E+03  0.7818608E-02  0.1310908E+00
          2   -1    0    0  502    0  0.00000000000E+00  0.00000000000E+00  0.18485861153E+04  0.18485861153E+04  0.00000000000E+00 0. -1.
          1   -1    0    0  501    0 -0.00000000000E+00 -0.00000000000E+00 -0.22820201771E+03  0.22820201771E+03  0.00000000000E+00 0. -1.
         25    2    1    2    0    0  0.11309280478E+03  0.59256175237E+01  0.19741868215E+03  0.25966829484E+03  0.12501356666E+03 0.  0.
          2    1    1    2  501    0 -0.10157304370E+03  0.58164502320E+02 -0.17897800252E+03  0.21385349639E+03  0.00000000000E+00 0. -1.
          1    1    1    2  502    0 -0.11519761083E+02 -0.64090119844E+02  0.16019434179E+04  0.16032663417E+04  0.00000000000E+00 0. -1.
         22    1    3    3    0    0 -0.23588090098E+02 -0.15776365703E+02  0.49831886847E+02  0.57345519929E+02  0.00000000000E+00 0.  1.
         22    1    3    3    0    0  0.13668089488E+03  0.21701983227E+02  0.14758679531E+03  0.20232277491E+03  0.00000000000E+00 0.  1.
</event>
<event>
 7    1  0.6557591E-006  0.9633726E+02  0.7818608E-02  0.1326932E+00
          2   -1    0    0  502    0  0.00000000000E+00  0.00000000000E+00  0.80443622732E+03  0.80443622732E+03  0.00000000000E+00 0. -1.
          1   -1    0    0  501    0 -0.00000000000E+00 -0.00000000000E+00 -0.22114597363E+03  0.22114597363E+03  0.00000000000E+00 0. -1.
         25    2    1    2    0    0  0.36608952195E+02  0.14841902827E+03  0.55058328316E+02  0.20499823680E+03  0.12499773694E+03 0.  0.
          2    1    1    2  501    0 -0.15612709209E+01 -0.90511644315E+02 -0.13025752972E+03  0.15862477541E+03  0.00000000000E+00 0. -1.
          1    1    1    2  502    0 -0.35047681274E+02 -0.57907383951E+02  0.65848945510E+03  0.66195918874E+03  0.00000000000E+00 0. -1.
         22    1    3    3    0    0  0.47169008638E+02  0.14443478438E+03  0.32519454211E+01  0.15197663460E+03  0.00000000000E+00 0.  1.
         22    1    3    3    0    0 -0.10560056443E+02  0.39842438891E+01  0.51806382895E+02  0.53021602202E+02  0.00000000000E+00 0.  1.
</event>
<event>
 7    1  0.6557591E-006  0.3536698E+02  0.7818608E-02  0.1613934E+00
          2   -1    0    0  502    0  0.00000000000E+00  0.00000000000E+00  0.31799872348E+03  0.31799872348E+03  0.00000000000E+00 0. -1.
          1   -1    0    0  501    0 -0.00000000000E+00 -0.00000000000E+00 -0.10759109012E+03  0.10759109012E+03  0.00000000000E+00 0. -1.
         25    2    1    2    0    0 -0.21990440409E+02 -0.34861705515E+02  0.28297876705E+03  0.31209051063E+03  0.12499834497E+03 0.  0.
          2    1    1    2  501    0 -0.11545968958E+01  0.35362346473E+02 -0.81372933523E+02  0.88732085247E+02  0.00000000000E+00 0. -1.
          1    1    1    2  502    0  0.23145037305E+02 -0.50064095748E+00  0.88017998439E+01  0.24767217722E+02  0.00000000000E+00 0. -1.
         22    1    3    3    0    0  0.40448224594E+02  0.16502319625E+02  0.55241757700E+02  0.70427531687E+02  0.00000000000E+00 0.  1.
         22    1    3    3    0    0 -0.62438665003E+02 -0.51364025141E+02  0.22773700935E+03  0.24166297894E+03  0.00000000000E+00 0.  1.
</event>
<event>
 7    1  0.6557591E-006  0.8228796E+02  0.7818608E-02  0.1355052E+00
          2   -1    0    0  502    0  0.00000000000E+00  0.00000000000E+00  0.24239672542E+04  0.24239672542E+04  0.00000000000E+00 0. -1.
          1   -1    0    0  501    0 -0.00000000000E+00 -0.00000000000E+00 -0.26926328035E+02  0.26926328035E+02  0.00000000000E+00 0. -1.
         25    2    1    2    0    0 -0.11216561674E+03 -0.86554796689E+02  0.17174965361E+04  0.17278577175E+04  0.12500032764E+03 0.  0.
          2    1    1    2  501    0  0.61965350657E+02  0.49942571839E+02  0.58208790362E+02  0.98601361245E+02  0.00000000000E+00 0. -1.
          1    1    1    2  502    0  0.50200266085E+02  0.36612224850E+02  0.62133559976E+03  0.62443450358E+03  0.00000000000E+00 0. -1.
         22    1    3    3    0    0 -0.11585810807E+03 -0.11256519400E+03  0.15357718173E+04  0.15442438599E+04  0.00000000000E+00 0.  1.
         22    1    3    3    0    0  0.36924913332E+01  0.26010397311E+02  0.18172471879E+03  0.18361385754E+03  0.00000000000E+00 0.  1.
</event>
<event>
 7    1  0.6557591E-006  0.7645661E+02  0.7818608E-02  0.1355951E+00
          2   -1    0    0  502    0  0.00000000000E+00  0.00000000000E+00  0.27124945565E+03  0.27124945565E+03  0.00000000000E+00 0. -1.
          1   -1    0    0  501    0 -0.00000000000E+00 -0.00000000000E+00 -0.47496389683E+03  0.47496389683E+03  0.00000000000E+00 0. -1.
         25    2    1    2    0    0 -0.10875678998E+03  0.19013333780E+02  0.95500787388E+00  0.16678064755E+03  0.12500130451E+03 0.  0.
          2    1    1    2  501    0  0.41312015978E+02 -0.51939171046E+02 -0.38155483121E+03  0.38728342254E+03  0.00000000000E+00 0. -1.
          1    1    1    2  502    0  0.67444774003E+02  0.32925837265E+02  0.17688538216E+03  0.19214928239E+03  0.00000000000E+00 0. -1.
         22    1    3    3    0    0 -0.12486270210E+03 -0.59482848613E+01  0.26288638544E+02  0.12773867458E+03  0.00000000000E+00 0. -1.
         22    1    3    3    0    0  0.16105912117E+02  0.24961618642E+02 -0.25333630670E+02  0.39041972968E+02  0.00000000000E+00 0. -1.
</event>
<event>
 7    1  0.6557591E-006  0.6602768E+02  0.7818608E-02  0.1488366E+00
          2   -1    0    0  502    0  0.00000000000E+00  0.00000000000E+00  0.11490625598E+04  0.11490625598E+04  0.00000000000E+00 0. -1.
          1   -1    0    0  501    0 -0.00000000000E+00 -0.00000000000E+00 -0.34202167578E+03  0.34202167578E+03  0.00000000000E+00 0. -1.
         25    2    1    2    0    0  0.28357397623E+02  0.82418982613E+02  0.55273454979E+03  0.57335528266E+03  0.12499506760E+03 0.  0.
          2    1    1    2  501    0 -0.62272320605E+01 -0.65623888460E+02 -0.32810202950E+03  0.33465835552E+03  0.00000000000E+00 0. -1.
          1    1    1    2  502    0 -0.22130165563E+02 -0.16795094153E+02  0.58240836377E+03  0.58307059745E+03  0.00000000000E+00 0. -1.
         22    1    3    3    0    0  0.46563299357E+02  0.10596196433E+03  0.35494052701E+03  0.37333477798E+03  0.00000000000E+00 0. -1.
         22    1    3    3    0    0 -0.18205901734E+02 -0.23542981714E+02  0.19779402278E+03  0.20002050468E+03  0.00000000000E+00 0. -1.
</event>
<event>
 7    1  0.6557591E-006  0.1688672E+03  0.7818608E-02  0.1344927E+00
          2   -1    0    0  502    0  0.00000000000E+00  0.00000000000E+00  0.67088014976E+03  0.67088014976E+03  0.00000000000E+00 0. -1.
          1   -1    0    0  501    0 -0.00000000000E+00 -0.00000000000E+00 -0.40667648755E+03  0.40667648755E+03  0.00000000000E+00 0. -1.
         25    2    1    2    0    0  0.11573627938E+03  0.14845538468E+03 -0.75344894142E+02  0.23819398807E+03  0.12500254108E+03 0.  0.
          2    1    1    2  501    0 -0.32886143338E+02 -0.28437998292E+01 -0.23683553954E+03  0.23912477582E+03  0.00000000000E+00 0. -1.
          1    1    1    2  502    0 -0.82850136043E+02 -0.14561158485E+03  0.57638409590E+03  0.60023787342E+03  0.00000000000E+00 0. -1.
         22    1    3    3    0    0  0.36548809051E+02  0.13463949503E+03 -0.20806402512E+02  0.14105500860E+03  0.00000000000E+00 0.  1.
         22    1    3    3    0    0  0.79187470330E+02  0.13815889643E+02 -0.54538491630E+02  0.97138979474E+02  0.00000000000E+00 0.  1.
</event>
<event>
 7    1  0.6557591E-006  0.7076318E+02  0.7818608E-02  0.1452027E+00
          2   -1    0    0  502    0  0.00000000000E+00  0.00000000000E+00  0.13447485908E+03  0.13447485908E+03  0.00000000000E+00 0. -1.
          1   -1    0    0  501    0 -0.00000000000E+00 -0.00000000000E+00 -0.10773672610E+04  0.10773672610E+04  0.00000000000E+00 0. -1.
         25    2    1    2    0    0 -0.91828302400E+02  0.37296207074E+02 -0.41113307470E+03  0.44099725292E+03  0.12499891116E+03 0.  0.
          2    1    1    2  501    0  0.65516090749E+02 -0.16355552748E+02 -0.64714512857E+03  0.65065865066E+03  0.00000000000E+00 0. -1.
          1    1    1    2  502    0  0.26312211652E+02 -0.20940654326E+02  0.11538580134E+03  0.12018621650E+03  0.00000000000E+00 0. -1.
         22    1    3    3    0    0 -0.94522989901E+02  0.46447914572E+02 -0.17206135469E+03  0.20173525761E+03  0.00000000000E+00 0. -1.
         22    1    3    3    0    0  0.26946875002E+01 -0.91517074983E+01 -0.23907172001E+03  0.23926199531E+03  0.00000000000E+00 0. -1.
</event>
<event>
 7    1  0.6557591E-006  0.7592948E+02  0.7818608E-02  0.1483565E+00
          2   -1    0    0  502    0  0.00000000000E+00  0.00000000000E+00  0.11534650770E+04  0.11534650770E+04  0.00000000000E+00 0. -1.
          1   -1    0    0  501    0 -0.00000000000E+00 -0.00000000000E+00 -0.74308710813E+03  0.74308710813E+03  0.00000000000E+00 0. -1.
         25    2    1    2    0    0  0.85090581063E+02 -0.18712763127E+02  0.17193196634E+03  0.22972892153E+03  0.12499680735E+03 0.  0.
          2    1    1    2  501    0 -0.66866875524E+02  0.35804998045E+02 -0.71201011327E+03  0.71603881063E+03  0.00000000000E+00 0. -1.
          1    1    1    2  502    0 -0.18223705538E+02 -0.17092234918E+02  0.95045611583E+03  0.95078445300E+03  0.00000000000E+00 0. -1.
         22    1    3    3    0    0 -0.11710381761E+02  0.31924320760E+02  0.12026052989E+02  0.36068285896E+02  0.00000000000E+00 0. -1.
         22    1    3    3    0    0  0.96800962824E+02 -0.50637083887E+02  0.15990591335E+03  0.19366063563E+03  0.00000000000E+00 0. -1.
</event>
<event>
 7    1  0.6557591E-006  0.3854215E+03  0.7818608E-02  0.1208711E+00
          2   -1    0    0  502    0  0.00000000000E+00  0.00000000000E+00  0.17845002777E+04  0.17845002777E+04  0.00000000000E+00 0. -1.
          1   -1    0    0  501    0 -0.00000000000E+00 -0.00000000000E+00 -0.70379590523E+03  0.70379590523E+03  0.00000000000E+00 0. -1.
         25    2    1    2    0    0 -0.11424385296E+03 -0.32952816184E+03 -0.20876488546E+03  0.42526175498E+03  0.12499726182E+03 0.  0.
          2    1    1    2  501    0 -0.48231806204E+02 -0.22962815800E+02 -0.36232994910E+03  0.36624662463E+03  0.00000000000E+00 0. -1.
          1    1    1    2  502    0  0.16247565917E+03  0.35249097764E+03  0.16517992070E+04  0.16967878033E+04  0.00000000000E+00 0. -1.
         22    1    3    3    0    0 -0.12085331515E+03 -0.20554985271E+03 -0.94370315029E+02  0.25644106943E+03  0.00000000000E+00 0. -1.
         22    1    3    3    0    0  0.66094621872E+01 -0.12397830913E+03 -0.11439457043E+03  0.16882068555E+03  0.00000000000E+00 0. -1.
</event>
<event>
 7    1  0.6557591E-006  0.8187120E+02  0.7818608E-02  0.1400709E+00
          2   -1    0    0  502    0  0.00000000000E+00  0.00000000000E+00  0.31745482057E+02  0.31745482057E+02  0.00000000000E+00 0. -1.
          1   -1    0    0  501    0 -0.00000000000E+00 -0.00000000000E+00 -0.65686354177E+03  0.65686354177E+03  0.00000000000E+00 0. -1.
         25    2    1    2    0    0 -0.11359679072E+02 -0.90618468821E+02 -0.26805114237E+03  0.30954436806E+03  0.12500220667E+03 0.  0.
          2    1    1    2  501    0 -0.29104322214E+02  0.76128392577E+02 -0.26888960978E+03  0.28097013360E+03  0.00000000000E+00 0. -1.
          1    1    1    2  502    0  0.40464001286E+02  0.14490076244E+02 -0.88177307558E+02  0.98094522160E+02  0.00000000000E+00 0. -1.
         22    1    3    3    0    0 -0.32532391192E+01 -0.96941467059E+02 -0.27848686106E+03  0.29489517355E+03  0.00000000000E+00 0. -1.
         22    1    3    3    0    0 -0.81064399527E+01  0.63229982378E+01  0.10435718686E+02  0.14649194515E+02  0.00000000000E+00 0. -1.
</event>
<event>
 7    1  0.6557591E-006  0.2162646E+03  0.7818608E-02  0.1364512E+00
          2   -1    0    0  502    0  0.00000000000E+00  0.00000000000E+00  0.39249786545E+03  0.39249786545E+03  0.00000000000E+00 0. -1.
          1   -1    0    0  501    0 -0.00000000000E+00 -0.00000000000E+00 -0.59813910303E+03  0.59813910303E+03  0.00000000000E+00 0. -1.
         25    2    1    2    0    0  0.17856521335E+03  0.84548780535E+02  0.49793966512E+02  0.23903564262E+03  0.12499827052E+03 0.  0.
          2    1    1    2  501    0 -0.19887609414E+03 -0.92561601175E+02 -0.47906977071E+03  0.52690340295E+03  0.00000000000E+00 0. -1.
          1    1    1    2  502    0  0.20310880789E+02  0.80128206400E+01  0.22363456662E+03  0.22469792291E+03  0.00000000000E+00 0. -1.
         22    1    3    3    0    0  0.63784121339E+02 -0.30591002289E+02  0.81528623641E+01  0.71208796653E+02  0.00000000000E+00 0. -1.
         22    1    3    3    0    0  0.11478109201E+03  0.11513978282E+03  0.41641104148E+02  0.16782684597E+03  0.00000000000E+00 0. -1.
</event>
<event>
 7    1  0.6557591E-006  0.6948544E+02  0.7818608E-02  0.1363851E+00
          2   -1    0    0  502    0  0.00000000000E+00  0.00000000000E+00  0.15198881235E+04  0.15198881235E+04  0.00000000000E+00 0. -1.
          1   -1    0    0  501    0 -0.00000000000E+00 -0.00000000000E+00 -0.23850920923E+02  0.23850920923E+02  0.00000000000E+00 0. -1.
         25    2    1    2    0    0  0.53015308123E+02 -0.58654620714E+02  0.38503037149E+03  0.41246201913E+03  0.12500217130E+03 0.  0.
          2    1    1    2  501    0 -0.68797645492E+02 -0.97524650868E+01  0.12697583663E+03  0.14474491248E+03  0.00000000000E+00 0. -1.
          1    1    1    2  502    0  0.15782337370E+02  0.68407085800E+02  0.98403099449E+03  0.98653211285E+03  0.00000000000E+00 0. -1.
         22    1    3    3    0    0 -0.36914641195E+02 -0.33915041588E+02  0.18640050905E+03  0.19302349742E+03  0.00000000000E+00 0. -1.
         22    1    3    3    0    0  0.89929949318E+02 -0.24739579126E+02  0.19862986244E+03  0.21943852172E+03  0.00000000000E+00 0. -1.
</event>
<event>
 7    1  0.6557591E-006  0.1258277E+03  0.7818608E-02  0.1297037E+00
          2   -1    0    0  502    0  0.00000000000E+00  0.00000000000E+00  0.66302499536E+03  0.66302499536E+03  0.00000000000E+00 0. -1.
          1   -1    0    0  501    0 -0.00000000000E+00 -0.00000000000E+00 -0.23856684917E+03  0.23856684917E+03  0.00000000000E+00 0. -1.
         25    2    1    2    0    0  0.11101577561E+03  0.20697580065E+02  0.11282227261E+03  0.20274852489E+03  0.12500082756E+03 0.  0.
          2    1    1    2  501    0  0.11560119414E+02 -0.66927481105E+02 -0.17877211252E+03  0.19123909722E+03  0.00000000000E+00 0. -1.
          1    1    1    2  502    0 -0.12257589502E+03  0.46229901039E+02  0.49040798611E+03  0.50760422243E+03  0.00000000000E+00 0. -1.
         22    1    3    3    0    0  0.56994826788E+01  0.12383854693E+02 -0.25370169393E+02  0.28800858579E+02  0.00000000000E+00 0. -1.
         22    1    3    3    0    0  0.10531629293E+03  0.83137253725E+01  0.13819244201E+03  0.17394766631E+03  0.00000000000E+00 0. -1.
</event>
<event>
 7    1  0.6557591E-006  0.9036635E+02  0.7818608E-02  0.1376016E+00
          2   -1    0    0  502    0  0.00000000000E+00  0.00000000000E+00  0.94351805109E+03  0.94351805109E+03  0.00000000000E+00 0. -1.
          1   -1    0    0  501    0 -0.00000000000E+00 -0.00000000000E+00 -0.36052610818E+03  0.36052610818E+03  0.00000000000E+00 0. -1.
         25    2    1    2    0    0 -0.50404000784E+02  0.26762251088E+02  0.71759638042E+02  0.15501960632E+03  0.12499940525E+03 0.  0.
          2    1    1    2  501    0  0.55805368925E+02 -0.73963302476E+02 -0.31146621475E+03  0.32495540039E+03  0.00000000000E+00 0. -1.
          1    1    1    2  502    0 -0.54013681408E+01  0.47201051388E+02  0.82269851961E+03  0.82406915256E+03  0.00000000000E+00 0. -1.
         22    1    3    3    0    0  0.17321693476E+01 -0.43819715519E+02  0.46028695616E+02  0.63575220794E+02  0.00000000000E+00 0.  1.
         22    1    3    3    0    0 -0.52136170131E+02  0.70581966607E+02  0.25730942426E+02  0.91444385526E+02  0.00000000000E+00 0.  1.
</event>
<event>
 7    1  0.6557591E-006  0.1797594E+03  0.7818608E-02  0.1297199E+00
          2   -1    0    0  502    0  0.00000000000E+00  0.00000000000E+00  0.48481314955E+03  0.48481314955E+03  0.00000000000E+00 0. -1.
          1   -1    0    0  501    0 -0.00000000000E+00 -0.00000000000E+00 -0.15485944390E+03  0.15485944390E+03  0.00000000000E+00 0. -1.
         25    2    1    2    0    0 -0.36446929894E+02  0.18619520124E+03  0.20023198383E+03  0.30284414421E+03  0.12499878667E+03 0.  0.
          2    1    1    2  501    0 -0.38578125909E+02 -0.27661173290E+02 -0.61279694057E+02  0.77515245018E+02  0.00000000000E+00 0. -1.
          1    1    1    2  502    0  0.75025055803E+02 -0.15853402795E+03  0.19100141588E+03  0.25931320422E+03  0.00000000000E+00 0. -1.
         22    1    3    3    0    0 -0.70143930846E+02  0.14526025476E+03  0.18930260438E+03  0.24870904421E+03  0.00000000000E+00 0. -1.
         22    1    3    3    0    0  0.33697000952E+02  0.40934946479E+02  0.10929379447E+02  0.54135099995E+02  0.00000000000E+00 0. -1.
</event>
<event>
 7    1  0.6557591E-006  0.6966720E+02  0.7818608E-02  0.1513709E+00
          2   -1    0    0  502    0  0.00000000000E+00  0.00000000000E+00  0.10856881425E+03  0.10856881425E+03  0.00000000000E+00 0. -1.
          1   -1    0    0  501    0 -0.00000000000E+00 -0.00000000000E+00 -0.61361452486E+03  0.61361452486E+03  0.00000000000E+00 0. -1.
         25    2    1    2    0    0 -0.79101330026E+02 -0.43753718531E+02 -0.18908037336E+03  0.24402257494E+03  0.12499688473E+03 0.  0.
          2    1    1    2  501    0  0.18978216570E+02  0.11377671840E+02 -0.38231159093E+03  0.38295140250E+03  0.00000000000E+00 0. -1.
          1    1    1    2  502    0  0.60123113457E+02  0.32376046692E+02  0.66346253675E+02  0.95209361661E+02  0.00000000000E+00 0. -1.
         22    1    3    3    0    0 -0.92430986822E+02 -0.23428991115E+02 -0.59970764244E+02  0.11264500661E+03  0.00000000000E+00 0.  1.
         22    1    3    3    0    0  0.13329656796E+02 -0.20324727416E+02 -0.12910960912E+03  0.13137756833E+03  0.00000000000E+00 0.  1.
</event>
<event>
 7    1  0.6557591E-006  0.1512152E+03  0.7818608E-02  0.1212037E+00
          2   -1    0    0  502    0  0.00000000000E+00  0.00000000000E+00  0.84948453395E+03  0.84948453395E+03  0.00000000000E+00 0. -1.
          1   -1    0    0  501    0 -0.00000000000E+00 -0.00000000000E+00 -0.64729189843E+03  0.64729189843E+03  0.00000000000E+00 0. -1.
         25    2    1    2    0    0 -0.16526088971E+02 -0.27145861415E+03  0.66421174513E+02  0.30659342469E+03  0.12499945930E+03 0.  0.
          2    1    1    2  501    0 -0.12006820997E+02  0.13085879224E+03 -0.51103338873E+03  0.52765832852E+03  0.00000000000E+00 0. -1.
          1    1    1    2  502    0  0.28532909968E+02  0.14059982191E+03  0.64680484974E+03  0.66252467918E+03  0.00000000000E+00 0. -1.
         22    1    3    3    0    0  0.38611643935E+02 -0.22089677814E+03  0.55262052111E+02  0.23095484416E+03  0.00000000000E+00 0.  1.
         22    1    3    3    0    0 -0.55137732906E+02 -0.50561836017E+02  0.11159122401E+02  0.75638580527E+02  0.00000000000E+00 0.  1.
</event>
<event>
 7    1  0.6557591E-006  0.4097216E+02  0.7818608E-02  0.1572388E+00
          2   -1    0    0  502    0  0.00000000000E+00  0.00000000000E+00  0.16766067329E+04  0.16766067329E+04  0.00000000000E+00 0. -1.
          1   -1    0    0  501    0 -0.00000000000E+00 -0.00000000000E+00 -0.24556101879E+03  0.24556101879E+03  0.00000000000E+00 0. -1.
         25    2    1    2    0    0 -0.13142055290E+02  0.58881748255E+02  0.11201493632E+04  0.11287129950E+04  0.12497461865E+03 0.  0.
          2    1    1    2  501    0 -0.49869414547E+01 -0.40642781403E+02 -0.23923936730E+03  0.24271831438E+03  0.00000000000E+00 0. -1.
          1    1    1    2  502    0  0.18128996745E+02 -0.18238966852E+02  0.55013571824E+03  0.55073644233E+03  0.00000000000E+00 0. -1.
         22    1    3    3    0    0  0.53792806079E+02  0.43961217745E+02  0.62130540011E+03  0.62517729874E+03  0.00000000000E+00 0.  1.
         22    1    3    3    0    0 -0.66934861369E+02  0.14920530510E+02  0.49884396306E+03  0.50353569623E+03  0.00000000000E+00 0.  1.
</event>
<event>
 7    1  0.6557591E-006  0.9394024E+02  0.7818608E-02  0.1430898E+00
          2   -1    0    0  502    0  0.00000000000E+00  0.00000000000E+00  0.12648209862E+04  0.12648209862E+04  0.00000000000E+00 0. -1.
          1   -1    0    0  501    0 -0.00000000000E+00 -0.00000000000E+00 -0.58257708177E+03  0.58257708177E+03  0.00000000000E+00 0. -1.
         25    2    1    2    0    0 -0.28731831869E+02 -0.59190854618E+02 -0.28645089941E+01  0.14129015030E+03  0.12500250288E+03 0.  0.
          2    1    1    2  501    0 -0.19708969711E+02 -0.22157206042E+02 -0.50819247375E+03  0.50905694735E+03  0.00000000000E+00 0. -1.
          1    1    1    2  502    0  0.48440801580E+02  0.81348060660E+02  0.11933008872E+04  0.11970509703E+04  0.00000000000E+00 0. -1.
         22    1    3    3    0    0 -0.42740464683E+00 -0.22595910421E+02 -0.62125818964E+02  0.66108813515E+02  0.00000000000E+00 0. -1.
         22    1    3    3    0    0 -0.28304427222E+02 -0.36594944197E+02  0.59261309970E+02  0.75181336783E+02  0.00000000000E+00 0. -1.
</event>
<event>
 7    1  0.6557591E-006  0.2820119E+02  0.7818608E-02  0.1627005E+00
          2   -1    0    0  502    0  0.00000000000E+00  0.00000000000E+00  0.22748419617E+03  0.22748419617E+03  0.00000000000E+00 0. -1.
          1   -1    0    0  501    0 -0.00000000000E+00 -0.00000000000E+00 -0.17729586706E+04  0.17729586706E+04  0.00000000000E+00 0. -1.
         25    2    1    2    0    0  0.45213988576E+02  0.64276928976E+01 -0.98237308034E+03  0.99134632882E+03  0.12500021878E+03 0.  0.
          2    1    1    2  501    0 -0.23997197762E+02  0.12136835788E+02 -0.78497676315E+03  0.78543725846E+03  0.00000000000E+00 0. -1.
          1    1    1    2  502    0 -0.21216790814E+02 -0.18564528686E+02  0.22187536903E+03  0.22365927953E+03  0.00000000000E+00 0. -1.
         22    1    3    3    0    0  0.81894317791E+02 -0.22492662587E+02 -0.56094802912E+03  0.56734054194E+03  0.00000000000E+00 0. -1.
         22    1    3    3    0    0 -0.36680329216E+02  0.28920355485E+02 -0.42142505123E+03  0.42400578689E+03  0.00000000000E+00 0. -1.
</event>
<event>
 7    1  0.6557591E-006  0.4439072E+02  0.7818608E-02  0.1529429E+00
          2   -1    0    0  502    0  0.00000000000E+00  0.00000000000E+00  0.82094793968E+03  0.82094793968E+03  0.00000000000E+00 0. -1.
          1   -1    0    0  501    0 -0.00000000000E+00 -0.00000000000E+00 -0.17242354242E+03  0.17242354242E+03  0.00000000000E+00 0. -1.
         25    2    1    2    0    0 -0.99017247482E+01 -0.92651550984E+01 -0.11992177978E+03  0.17375189986E+03  0.12499840873E+03 0.  0.
          2    1    1    2  501    0 -0.27472013572E+02 -0.14934413228E+02 -0.15159533367E+02  0.34749959425E+02  0.00000000000E+00 0. -1.
          1    1    1    2  502    0  0.37373738320E+02  0.24199568326E+02  0.78360571042E+03  0.78486962282E+03  0.00000000000E+00 0. -1.
         22    1    3    3    0    0 -0.47905496880E+02 -0.39759771312E+02 -0.10624786290E+03  0.12314375509E+03  0.00000000000E+00 0.  1.
         22    1    3    3    0    0  0.38003772131E+02  0.30494616213E+02 -0.13673916883E+02  0.50608144771E+02  0.00000000000E+00 0.  1.
</event>
<event>
 7    1  0.6557591E-006  0.6623302E+02  0.7818608E-02  0.1417912E+00
          2   -1    0    0  502    0  0.00000000000E+00  0.00000000000E+00  0.44730161446E+03  0.44730161446E+03  0.00000000000E+00 0. -1.
          1   -1    0    0  501    0 -0.00000000000E+00 -0.00000000000E+00 -0.18166958758E+04  0.18166958758E+04  0.00000000000E+00 0. -1.
         25    2    1    2    0    0  0.52089494774E+02 -0.98238346091E+02 -0.58031250378E+02  0.17707716012E+03  0.12499842602E+03 0.  0.
          2    1    1    2  501    0 -0.25974234648E+02  0.38506435477E+02 -0.16960815775E+04  0.16967174555E+04  0.00000000000E+00 0. -1.
          1    1    1    2  502    0 -0.26115260126E+02  0.59731910614E+02  0.38471856650E+03  0.39020287462E+03  0.00000000000E+00 0. -1.
         22    1    3    3    0    0  0.71091158761E+02 -0.43259213960E+02 -0.79482973635E+02  0.11507760661E+03  0.00000000000E+00 0. -1.
         22    1    3    3    0    0 -0.19001663987E+02 -0.54979132132E+02  0.21451723256E+02  0.61999553506E+02  0.00000000000E+00 0. -1.
</event>
<event>
 7    1  0.6557591E-006  0.6493808E+02  0.7818608E-02  0.1492152E+00
          2   -1    0    0  502    0  0.00000000000E+00  0.00000000000E+00  0.15026483900E+04  0.15026483900E+04  0.00000000000E+00 0. -1.
          1   -1    0    0  501    0 -0.00000000000E+00 -0.00000000000E+00 -0.18596613366E+03  0.18596613366E+03  0.00000000000E+00 0. -1.
         25    2    1    2    0    0  0.20519935584E+02  0.43688502925E+02  0.30257882812E+02  0.13736867748E+03  0.12499944414E+03 0.  0.
          2    1    1    2  501    0 -0.17229136277E+02  0.21449981056E+02 -0.13022313895E+03  0.13309774882E+03  0.00000000000E+00 0. -1.
          1    1    1    2  502    0 -0.32907993079E+01 -0.65138483982E+02  0.14166475124E+04  0.14181480973E+04  0.00000000000E+00 0. -1.
         22    1    3    3    0    0 -0.37219437736E+02  0.39200196289E+02  0.52478268081E+02  0.75338639192E+02  0.00000000000E+00 0. -1.
         22    1    3    3    0    0  0.57739373321E+02  0.44883066360E+01 -0.22220385269E+02  0.62030038283E+02  0.00000000000E+00 0. -1.
</event>
<event>
 7    1  0.6557591E-006  0.3829984E+02  0.7818608E-02  0.1538052E+00
          2   -1    0    0  502    0  0.00000000000E+00  0.00000000000E+00  0.80439490977E+02  0.80439490977E+02  0.00000000000E+00 0. -1.
          1   -1    0    0  501    0 -0.00000000000E+00 -0.00000000000E+00 -0.50752684000E+03  0.50752684000E+03  0.00000000000E+00 0. -1.
         25    2    1    2    0    0  0.86668665031E+01  0.30559995095E+02 -0.16763037097E+03  0.21149986496E+03  0.12499289472E+03 0.  0.
          2    1    1    2  501    0 -0.37531635528E+02 -0.12129134352E+02 -0.31159780690E+03  0.31408427664E+03  0.00000000000E+00 0. -1.
          1    1    1    2  502    0  0.28864769025E+02 -0.18430860744E+02  0.52140828848E+02  0.62382189378E+02  0.00000000000E+00 0. -1.
         22    1    3    3    0    0 -0.40988251966E+02  0.55426158269E+02 -0.64688449810E+02  0.94534075119E+02  0.00000000000E+00 0. -1.
         22    1    3    3    0    0  0.49655118469E+02 -0.24866163174E+02 -0.10294192116E+03  0.11696578984E+03  0.00000000000E+00 0. -1.
</event>
<event>
 7    1  0.6557591E-006  0.9313431E+02  0.7818608E-02  0.1319486E+00
          2   -1    0    0  502    0  0.00000000000E+00  0.00000000000E+00  0.97544698115E+03  0.97544698115E+03  0.00000000000E+00 0. -1.
          1   -1    0    0  501    0 -0.00000000000E+00 -0.00000000000E+00 -0.13277388636E+03  0.13277388636E+03  0.00000000000E+00 0. -1.
         25    2    1    2    0    0 -0.13437314997E+03  0.29069107907E+02  0.58970003314E+02  0.19494492316E+03  0.12499962124E+03 0.  0.
          2    1    1    2  501    0  0.64728859209E+02 -0.56375964877E+02 -0.33877004424E+02  0.92280691691E+02  0.00000000000E+00 0. -1.
          1    1    1    2  502    0  0.69644290757E+02  0.27306856970E+02  0.81758009590E+03  0.82099525266E+03  0.00000000000E+00 0. -1.
         22    1    3    3    0    0 -0.13029314359E+03  0.20675006970E+02 -0.33145914845E+01  0.13196494117E+03  0.00000000000E+00 0.  1.
         22    1    3    3    0    0 -0.40800063714E+01  0.83941009364E+01  0.62284594799E+02  0.62979981992E+02  0.00000000000E+00 0.  1.
</event>
<event>
 7    1  0.6557591E-006  0.1153765E+03  0.7818608E-02  0.1303538E+00
          2   -1    0    0  502    0  0.00000000000E+00  0.00000000000E+00  0.20556171689E+04  0.20556171689E+04  0.00000000000E+00 0. -1.
          1   -1    0    0  501    0 -0.00000000000E+00 -0.00000000000E+00 -0.75804484249E+02  0.75804484249E+02  0.00000000000E+00 0. -1.
         25    2    1    2    0    0 -0.40479400401E+02  0.63118308944E+02  0.94675243306E+03  0.95790538871E+03  0.12498024412E+03 0.  0.
          2    1    1    2  501    0  0.10838073133E+03 -0.47103919615E+02 -0.18526682543E+02  0.11961772500E+03  0.00000000000E+00 0. -1.
          1    1    1    2  502    0 -0.67901330934E+02 -0.16014389329E+02  0.10515869341E+04  0.10538985394E+04  0.00000000000E+00 0. -1.
         22    1    3    3    0    0  0.45356114250E+02  0.25233580898E+02  0.32942467700E+03  0.33348842337E+03  0.00000000000E+00 0. -1.
         22    1    3    3    0    0 -0.85835514651E+02  0.37884728046E+02  0.61732775606E+03  0.62441696534E+03  0.00000000000E+00 0. -1.
</event>
<event>
 7    1  0.6557591E-006  0.8202870E+02  0.7818608E-02  0.1482278E+00
          2   -1    0    0  502    0  0.00000000000E+00  0.00000000000E+00  0.32109457196E+03  0.32109457196E+03  0.00000000000E+00 0. -1.
          1   -1    0    0  501    0 -0.00000000000E+00 -0.00000000000E+00 -0.10981454859E+04  0.10981454859E+04  0.00000000000E+00 0. -1.
         25    2    1    2    0    0  0.22096219751E+02 -0.80586150861E+02 -0.10294722821E+03  0.18222585369E+03  0.12500303723E+03 0.  0.
          2    1    1    2  501    0  0.11927072768E+01  0.82092656500E+02 -0.95330768963E+03  0.95683654712E+03  0.00000000000E+00 0. -1.
          1    1    1    2  502    0 -0.23288927028E+02 -0.15065056389E+01  0.27920400393E+03  0.28017765702E+03  0.00000000000E+00 0. -1.
         22    1    3    3    0    0 -0.45647470055E+02 -0.26913749494E+02 -0.75949667532E+01  0.53532466357E+02  0.00000000000E+00 0.  1.
         22    1    3    3    0    0  0.67743689806E+02 -0.53672401367E+02 -0.95352261461E+02  0.12869338733E+03  0.00000000000E+00 0.  1.
</event>
<event>
 7    1  0.6557591E-006  0.6846395E+02  0.7818608E-02  0.1380617E+00
          2   -1    0    0  502    0  0.00000000000E+00  0.00000000000E+00  0.69668623236E+02  0.69668623236E+02  0.00000000000E+00 0. -1.
          1   -1    0    0  501    0 -0.00000000000E+00 -0.00000000000E+00 -0.69281826983E+03  0.69281826983E+03  0.00000000000E+00 0. -1.
         25    2    1    2    0    0 -0.16378033717E+02 -0.23872851135E+02 -0.41417820097E+03  0.43360243485E+03  0.12501734416E+03 0.  0.
          2    1    1    2  501    0  0.43309350179E+02 -0.42090613455E+02 -0.24266692724E+03  0.25006910471E+03  0.00000000000E+00 0. -1.
          1    1    1    2  502    0 -0.26931316462E+02  0.65963464590E+02  0.33695481614E+02  0.78815353506E+02  0.00000000000E+00 0. -1.
         22    1    3    3    0    0 -0.51014645677E+02 -0.22142080166E+02 -0.78867459906E+02  0.96503067411E+02  0.00000000000E+00 0.  1.
         22    1    3    3    0    0  0.34636611961E+02 -0.17307709686E+01 -0.33531074106E+03  0.33709936744E+03  0.00000000000E+00 0.  1.
</event>
<event>
 7    1  0.6557591E-006  0.4888106E+02  0.7818608E-02  0.1523523E+00
          2   -1    0    0  502    0  0.00000000000E+00  0.00000000000E+00  0.78036789814E+03  0.78036789814E+03  0.00000000000E+00 0. -1.
          1   -1    0    0  501    0 -0.00000000000E+00 -0.00000000000E+00 -0.14104381387E+03  0.14104381387E+03  0.00000000000E+00 0. -1.
         25    2    1    2    0    0 -0.21651406736E+02  0.74925218145E+02  0.23862987384E+02  0.14925016870E+03  0.12499439573E+03 0.  0.
          2    1    1    2  501    0  0.72618576617E+01 -0.28623319212E+02 -0.74686660695E+02  0.80312678110E+02  0.00000000000E+00 0. -1.
          1    1    1    2  502    0  0.14389549074E+02 -0.46301898934E+02  0.69014775758E+03  0.69184886519E+03  0.00000000000E+00 0. -1.
         22    1    3    3    0    0 -0.13249714148E+02 -0.34813169979E+02  0.71385252998E+01  0.37927170636E+02  0.00000000000E+00 0. -1.
         22    1    3    3    0    0 -0.84016925876E+01  0.10973838812E+03  0.16724462084E+02  0.11132299807E+03  0.00000000000E+00 0. -1.
</event>
<event>
 7    1  0.6557591E-006  0.5084115E+02  0.7818608E-02  0.1548817E+00
          2   -1    0    0  502    0  0.00000000000E+00  0.00000000000E+00  0.11344856072E+04  0.11344856072E+04  0.00000000000E+00 0. -1.
          1   -1    0    0  501    0 -0.00000000000E+00 -0.00000000000E+00 -0.17858026826E+02  0.17858026826E+02  0.00000000000E+00 0. -1.
         25    2    1    2    0    0 -0.27160569114E+02 -0.19618270521E+02  0.89928115504E+03  0.90854439813E+03  0.12499501793E+03 0.  0.
          2    1    1    2  501    0  0.50332663056E+02  0.13138215529E+02  0.42133486730E+02  0.66941917971E+02  0.00000000000E+00 0. -1.
          1    1    1    2  502    0 -0.23172093942E+02  0.64800549913E+01  0.17521293860E+03  0.17685731792E+03  0.00000000000E+00 0. -1.
         22    1    3    3    0    0 -0.54207164761E+02 -0.59604545795E+02  0.52026865530E+03  0.52646993483E+03  0.00000000000E+00 0.  1.
         22    1    3    3    0    0  0.27046595647E+02  0.39986275275E+02  0.37901249974E+03  0.38207446330E+03  0.00000000000E+00 0.  1.
</event>
<event>
 7    1  0.6557591E-006  0.1309935E+03  0.7818608E-02  0.1235353E+00
          2   -1    0    0  502    0  0.00000000000E+00  0.00000000000E+00  0.63641381282E+03  0.63641381282E+03  0.00000000000E+00 0. -1.
          1   -1    0    0  501    0 -0.00000000000E+00 -0.00000000000E+00 -0.72671935387E+03  0.72671935387E+03  0.00000000000E+00 0. -1.
         25    2    1    2    0    0  0.17977914713E+02  0.95459876287E+02 -0.21001840691E+03  0.26300016300E+03  0.12500224436E+03 0.  0.
          2    1    1    2  501    0 -0.11868032791E+03 -0.77735767122E+01 -0.47548849730E+03  0.49013749070E+03  0.00000000000E+00 0. -1.
          1    1    1    2  502    0  0.10070241319E+03 -0.87686299575E+02  0.59520136316E+03  0.60999551299E+03  0.00000000000E+00 0. -1.
         22    1    3    3    0    0 -0.57989747428E+01 -0.29689904090E+02 -0.31315811101E+02  0.43540768688E+02  0.00000000000E+00 0. -1.
         22    1    3    3    0    0  0.23776889456E+02  0.12514978038E+03 -0.17870259581E+03  0.21945939431E+03  0.00000000000E+00 0. -1.
</event>
<event>
 7    1  0.6557591E-006  0.4524573E+02  0.7818608E-02  0.1473769E+00
          2   -1    0    0  502    0  0.00000000000E+00  0.00000000000E+00  0.25575919739E+04  0.25575919739E+04  0.00000000000E+00 0. -1.
          1   -1    0    0  501    0 -0.00000000000E+00 -0.00000000000E+00 -0.99757524462E+02  0.99757524462E+02  0.00000000000E+00 0. -1.
         25    2    1    2    0    0  0.86357914027E+00  0.73775995916E+01  0.36428856749E+03  0.38520894320E+03  0.12499837910E+03 0.  0.
          2    1    1    2  501    0 -0.43902749661E+02  0.95920516929E+01 -0.83382213725E+02  0.94720918751E+02  0.00000000000E+00 0. -1.
          1    1    1    2  502    0  0.43039170521E+02 -0.16969651285E+02  0.21769280957E+04  0.21774196364E+04  0.00000000000E+00 0. -1.
         22    1    3    3    0    0  0.49164386295E+02  0.23684237575E+02  0.82966760293E+02  0.99305404197E+02  0.00000000000E+00 0.  1.
         22    1    3    3    0    0 -0.48300807155E+02 -0.16306637983E+02  0.28132180719E+03  0.28590353901E+03  0.00000000000E+00 0.  1.
</event>
<event>
 7    1  0.6557591E-006  0.4901134E+02  0.7818608E-02  0.1538797E+00
          2   -1    0    0  502    0  0.00000000000E+00  0.00000000000E+00  0.41687051582E+03  0.41687051582E+03  0.00000000000E+00 0. -1.
          1   -1    0    0  501    0 -0.00000000000E+00 -0.00000000000E+00 -0.36628550168E+03  0.36628550168E+03  0.00000000000E+00 0. -1.
         25    2    1    2    0    0 -0.74251665014E+02 -0.12137246133E+02  0.11297209567E+03  0.18452252641E+03  0.12500098340E+03 0.  0.
          2    1    1    2  501    0  0.48310616696E+02  0.61067789826E+01 -0.32804724560E+03  0.33164167980E+03  0.00000000000E+00 0. -1.
          1    1    1    2  502    0  0.25941048317E+02  0.60304671508E+01  0.26566016407E+03  0.26699181129E+03  0.00000000000E+00 0. -1.
         22    1    3    3    0    0  0.10977144596E+02  0.87138551565E+01 -0.20475909637E+02  0.24813138670E+02  0.00000000000E+00 0. -1.
         22    1    3    3    0    0 -0.85228809609E+02 -0.20851101290E+02  0.13344800531E+03  0.15970938774E+03  0.00000000000E+00 0. -1.
</event>
<event>
 7    1  0.6557591E-006  0.8623308E+02  0.7818608E-02  0.1313765E+00
          2   -1    0    0  502    0  0.00000000000E+00  0.00000000000E+00  0.40760589745E+03  0.40760589745E+03  0.00000000000E+00 0. -1.
          1   -1    0    0  501    0 -0.00000000000E+00 -0.00000000000E+00 -0.10302825649E+03  0.10302825649E+03  0.00000000000E+00 0. -1.
         25    2    1    2    0    0  0.61694018297E+02 -0.31603336295E+01  0.22337860564E+03  0.26332374367E+03  0.12500101167E+03 0.  0.
          2    1    1    2  501    0  0.85367788620E+02  0.12185451942E+02  0.31856637132E+02  0.91929265755E+02  0.00000000000E+00 0. -1.
          1    1    1    2  502    0 -0.14706180692E+03 -0.90251183127E+01  0.49342398189E+02  0.15538114452E+03  0.00000000000E+00 0. -1.
         22    1    3    3    0    0 -0.26834962054E+02 -0.25070533233E+02  0.11986924809E+03  0.12536859041E+03  0.00000000000E+00 0.  1.
         22    1    3    3    0    0  0.88528980351E+02  0.21910199603E+02  0.10350935755E+03  0.13795515326E+03  0.00000000000E+00 0.  1.
</event>
<event>
 7    1  0.6557591E-006  0.6783962E+02  0.7818608E-02  0.1509692E+00
          2   -1    0    0  502    0  0.00000000000E+00  0.00000000000E+00  0.14263215101E+04  0.14263215101E+04  0.00000000000E+00 0. -1.
          1   -1    0    0  501    0 -0.00000000000E+00 -0.00000000000E+00 -0.20121921811E+03  0.20121921811E+03  0.00000000000E+00 0. -1.
         25    2    1    2    0    0 -0.24343339623E+02  0.39088143163E+02  0.67372554523E+02  0.14928043334E+03  0.12500042222E+03 0.  0.
          2    1    1    2  501    0  0.38193676848E+02 -0.57885943574E+02 -0.15265393546E+03  0.16766861193E+03  0.00000000000E+00 0. -1.
          1    1    1    2  502    0 -0.13850337226E+02  0.18797800411E+02  0.13103836729E+04  0.13105916829E+04  0.00000000000E+00 0. -1.
         22    1    3    3    0    0  0.37511313035E+02  0.36086964652E+02  0.70077589716E+02  0.87293964304E+02  0.00000000000E+00 0. -1.
         22    1    3    3    0    0 -0.61854652657E+02  0.30011785110E+01 -0.27050351930E+01  0.61986469033E+02  0.00000000000E+00 0. -1.
</event>
<event>
 7    1  0.6557591E-006  0.7747223E+02  0.7818608E-02  0.1387670E+00
          2   -1    0    0  502    0  0.00000000000E+00  0.00000000000E+00  0.94447420562E+03  0.94447420562E+03  0.00000000000E+00 0. -1.
          1   -1    0    0  501    0 -0.00000000000E+00 -0.00000000000E+00 -0.10073050967E+03  0.10073050967E+03  0.00000000000E+00 0. -1.
         25    2    1    2    0    0 -0.74024633418E+02  0.86807276715E+02  0.14841946077E+03  0.22509658152E+03  0.12499994014E+03 0.  0.
          2    1    1    2  501    0  0.63511076935E+02 -0.37510665985E+02 -0.39422029228E+02  0.83634940931E+02  0.00000000000E+00 0. -1.
          1    1    1    2  502    0  0.10513556483E+02 -0.49296610729E+02  0.73474626441E+03  0.73647319283E+03  0.00000000000E+00 0. -1.
         22    1    3    3    0    0 -0.54179078805E+02  0.11131546737E+03  0.14879006679E+03  0.19355875033E+03  0.00000000000E+00 0. -1.
         22    1    3    3    0    0 -0.19845554613E+02 -0.24508190659E+02 -0.37060601855E+00  0.31537831189E+02  0.00000000000E+00 0. -1.
</event>
<event>
 7    1  0.6557591E-006  0.5832262E+02  0.7818608E-02  0.1482383E+00
          2   -1    0    0  502    0  0.00000000000E+00  0.00000000000E+00  0.11150513530E+04  0.11150513530E+04  0.00000000000E+00 0. -1.
          1   -1    0    0  501    0 -0.00000000000E+00 -0.00000000000E+00 -0.59532604488E+03  0.59532604488E+03  0.00000000000E+00 0. -1.
         25    2    1    2    0    0 -0.23278434693E+02 -0.47315733020E+02 -0.16311579741E+02  0.13664483725E+03  0.12500031920E+03 0.  0.
          2    1    1    2  501    0  0.31023989253E+02 -0.10644609907E+02 -0.51751789641E+03  0.51855623488E+03  0.00000000000E+00 0. -1.
          1    1    1    2  502    0 -0.77455545598E+01  0.57960342927E+02  0.10535547843E+04  0.10551763258E+04  0.00000000000E+00 0. -1.
         22    1    3    3    0    0  0.43134584739E+02 -0.76158532368E+01 -0.36121858192E+02  0.56774838268E+02  0.00000000000E+00 0. -1.
         22    1    3    3    0    0 -0.66413019432E+02 -0.39699879783E+02  0.19810278452E+02  0.79869998981E+02  0.00000000000E+00 0. -1.
</event>
<event>
 7    1  0.6557591E-006  0.9655497E+02  0.7818608E-02  0.1309803E+00
          2   -1    0    0  502    0  0.00000000000E+00  0.00000000000E+00  0.62795632444E+02  0.62795632444E+02  0.00000000000E+00 0. -1.
          1   -1    0    0  501    0 -0.00000000000E+00 -0.00000000000E+00 -0.30852315875E+04  0.30852315875E+04  0.00000000000E+00 0. -1.
         25    2    1    2    0    0  0.11034361946E+03  0.63204442977E+02 -0.18097911433E+04  0.18185541383E+04  0.12499862257E+03 0.  0.
          2    1    1    2  501    0 -0.34655672132E+02 -0.84889111989E+02 -0.12420487562E+04  0.12454285566E+04  0.00000000000E+00 0. -1.
          1    1    1    2  502    0 -0.75687947327E+02  0.21684669011E+02  0.29403944397E+02  0.84044525025E+02  0.00000000000E+00 0. -1.
         22    1    3    3    0    0  0.75911525251E+02 -0.24810902294E+02 -0.64280441185E+03  0.64774659585E+03  0.00000000000E+00 0.  1.
         22    1    3    3    0    0  0.34432094208E+02  0.88015345271E+02 -0.11669867314E+04  0.11708075424E+04  0.00000000000E+00 0.  1.
</event>
<event>
 7    1  0.6557591E-006  0.4305488E+02  0.7818608E-02  0.1522292E+00
          2   -1    0    0  502    0  0.00000000000E+00  0.00000000000E+00  0.19793107080E+04  0.19793107080E+04  0.00000000000E+00 0. -1.
          1   -1    0    0  501    0 -0.00000000000E+00 -0.00000000000E+00 -0.23486207955E+03  0.23486207955E+03  0.00000000000E+00 0. -1.
         25    2    1    2    0    0  0.31511845408E+02 -0.54220415721E+02  0.13287632367E+04  0.13361031910E+04  0.12500859135E+03 0.  0.
          2    1    1    2  501    0  0.36300997734E+01  0.33606671771E+02 -0.22931039135E+03  0.23178835517E+03  0.00000000000E+00 0. -1.
          1    1    1    2  502    0 -0.35141945181E+02  0.20613743950E+02  0.64499578310E+03  0.64628124139E+03  0.00000000000E+00 0. -1.
         22    1    3    3    0    0  0.19953458096E+02 -0.51303204270E+02  0.13203865885E+04  0.13215335419E+04  0.00000000000E+00 0.  1.
         22    1    3    3    0    0  0.11558387312E+02 -0.29172114506E+01  0.83766481911E+01  0.14569649097E+02  0.00000000000E+00 0.  1.
</event>
<event>
 7    1  0.6557591E-006  0.1618266E+03  0.7818608E-02  0.1246112E+00
          2   -1    0    0  502    0  0.00000000000E+00  0.00000000000E+00  0.41279384001E+03  0.41279384001E+03  0.00000000000E+00 0. -1.
          1   -1    0    0  501    0 -0.00000000000E+00 -0.00000000000E+00 -0.48444408708E+03  0.48444408708E+03  0.00000000000E+00 0. -1.
         25    2    1    2    0    0 -0.17682376627E+02 -0.18858558334E+03  0.88160112838E+02  0.24346001298E+03  0.12499353478E+03 0.  0.
          2    1    1    2  501    0 -0.66327886429E+02  0.55244651674E+02 -0.37625826569E+03  0.38603321431E+03  0.00000000000E+00 0. -1.
          1    1    1    2  502    0  0.84010263056E+02  0.13334093167E+03  0.21644790578E+03  0.26774469980E+03  0.00000000000E+00 0. -1.
         22    1    3    3    0    0 -0.14535412001E+02 -0.20638649772E+03  0.71577450860E+02  0.21892920343E+03  0.00000000000E+00 0.  1.
         22    1    3    3    0    0 -0.31469646252E+01  0.17800914376E+02  0.16582661978E+02  0.24530809551E+02  0.00000000000E+00 0.  1.
</event>
<event>
 7    1  0.6557591E-006  0.7553239E+02  0.7818608E-02  0.1352809E+00
          2   -1    0    0  502    0  0.00000000000E+00  0.00000000000E+00  0.78709979171E+03  0.78709979171E+03  0.00000000000E+00 0. -1.
          1   -1    0    0  501    0 -0.00000000000E+00 -0.00000000000E+00 -0.11206735192E+04  0.11206735192E+04  0.00000000000E+00 0. -1.
         25    2    1    2    0    0  0.43115866578E+02 -0.52161704828E+02 -0.10970557295E+03  0.17955430170E+03  0.12499845248E+03 0.  0.
          2    1    1    2  501    0 -0.76736474775E+02 -0.80821427854E+01 -0.97293093009E+03  0.97598586174E+03  0.00000000000E+00 0. -1.
          1    1    1    2  502    0  0.33620608197E+02  0.60243847613E+02  0.74906277554E+03  0.75223314748E+03  0.00000000000E+00 0. -1.
         22    1    3    3    0    0 -0.10572065829E+01 -0.80313410717E+02 -0.96463775345E+02  0.12552538222E+03  0.00000000000E+00 0.  1.
         22    1    3    3    0    0  0.44173073161E+02  0.28151705889E+02 -0.13241797601E+02  0.54028919484E+02  0.00000000000E+00 0.  1.
</event>
<event>
 7    1  0.6557591E-006  0.7473468E+02  0.7818608E-02  0.1388111E+00
          2   -1    0    0  502    0  0.00000000000E+00  0.00000000000E+00  0.40739785066E+03  0.40739785066E+03  0.00000000000E+00 0. -1.
          1   -1    0    0  501    0 -0.00000000000E+00 -0.00000000000E+00 -0.75448456657E+02  0.75448456657E+02  0.00000000000E+00 0. -1.
         25    2    1    2    0    0 -0.43837357659E+02 -0.90579649454E+02  0.13142736206E+03  0.20742383139E+03  0.12500043003E+03 0.  0.
          2    1    1    2  501    0  0.58523465823E+02  0.40627829859E+02  0.31656456771E+01  0.71313658745E+02  0.00000000000E+00 0. -1.
          1    1    1    2  502    0 -0.14686108164E+02  0.49951819595E+02  0.19735638626E+03  0.20410881718E+03  0.00000000000E+00 0. -1.
         22    1    3    3    0    0 -0.53120221193E+02 -0.94646376084E+02  0.40362062108E+02  0.11579633182E+03  0.00000000000E+00 0.  1.
         22    1    3    3    0    0  0.92828635338E+01  0.40667266308E+01  0.91065299956E+02  0.91627499568E+02  0.00000000000E+00 0.  1.
</event>
<event>
 7    1  0.6557591E-006  0.1038225E+03  0.7818608E-02  0.1441061E+00
          2   -1    0    0  502    0  0.00000000000E+00  0.00000000000E+00  0.18406131196E+04  0.18406131196E+04  0.00000000000E+00 0. -1.
          1   -1    0    0  501    0 -0.00000000000E+00 -0.00000000000E+00 -0.42766422597E+03  0.42766422597E+03  0.00000000000E+00 0. -1.
         25    2    1    2    0    0  0.68326953579E+02 -0.67294727936E+02 -0.25902475026E+03  0.30317711217E+03  0.12500154840E+03 0.  0.
          2    1    1    2  501    0 -0.13450360289E+02 -0.20905398436E+02 -0.14401414646E+03  0.14614384098E+03  0.00000000000E+00 0. -1.
          1    1    1    2  502    0 -0.54876593290E+02  0.88200126372E+02  0.18159877903E+04  0.18189563924E+04  0.00000000000E+00 0. -1.
         22    1    3    3    0    0  0.66705918490E+02 -0.12841948235E+02 -0.43016618518E+02  0.80405377089E+02  0.00000000000E+00 0. -1.
         22    1    3    3    0    0  0.16210350887E+01 -0.54452779701E+02 -0.21600813174E+03  0.22277173508E+03  0.00000000000E+00 0. -1.
</event>
<event>
 7    1  0.6557591E-006  0.7222897E+02  0.7818608E-02  0.1363503E+00
          2   -1    0    0  502    0  0.00000000000E+00  0.00000000000E+00  0.34306166282E+03  0.34306166282E+03  0.00000000000E+00 0. -1.
          1   -1    0    0  501    0 -0.00000000000E+00 -0.00000000000E+00 -0.23899543106E+03  0.23899543106E+03  0.00000000000E+00 0. -1.
         25    2    1    2    0    0  0.18439685753E+02  0.12205724934E+02  0.15018209317E+03  0.19664385059E+03  0.12500056452E+03 0.  0.
          2    1    1    2  501    0  0.72181913209E+02 -0.26068542960E+01 -0.19662182416E+03  0.20946877099E+03  0.00000000000E+00 0. -1.
          1    1    1    2  502    0 -0.90621598963E+02 -0.95988706385E+01  0.15050596274E+03  0.17594447231E+03  0.00000000000E+00 0. -1.
         22    1    3    3    0    0 -0.14809875990E+02 -0.25902923687E+02 -0.77364646024E+01  0.30824450796E+02  0.00000000000E+00 0.  1.
         22    1    3    3    0    0  0.33249561743E+02  0.38108648621E+02  0.15791855778E+03  0.16581939979E+03  0.00000000000E+00 0.  1.
</event>
<event>
 7    1  0.6557591E-006  0.8757839E+02  0.7818608E-02  0.1347331E+00
          2   -1    0    0  502    0  0.00000000000E+00  0.00000000000E+00  0.20015277144E+03  0.20015277144E+03  0.00000000000E+00 0. -1.
          1   -1    0    0  501    0 -0.00000000000E+00 -0.00000000000E+00 -0.98975970852E+03  0.98975970852E+03  0.00000000000E+00 0. -1.
         25    2    1    2    0    0 -0.93834527022E+02  0.64870523076E+02 -0.22581250397E+03  0.28218721645E+03  0.12500093981E+03 0.  0.
          2    1    1    2  501    0  0.60359504645E+02  0.15618112796E+02 -0.72328463642E+03  0.72596684534E+03  0.00000000000E+00 0. -1.
          1    1    1    2  502    0  0.33475022377E+02 -0.80488635872E+02  0.15949020331E+03  0.18175841818E+03  0.00000000000E+00 0. -1.
         22    1    3    3    0    0 -0.11173812249E+03  0.27580789686E+02 -0.10998180813E+03  0.15919204156E+03  0.00000000000E+00 0.  1.
         22    1    3    3    0    0  0.17903595467E+02  0.37289733389E+02 -0.11583069583E+03  0.12299517488E+03  0.00000000000E+00 0.  1.
</event>
<event>
 7    1  0.6557591E-006  0.1332957E+03  0.7818608E-02  0.1322625E+00
          2   -1    0    0  502    0  0.00000000000E+00  0.00000000000E+00  0.20537975745E+04  0.20537975745E+04  0.00000000000E+00 0. -1.
          1   -1    0    0  501    0 -0.00000000000E+00 -0.00000000000E+00 -0.10692660290E+04  0.10692660290E+04  0.00000000000E+00 0. -1.
         25    2    1    2    0    0 -0.65148660739E+01  0.10758429402E+03  0.58418507791E+03  0.60705292100E+03  0.12499687931E+03 0.  0.
          2    1    1    2  501    0  0.55399324657E+02 -0.12149215425E+03 -0.10531725145E+04  0.10616033977E+04  0.00000000000E+00 0. -1.
          1    1    1    2  502    0 -0.48884458583E+02  0.13907860230E+02  0.14535189821E+04  0.14544072848E+04  0.00000000000E+00 0. -1.
         22    1    3    3    0    0 -0.14480042734E+02  0.69516822895E+02  0.10781676488E+03  0.12909963243E+03  0.00000000000E+00 0. -1.
         22    1    3    3    0    0  0.79651766606E+01  0.38067471127E+02  0.47636831303E+03  0.47795328857E+03  0.00000000000E+00 0. -1.
</event>
<event>
 7    1  0.6557591E-006  0.6822327E+02  0.7818608E-02  0.1427530E+00
          2   -1    0    0  502    0  0.00000000000E+00  0.00000000000E+00  0.12542417183E+04  0.12542417183E+04  0.00000000000E+00 0. -1.
          1   -1    0    0  501    0 -0.00000000000E+00 -0.00000000000E+00 -0.73800280086E+02  0.73800280086E+02  0.00000000000E+00 0. -1.
         25    2    1    2    0    0  0.53995139322E+02  0.81498733381E+02  0.56374788435E+02  0.16840686433E+03  0.12500094627E+03 0.  0.
          2    1    1    2  501    0 -0.34835047022E+02 -0.44247481435E+02  0.28222643912E+02  0.62990775069E+02  0.00000000000E+00 0. -1.
          1    1    1    2  502    0 -0.19160092300E+02 -0.37251251946E+02  0.10958440059E+04  0.10966443590E+04  0.00000000000E+00 0. -1.
         22    1    3    3    0    0  0.82870274788E+02  0.93522187618E+02  0.56482642266E+02  0.13712830086E+03  0.00000000000E+00 0.  1.
         22    1    3    3    0    0 -0.28875135466E+02 -0.12023454237E+02 -0.10785383087E+00  0.31278563465E+02  0.00000000000E+00 0.  1.
</event>
<event>
 7    1  0.6557591E-006  0.9027541E+02  0.7818608E-02  0.1325617E+00
          2   -1    0    0  502    0  0.00000000000E+00  0.00000000000E+00  0.12699106241E+04  0.12699106241E+04  0.00000000000E+00 0. -1.
          1   -1    0    0  501    0 -0.00000000000E+00 -0.00000000000E+00 -0.58891476701E+03  0.58891476701E+03  0.00000000000E+00 0. -1.
         25    2    1    2    0    0  0.91216329664E+02 -0.43862042347E+02  0.82825104503E+03  0.84372329300E+03  0.12499961602E+03 0.  0.
          2    1    1    2  501    0 -0.85571164934E+02 -0.28997176384E+02 -0.57454627976E+03  0.58160698766E+03  0.00000000000E+00 0. -1.
          1    1    1    2  502    0 -0.56451647308E+01  0.72859218731E+02  0.42729109180E+03  0.43349511044E+03  0.00000000000E+00 0. -1.
         22    1    3    3    0    0  0.75529144123E+02 -0.86046695249E+02  0.54255971718E+03  0.55450855005E+03  0.00000000000E+00 0.  1.
         22    1    3    3    0    0  0.15687185541E+02  0.42184652902E+02  0.28569132785E+03  0.28921474295E+03  0.00000000000E+00 0.  1.
</event>
<event>
 7    1  0.6557591E-006  0.5011941E+02  0.7818608E-02  0.1470612E+00
          2   -1    0    0  502    0  0.00000000000E+00  0.00000000000E+00  0.11924699621E+04  0.11924699621E+04  0.00000000000E+00 0. -1.
          1   -1    0    0  501    0 -0.00000000000E+00 -0.00000000000E+00 -0.20732738864E+03  0.20732738864E+03  0.00000000000E+00 0. -1.
         25    2    1    2    0    0 -0.80301621473E+02  0.38612023714E+02  0.41675720690E+03  0.44412954351E+03  0.12500097252E+03 0.  0.
          2    1    1    2  501    0  0.38971127743E+02 -0.14246490426E+02 -0.19065227644E+03  0.19511535511E+03  0.00000000000E+00 0. -1.
          1    1    1    2  502    0  0.41330493729E+02 -0.24365533289E+02  0.75903764303E+03  0.76055245214E+03  0.00000000000E+00 0. -1.
         22    1    3    3    0    0 -0.18214147646E+02 -0.22159443567E+01  0.32739294344E+03  0.32790670167E+03  0.00000000000E+00 0.  1.
         22    1    3    3    0    0 -0.62087473826E+02  0.40827968071E+02  0.89364263459E+02  0.11622284185E+03  0.00000000000E+00 0.  1.
</event>
<event>
 7    1  0.6557591E-006  0.6090938E+02  0.7818608E-02  0.1444363E+00
          2   -1    0    0  502    0  0.00000000000E+00  0.00000000000E+00  0.16448821127E+03  0.16448821127E+03  0.00000000000E+00 0. -1.
          1   -1    0    0  501    0 -0.00000000000E+00 -0.00000000000E+00 -0.54788712426E+03  0.54788712426E+03  0.00000000000E+00 0. -1.
         25    2    1    2    0    0 -0.16774949912E+02 -0.76238842713E+02 -0.51921464528E+02  0.15625557798E+03  0.12500482826E+03 0.  0.
          2    1    1    2  501    0 -0.19968100052E+02  0.57284765378E+02 -0.43783047301E+03  0.44201333969E+03  0.00000000000E+00 0. -1.
          1    1    1    2  502    0  0.36743049964E+02  0.18954077336E+02  0.10635302455E+03  0.11410641787E+03  0.00000000000E+00 0. -1.
         22    1    3    3    0    0 -0.11839592064E+02 -0.89387458994E+02 -0.82746629259E+02  0.12238177323E+03  0.00000000000E+00 0. -1.
         22    1    3    3    0    0 -0.49353578479E+01  0.13148616281E+02  0.30825164731E+02  0.33873804745E+02  0.00000000000E+00 0. -1.
</event>
<event>
 7    1  0.6557591E-006  0.3683320E+02  0.7818608E-02  0.1554734E+00
          2   -1    0    0  502    0  0.00000000000E+00  0.00000000000E+00  0.68938052904E+03  0.68938052904E+03  0.00000000000E+00 0. -1.
          1   -1    0    0  501    0 -0.00000000000E+00 -0.00000000000E+00 -0.42956470760E+03  0.42956470760E+03  0.00000000000E+00 0. -1.
         25    2    1    2    0    0  0.23926479167E+02  0.22054930449E+02  0.68331294669E+02  0.14610374613E+03  0.12497296683E+03 0.  0.
          2    1    1    2  501    0 -0.28354379862E+02  0.14781702551E+02 -0.38943139883E+03  0.39074196599E+03  0.00000000000E+00 0. -1.
          1    1    1    2  502    0  0.44279006946E+01 -0.36836633000E+02  0.58091592561E+03  0.58209952453E+03  0.00000000000E+00 0. -1.
         22    1    3    3    0    0  0.66431325265E+01 -0.43070695779E+02 -0.79778540919E+01  0.44304200710E+02  0.00000000000E+00 0.  1.
         22    1    3    3    0    0  0.17283346640E+02  0.65125626227E+02  0.76309148761E+02  0.10179954542E+03  0.00000000000E+00 0.  1.
</event>
<event>
 7    1  0.6557591E-006  0.7922634E+02  0.7818608E-02  0.1477358E+00
          2   -1    0    0  502    0  0.00000000000E+00  0.00000000000E+00  0.14647174949E+04  0.14647174949E+04  0.00000000000E+00 0. -1.
          1   -1    0    0  501    0 -0.00000000000E+00 -0.00000000000E+00 -0.20374235434E+03  0.20374235434E+03  0.00000000000E+00 0. -1.
         25    2    1    2    0    0  0.57618004103E+02  0.22110897752E+02 -0.34943384953E+02  0.14371708187E+03  0.12499933309E+03 0.  0.
          2    1    1    2  501    0 -0.82362976796E+02 -0.18426905165E+02 -0.98719850080E+02  0.12988001994E+03  0.00000000000E+00 0. -1.
          1    1    1    2  502    0  0.24744972693E+02 -0.36839925861E+01  0.13946383756E+04  0.13948627474E+04  0.00000000000E+00 0. -1.
         22    1    3    3    0    0  0.59645002228E+01 -0.37899098786E+02  0.23780853413E+02  0.45138076397E+02  0.00000000000E+00 0. -1.
         22    1    3    3    0    0  0.51653503880E+02  0.60009996538E+02 -0.58724238366E+02  0.98579005469E+02  0.00000000000E+00 0. -1.
</event>
<event>
 7    1  0.6557591E-006  0.7169247E+02  0.7818608E-02  0.1366947E+00
          2   -1    0    0  502    0  0.00000000000E+00  0.00000000000E+00  0.54203438530E+03  0.54203438530E+03  0.00000000000E+00 0. -1.
          1   -1    0    0  501    0 -0.00000000000E+00 -0.00000000000E+00 -0.46601824730E+02  0.46601824730E+02  0.00000000000E+00 0. -1.
         25    2    1    2    0    0 -0.56839966982E+02  0.47892720501E+02  0.32158455457E+03  0.35293905214E+03  0.12499941703E+03 0.  0.
          2    1    1    2  501    0 -0.23263469803E+02 -0.60203248297E+02  0.31321718512E+02  0.71740296789E+02  0.00000000000E+00 0. -1.
          1    1    1    2  502    0  0.80103436786E+02  0.12310527796E+02  0.14252628748E+03  0.16395686110E+03  0.00000000000E+00 0. -1.
         22    1    3    3    0    0 -0.26392705442E+02  0.21851834645E+02  0.59569174617E+01  0.34778764262E+02  0.00000000000E+00 0. -1.
         22    1    3    3    0    0 -0.30447261540E+02  0.26040885856E+02  0.31562763711E+03  0.31816028788E+03  0.00000000000E+00 0. -1.
</event>
<event>
 7    1  0.6557591E-006  0.1594314E+03  0.7818608E-02  0.1268362E+00
          2   -1    0    0  502    0  0.00000000000E+00  0.00000000000E+00  0.56071419055E+03  0.56071419055E+03  0.00000000000E+00 0. -1.
          1   -1    0    0  501    0 -0.00000000000E+00 -0.00000000000E+00 -0.18086064948E+04  0.18086064948E+04  0.00000000000E+00 0. -1.
         25    2    1    2    0    0  0.61214493175E+02  0.21246931099E+03 -0.20737223267E+03  0.32789845335E+03  0.12499492206E+03 0.  0.
          2    1    1    2  501    0 -0.63102489171E+02 -0.14215614789E+03 -0.15345491866E+04  0.15424109376E+04  0.00000000000E+00 0. -1.
          1    1    1    2  502    0  0.18879959960E+01 -0.70313163101E+02  0.49402911500E+03  0.49901129437E+03  0.00000000000E+00 0. -1.
         22    1    3    3    0    0  0.86920847559E+02  0.19204619021E+03 -0.20644538584E+03  0.29505367351E+03  0.00000000000E+00 0.  1.
         22    1    3    3    0    0 -0.25706354384E+02  0.20423120774E+02 -0.92684683308E+00  0.32844779843E+02  0.00000000000E+00 0.  1.
</event>
<event>
 7    1  0.6557591E-006  0.1247578E+03  0.7818608E-02  0.1366818E+00
          2   -1    0    0  502    0  0.00000000000E+00  0.00000000000E+00  0.90217334180E+03  0.90217334180E+03  0.00000000000E+00 0. -1.
          1   -1    0    0  501    0 -0.00000000000E+00 -0.00000000000E+00 -0.13494769846E+04  0.13494769846E+04  0.00000000000E+00 0. -1.
         25    2    1    2    0    0  0.14611846066E+03 -0.65535379481E+02  0.14802819657E+03  0.25136407703E+03  0.12500424685E+03 0.  0.
          2    1    1    2  501    0 -0.10969789764E+03  0.58317750526E+02 -0.12943420244E+04  0.13002906848E+04  0.00000000000E+00 0. -1.
          1    1    1    2  502    0 -0.36420563024E+02  0.72176289549E+01  0.69901018506E+03  0.69999556456E+03  0.00000000000E+00 0. -1.
         22    1    3    3    0    0  0.11202992018E+03 -0.14322872201E+02  0.15240049559E+03  0.18968858357E+03  0.00000000000E+00 0.  1.
         22    1    3    3    0    0  0.34088540484E+02 -0.51212507280E+02 -0.43722990143E+01  0.61675493455E+02  0.00000000000E+00 0.  1.
</event>
<event>
 7    1  0.1044875E-005  0.4482726E+02  0.7818608E-02  0.1591758E+00
          2   -1    0    0  502    0  0.00000000000E+00  0.00000000000E+00  0.17548629392E+04  0.17548629392E+04  0.00000000000E+00 0. -1.
          1   -1    0    0  501    0 -0.00000000000E+00 -0.00000000000E+00 -0.92851025557E+03  0.92851025557E+03  0.00000000000E+00 0. -1.
         25    2    1    2    0    0  0.24719499471E+02  0.43889351132E+02 -0.38362499596E+03  0.40660832579E+03  0.12499945710E+03 0.  0.
          2    1    1    2  501    0  0.11464411052E+02 -0.17429195315E+02 -0.53290131847E+03  0.53330950188E+03  0.00000000000E+00 0. -1.
          1    1    1    2  502    0 -0.36183910523E+02 -0.26460155817E+02  0.17428789980E+04  0.17434553671E+04  0.00000000000E+00 0. -1.
         22    1    3    3    0    0 -0.27957295396E+02  0.31513867138E+02 -0.32138880047E+03  0.32413808054E+03  0.00000000000E+00 0.  1.
         22    1    3    3    0    0  0.52676794868E+02  0.12375483994E+02 -0.62236195488E+02  0.82470245243E+02  0.00000000000E+00 0.  1.
</event>
<event>
 7    1  0.8287526E-006  0.6725012E+02  0.7818608E-02  0.1429308E+00
          2   -1    0    0  502    0  0.00000000000E+00  0.00000000000E+00  0.20376471399E+04  0.20376471399E+04  0.00000000000E+00 0. -1.
          1   -1    0    0  501    0 -0.00000000000E+00 -0.00000000000E+00 -0.11350473568E+04  0.11350473568E+04  0.00000000000E+00 0. -1.
         25    2    1    2    0    0 -0.28629905723E+02  0.75627173476E+02 -0.17039498603E+03  0.22627119370E+03  0.12500024386E+03 0.  0.
          2    1    1    2  501    0 -0.24307250410E+02 -0.34160460507E+02 -0.93568222104E+03  0.93662105371E+03  0.00000000000E+00 0. -1.
          1    1    1    2  502    0  0.52937156133E+02 -0.41466712970E+02  0.20086769901E+04  0.20098022493E+04  0.00000000000E+00 0. -1.
         22    1    3    3    0    0 -0.58347758928E+02  0.62449889511E+02 -0.44718273214E+02  0.96458144452E+02  0.00000000000E+00 0.  1.
         22    1    3    3    0    0  0.29717853205E+02  0.13177283965E+02 -0.12567671281E+03  0.12981304925E+03  0.00000000000E+00 0.  1.
</event>
<event>
 7    1  0.6557591E-006  0.1083887E+03  0.7818608E-02  0.1400821E+00
          2   -1    0    0  502    0  0.00000000000E+00  0.00000000000E+00  0.71886898237E+03  0.71886898237E+03  0.00000000000E+00 0. -1.
          1   -1    0    0  501    0 -0.00000000000E+00 -0.00000000000E+00 -0.12012552248E+03  0.12012552248E+03  0.00000000000E+00 0. -1.
         25    2    1    2    0    0  0.68033462279E+02 -0.85692298757E+02  0.23847774732E+03  0.29063526359E+03  0.12500199367E+03 0.  0.
          2    1    1    2  501    0 -0.39608200137E+02  0.10131631601E+03 -0.61757646658E+02  0.12509121603E+03  0.00000000000E+00 0. -1.
          1    1    1    2  502    0 -0.28425262142E+02 -0.15624017253E+02  0.42202335923E+03  0.42326802522E+03  0.00000000000E+00 0. -1.
         22    1    3    3    0    0 -0.36851936573E+02 -0.16313472391E+02  0.54372326318E+02  0.67679719857E+02  0.00000000000E+00 0.  1.
         22    1    3    3    0    0  0.10488539885E+03 -0.69378826366E+02  0.18410542100E+03  0.22295554374E+03  0.00000000000E+00 0.  1.
</event>
<event>
 7    1  0.6557591E-006  0.4198044E+02  0.7818608E-02  0.1530580E+00
          2   -1    0    0  502    0  0.00000000000E+00  0.00000000000E+00  0.11216903901E+04  0.11216903901E+04  0.00000000000E+00 0. -1.
          1   -1    0    0  501    0 -0.00000000000E+00 -0.00000000000E+00 -0.10397277334E+04  0.10397277334E+04  0.00000000000E+00 0. -1.
         25    2    1    2    0    0  0.20316957601E+02  0.16864261306E+02  0.50705099022E+03  0.52289848784E+03  0.12499975930E+03 0.  0.
          2    1    1    2  501    0 -0.17938155957E+02  0.27477004838E+02 -0.10307300437E+04  0.10312522418E+04  0.00000000000E+00 0. -1.
          1    1    1    2  502    0 -0.23788016444E+01 -0.44341266144E+02  0.60564171019E+03  0.60726739391E+03  0.00000000000E+00 0. -1.
         22    1    3    3    0    0  0.22433977301E+02 -0.66607054182E+01  0.49646243384E+03  0.49701367843E+03  0.00000000000E+00 0. -1.
         22    1    3    3    0    0 -0.21170197000E+01  0.23524966724E+02  0.10588556379E+02  0.25884809406E+02  0.00000000000E+00 0. -1.
</event>
<event>
 7    1  0.6557591E-006  0.4252257E+02  0.7818608E-02  0.1519136E+00
          2   -1    0    0  502    0  0.00000000000E+00  0.00000000000E+00  0.22489726624E+02  0.22489726624E+02  0.00000000000E+00 0. -1.
          1   -1    0    0  501    0 -0.00000000000E+00 -0.00000000000E+00 -0.20094817674E+04  0.20094817674E+04  0.00000000000E+00 0. -1.
         25    2    1    2    0    0  0.63978168318E+01 -0.51426400741E+01 -0.20187018684E+03  0.23757849578E+03  0.12499836204E+03 0.  0.
          2    1    1    2  501    0 -0.28985739951E+02  0.31818361908E+02 -0.17195309119E+04  0.17200695155E+04  0.00000000000E+00 0. -1.
          1    1    1    2  502    0  0.22587923119E+02 -0.26675721833E+02 -0.65590942042E+02  0.74323482723E+02  0.00000000000E+00 0. -1.
         22    1    3    3    0    0 -0.35689118857E+02 -0.12628201523E+02 -0.75384457345E+01  0.38600684483E+02  0.00000000000E+00 0. -1.
         22    1    3    3    0    0  0.42086935689E+02  0.74855614485E+01 -0.19433174111E+03  0.19897781129E+03  0.00000000000E+00 0. -1.
</event>
<event>
 7    1  0.6557591E-006  0.5847768E+02  0.7818608E-02  0.1409780E+00
          2   -1    0    0  502    0  0.00000000000E+00  0.00000000000E+00  0.19528051969E+04  0.19528051969E+04  0.00000000000E+00 0. -1.
          1   -1    0    0  501    0 -0.00000000000E+00 -0.00000000000E+00 -0.85862910788E+02  0.85862910788E+02  0.00000000000E+00 0. -1.
         25    2    1    2    0    0  0.30689658353E+02  0.38580554263E+02  0.10192329450E+03  0.16865303260E+03  0.12500069258E+03 0.  0.
          2    1    1    2  501    0 -0.58820331241E+02  0.12686437293E+02 -0.34623277930E+02  0.69422967619E+02  0.00000000000E+00 0. -1.
          1    1    1    2  502    0  0.28130672887E+02 -0.51266991556E+02  0.17996422695E+04  0.18005921074E+04  0.00000000000E+00 0. -1.
         22    1    3    3    0    0  0.18086282319E+02 -0.45435807377E+02  0.30261877816E+02  0.57509194475E+02  0.00000000000E+00 0.  1.
         22    1    3    3    0    0  0.12603376034E+02  0.84016361641E+02  0.71661416686E+02  0.11114383812E+03  0.00000000000E+00 0.  1.
</event>
<event>
 7    1  0.6557591E-006  0.1735846E+03  0.7818608E-02  0.1339338E+00
          2   -1    0    0  502    0  0.00000000000E+00  0.00000000000E+00  0.20948777615E+04  0.20948777615E+04  0.00000000000E+00 0. -1.
          1   -1    0    0  501    0 -0.00000000000E+00 -0.00000000000E+00 -0.13146702199E+04  0.13146702199E+04  0.00000000000E+00 0. -1.
         25    2    1    2    0    0 -0.12698400602E+03  0.16160837931E+03  0.16288930396E+03  0.29051623482E+03  0.12499820519E+03 0.  0.
          2    1    1    2  501    0  0.11227285669E+03 -0.13128934849E+03 -0.12447392364E+04  0.12566693495E+04  0.00000000000E+00 0. -1.
          1    1    1    2  502    0  0.14711149328E+02 -0.30319030820E+02  0.18620574740E+04  0.18623623971E+04  0.00000000000E+00 0. -1.
         22    1    3    3    0    0 -0.46990128129E+02  0.14479969352E+03  0.13692126659E+03  0.20474974146E+03  0.00000000000E+00 0.  1.
         22    1    3    3    0    0 -0.79993877888E+02  0.16808685789E+02  0.25968037375E+02  0.85766493357E+02  0.00000000000E+00 0.  1.
</event>
<event>
 7    1  0.6557591E-006  0.3303853E+02  0.7818608E-02  0.1611783E+00
          2   -1    0    0  502    0  0.00000000000E+00  0.00000000000E+00  0.11181194484E+04  0.11181194484E+04  0.00000000000E+00 0. -1.
          1   -1    0    0  501    0 -0.00000000000E+00 -0.00000000000E+00 -0.13284811706E+04  0.13284811706E+04  0.00000000000E+00 0. -1.
         25    2    1    2    0    0 -0.74249788841E+01 -0.37555123262E+01 -0.84985182616E+02  0.15138736028E+03  0.12500566949E+03 0.  0.
          2    1    1    2  501    0 -0.17610738682E+02 -0.17884330796E+02 -0.12099123715E+04  0.12101726878E+04  0.00000000000E+00 0. -1.
          1    1    1    2  502    0  0.25035717566E+02  0.21639843122E+02  0.10845358319E+04  0.10850405710E+04  0.00000000000E+00 0. -1.
         22    1    3    3    0    0 -0.12125895256E+02 -0.59619706892E+02 -0.16805739916E+02  0.63118774384E+02  0.00000000000E+00 0.  1.
         22    1    3    3    0    0  0.47009163723E+01  0.55864194566E+02 -0.68179442700E+02  0.88268585896E+02  0.00000000000E+00 0.  1.
</event>
<event>
 7    1  0.6557591E-006  0.1247805E+03  0.7818608E-02  0.1423498E+00
          2   -1    0    0  502    0  0.00000000000E+00  0.00000000000E+00  0.11284320648E+04  0.11284320648E+04  0.00000000000E+00 0. -1.
          1   -1    0    0  501    0 -0.00000000000E+00 -0.00000000000E+00 -0.71434710737E+02  0.71434710737E+02  0.00000000000E+00 0. -1.
         25    2    1    2    0    0  0.13959894982E+03 -0.10018086157E+02  0.72868717529E+03  0.75246155514E+03  0.12500065471E+03 0.  0.
          2    1    1    2  501    0 -0.12106468258E+03  0.24657796404E+02  0.54375225909E+01  0.12366984654E+03  0.00000000000E+00 0. -1.
          1    1    1    2  502    0 -0.18534267242E+02 -0.14639710247E+02  0.32287265618E+03  0.32373537385E+03  0.00000000000E+00 0. -1.
         22    1    3    3    0    0  0.12938074976E+03  0.38441123175E+02  0.46627139066E+03  0.48541333738E+03  0.00000000000E+00 0. -1.
         22    1    3    3    0    0  0.10218200067E+02 -0.48459209333E+02  0.26241578463E+03  0.26704821776E+03  0.00000000000E+00 0. -1.
</event>
<event>
 7    1  0.6557591E-006  0.3542133E+03  0.7818608E-02  0.1209960E+00
          2   -1    0    0  502    0  0.00000000000E+00  0.00000000000E+00  0.13263687435E+03  0.13263687435E+03  0.00000000000E+00 0. -1.
          1   -1    0    0  501    0 -0.00000000000E+00 -0.00000000000E+00 -0.20430028374E+04  0.20430028374E+04  0.00000000000E+00 0. -1.
         25    2    1    2    0    0 -0.82402711191E+02  0.30820525863E+03 -0.48603264893E+03  0.59467034186E+03  0.12499756561E+03 0.  0.
          2    1    1    2  501    0  0.12363410190E+03 -0.34807383848E+03 -0.14648780785E+04  0.15107311385E+04  0.00000000000E+00 0. -1.
          1    1    1    2  502    0 -0.41231390713E+02  0.39868579853E+02  0.40544764282E+02  0.70238231401E+02  0.00000000000E+00 0. -1.
         22    1    3    3    0    0 -0.54284289539E+02  0.28183588684E+03 -0.34661962181E+03  0.45002601416E+03  0.00000000000E+00 0. -1.
         22    1    3    3    0    0 -0.28118421652E+02  0.26369371792E+02 -0.13941302712E+03  0.14464432770E+03  0.00000000000E+00 0. -1.
</event>
<event>
 7    1  0.6557591E-006  0.1067732E+03  0.7818608E-02  0.1377691E+00
          2   -1    0    0  502    0  0.00000000000E+00  0.00000000000E+00  0.96056830216E+02  0.96056830216E+02  0.00000000000E+00 0. -1.
          1   -1    0    0  501    0 -0.00000000000E+00 -0.00000000000E+00 -0.23789593906E+04  0.23789593906E+04  0.00000000000E+00 0. -1.
         25    2    1    2    0    0 -0.10377468618E+03  0.10147184812E+02  0.64048261838E+00  0.16278541524E+03  0.12500612124E+03 0.  0.
          2    1    1    2  501    0  0.95111574547E+02 -0.48850246846E+02 -0.22665703285E+04  0.22690909220E+04  0.00000000000E+00 0. -1.
          1    1    1    2  502    0  0.86631116311E+01  0.38703062034E+02 -0.16972714425E+02  0.43139883506E+02  0.00000000000E+00 0. -1.
         22    1    3    3    0    0 -0.40106355293E+02  0.26245022518E+02 -0.57652260580E+02  0.74974022780E+02  0.00000000000E+00 0. -1.
         22    1    3    3    0    0 -0.63668330885E+02 -0.16097837706E+02  0.58292743198E+02  0.87811392462E+02  0.00000000000E+00 0. -1.
</event>
<event>
 7    1  0.6557591E-006  0.1008637E+03  0.7818608E-02  0.1419277E+00
          2   -1    0    0  502    0  0.00000000000E+00  0.00000000000E+00  0.67640951058E+03  0.67640951058E+03  0.00000000000E+00 0. -1.
          1   -1    0    0  501    0 -0.00000000000E+00 -0.00000000000E+00 -0.18921686048E+04  0.18921686048E+04  0.00000000000E+00 0. -1.
         25    2    1    2    0    0  0.63189558481E+02 -0.75655895550E+02 -0.42057623581E+03  0.44969482695E+03  0.12499732967E+03 0.  0.
          2    1    1    2  501    0  0.21662725511E+02  0.21015194472E+02 -0.14530280881E+04  0.14533415073E+04  0.00000000000E+00 0. -1.
          1    1    1    2  502    0 -0.84852283993E+02  0.54640701078E+02  0.65784522965E+03  0.66554178117E+03  0.00000000000E+00 0. -1.
         22    1    3    3    0    0  0.69310437311E+02 -0.85739818406E+02 -0.42343861549E+03  0.43755629840E+03  0.00000000000E+00 0.  1.
         22    1    3    3    0    0 -0.61208788292E+01  0.10083922855E+02  0.28623796849E+01  0.12138528546E+02  0.00000000000E+00 0.  1.
</event>
<event>
 7    1  0.6557591E-006  0.8135599E+02  0.7818608E-02  0.1371163E+00
          2   -1    0    0  502    0  0.00000000000E+00  0.00000000000E+00  0.20992079989E+04  0.20992079989E+04  0.00000000000E+00 0. -1.
          1   -1    0    0  501    0 -0.00000000000E+00 -0.00000000000E+00 -0.34968646291E+03  0.34968646291E+03  0.00000000000E+00 0. -1.
         25    2    1    2    0    0  0.20819724380E+02 -0.30230121811E+02  0.25147369239E+02  0.13268619612E+03  0.12500366104E+03 0.  0.
          2    1    1    2  501    0 -0.11451359823E+02  0.84347256349E+02 -0.28941358781E+03  0.30167170584E+03  0.00000000000E+00 0. -1.
          1    1    1    2  502    0 -0.93683645571E+01 -0.54117134537E+02  0.20137877545E+04  0.20145365598E+04  0.00000000000E+00 0. -1.
         22    1    3    3    0    0  0.14820564953E+02  0.48808419392E+02  0.10496437857E+02  0.52077693466E+02  0.00000000000E+00 0. -1.
         22    1    3    3    0    0  0.59991594269E+01 -0.79038541203E+02  0.14650931382E+02  0.80608502652E+02  0.00000000000E+00 0. -1.
</event>
<event>
 7    1  0.1109366E-005  0.7356575E+02  0.7818608E-02  0.1433450E+00
          2   -1    0    0  502    0  0.00000000000E+00  0.00000000000E+00  0.18340803188E+04  0.18340803188E+04  0.00000000000E+00 0. -1.
          1   -1    0    0  501    0 -0.00000000000E+00 -0.00000000000E+00 -0.55728752055E+03  0.55728752055E+03  0.00000000000E+00 0. -1.
         25    2    1    2    0    0  0.74253804499E+02  0.30227351084E+02 -0.16762623225E+03  0.22394488379E+03  0.12500174799E+03 0.  0.
          2    1    1    2  501    0 -0.10032643422E+01 -0.37130491382E+02 -0.35979607074E+03  0.36170829746E+03  0.00000000000E+00 0. -1.
          1    1    1    2  502    0 -0.73250540157E+02  0.69031402978E+01  0.18042151012E+04  0.18057146581E+04  0.00000000000E+00 0. -1.
         22    1    3    3    0    0  0.60782271037E+02  0.19418439966E+02 -0.90693818979E+01  0.64450088992E+02  0.00000000000E+00 0.  1.
         22    1    3    3    0    0  0.13471533462E+02  0.10808911118E+02 -0.15855685035E+03  0.15949479480E+03  0.00000000000E+00 0.  1.
</event>
<event>
 7    1  0.6557591E-006  0.1230059E+03  0.7818608E-02  0.1372236E+00
          2   -1    0    0  502    0  0.00000000000E+00  0.00000000000E+00  0.74110199846E+03  0.74110199846E+03  0.00000000000E+00 0. -1.
          1   -1    0    0  501    0 -0.00000000000E+00 -0.00000000000E+00 -0.81229566871E+02  0.81229566871E+02  0.00000000000E+00 0. -1.
         25    2    1    2    0    0 -0.91512892307E+02 -0.11582612481E+03  0.39014481614E+03  0.43546367638E+03  0.12500134094E+03 0.  0.
          2    1    1    2  501    0  0.16782244384E+02  0.31854663502E+02 -0.42100831323E+02  0.55397141726E+02  0.00000000000E+00 0. -1.
          1    1    1    2  502    0  0.74730647923E+02  0.83971461304E+02  0.31182844677E+03  0.33147074722E+03  0.00000000000E+00 0. -1.
         22    1    3    3    0    0 -0.14951289513E+01 -0.10082231570E+03  0.23019672713E+03  0.25131237124E+03  0.00000000000E+00 0.  1.
         22    1    3    3    0    0 -0.90017763356E+02 -0.15003809102E+02  0.15994808901E+03  0.18415130514E+03  0.00000000000E+00 0.  1.
</event>
<event>
 7    1  0.6557591E-006  0.1200643E+03  0.7818608E-02  0.1283045E+00
          2   -1    0    0  502    0  0.00000000000E+00  0.00000000000E+00  0.53860889178E+03  0.53860889178E+03  0.00000000000E+00 0. -1.
          1   -1    0    0  501    0 -0.00000000000E+00 -0.00000000000E+00 -0.23459010359E+04  0.23459010359E+04  0.00000000000E+00 0. -1.
         25    2    1    2    0    0 -0.17647283368E+03  0.66119211381E+01  0.74969352457E+02  0.22895663100E+03  0.12495741891E+03 0.  0.
          2    1    1    2  501    0  0.10834679147E+03 -0.50693474557E+02 -0.22630529866E+04  0.22662121868E+04  0.00000000000E+00 0. -1.
          1    1    1    2  502    0  0.68126042208E+02  0.44081553419E+02  0.38079149000E+03  0.38934110987E+03  0.00000000000E+00 0. -1.
         22    1    3    3    0    0 -0.30330029630E+02 -0.22369903166E+02 -0.28766270233E+02  0.47411196654E+02  0.00000000000E+00 0. -1.
         22    1    3    3    0    0 -0.14614280405E+03  0.28981824304E+02  0.10373562269E+03  0.18154543434E+03  0.00000000000E+00 0. -1.
</event>
<event>
 7    1  0.6557591E-006  0.7904029E+02  0.7818608E-02  0.1375820E+00
          2   -1    0    0  502    0  0.00000000000E+00  0.00000000000E+00  0.77478694049E+02  0.77478694049E+02  0.00000000000E+00 0. -1.
          1   -1    0    0  501    0 -0.00000000000E+00 -0.00000000000E+00 -0.16002882697E+04  0.16002882697E+04  0.00000000000E+00 0. -1.
         25    2    1    2    0    0 -0.65133797250E+00  0.34802250311E+02 -0.50911406420E+03  0.52539146756E+03  0.12500977141E+03 0.  0.
          2    1    1    2  501    0 -0.34781574776E+01 -0.89049782549E+02 -0.10702191395E+04  0.10739231667E+04  0.00000000000E+00 0. -1.
          1    1    1    2  502    0  0.41294954501E+01  0.54247532238E+02  0.56523628025E+02  0.78452329549E+02  0.00000000000E+00 0. -1.
         22    1    3    3    0    0  0.15817114630E+02  0.26137771373E+02 -0.21348200447E+02  0.37270764278E+02  0.00000000000E+00 0.  1.
         22    1    3    3    0    0 -0.16468452602E+02  0.86644789387E+01 -0.48776586375E+03  0.48812070328E+03  0.00000000000E+00 0.  1.
</event>
<event>
 7    1  0.6557591E-006  0.4797143E+02  0.7818608E-02  0.1534046E+00
          2   -1    0    0  502    0  0.00000000000E+00  0.00000000000E+00  0.34876786396E+04  0.34876786396E+04  0.00000000000E+00 0. -1.
          1   -1    0    0  501    0 -0.00000000000E+00 -0.00000000000E+00 -0.11468130724E+03  0.11468130724E+03  0.00000000000E+00 0. -1.
         25    2    1    2    0    0 -0.21940063942E+02 -0.17490005418E+02  0.52350447455E+03  0.53895200695E+03  0.12500025692E+03 0.  0.
          2    1    1    2  501    0 -0.26108360272E+02  0.10305856384E+02 -0.10491286714E+03  0.10860279390E+03  0.00000000000E+00 0. -1.
          1    1    1    2  502    0  0.48048424215E+02  0.71841490344E+01  0.29544057250E+04  0.29548051460E+04  0.00000000000E+00 0. -1.
         22    1    3    3    0    0  0.52378862260E+02 -0.99307284283E+01  0.20778158687E+03  0.21451189343E+03  0.00000000000E+00 0.  1.
         22    1    3    3    0    0 -0.74318926203E+02 -0.75592769896E+01  0.31572288767E+03  0.32444011352E+03  0.00000000000E+00 0.  1.
</event>
<event>
 7    1  0.6557591E-006  0.1110647E+03  0.7818608E-02  0.1277626E+00
          2   -1    0    0  502    0  0.00000000000E+00  0.00000000000E+00  0.16409660179E+04  0.16409660179E+04  0.00000000000E+00 0. -1.
          1   -1    0    0  501    0 -0.00000000000E+00 -0.00000000000E+00 -0.13027768762E+03  0.13027768762E+03  0.00000000000E+00 0. -1.
         25    2    1    2    0    0 -0.10965218513E+03 -0.28328932261E+02  0.26654865015E+03  0.31543618142E+03  0.12500268615E+03 0.  0.
          2    1    1    2  501    0  0.14230139207E+02  0.91255792007E+02 -0.82748165192E+02  0.12400554536E+03  0.00000000000E+00 0. -1.
          1    1    1    2  502    0  0.95422045927E+02 -0.62926859746E+02  0.13268878453E+04  0.13318019787E+04  0.00000000000E+00 0. -1.
         22    1    3    3    0    0 -0.23033436616E+02  0.23271537848E+02  0.25527087760E+01  0.32842350681E+02  0.00000000000E+00 0. -1.
         22    1    3    3    0    0 -0.86618748517E+02 -0.51600470110E+02  0.26399594137E+03  0.28259383074E+03  0.00000000000E+00 0. -1.
</event>
<event>
 7    1  0.6557591E-006  0.5834683E+02  0.7818608E-02  0.1434076E+00
          2   -1    0    0  502    0  0.00000000000E+00  0.00000000000E+00  0.75575265959E+03  0.75575265959E+03  0.00000000000E+00 0. -1.
          1   -1    0    0  501    0 -0.00000000000E+00 -0.00000000000E+00 -0.80195227807E+02  0.80195227807E+02  0.00000000000E+00 0. -1.
         25    2    1    2    0    0 -0.14466695091E+02 -0.73589586766E+02  0.27514897689E+03  0.31137257772E+03  0.12498483958E+03 0.  0.
          2    1    1    2  501    0 -0.26735539374E+02  0.51793819868E+02 -0.46919551794E+02  0.74825351204E+02  0.00000000000E+00 0. -1.
          1    1    1    2  502    0  0.41202234465E+02  0.21795766897E+02  0.44732800668E+03  0.44974995847E+03  0.00000000000E+00 0. -1.
         22    1    3    3    0    0 -0.23474826292E+02  0.79161630287E+01  0.53784674672E+00  0.24779475089E+02  0.00000000000E+00 0.  1.
         22    1    3    3    0    0  0.90081312009E+01 -0.81505749794E+02  0.27461113014E+03  0.28659310263E+03  0.00000000000E+00 0.  1.
</event>
<event>
 7    1  0.6557591E-006  0.8125477E+02  0.7818608E-02  0.1384213E+00
          2   -1    0    0  502    0  0.00000000000E+00  0.00000000000E+00  0.81464610979E+03  0.81464610979E+03  0.00000000000E+00 0. -1.
          1   -1    0    0  501    0 -0.00000000000E+00 -0.00000000000E+00 -0.15070030795E+04  0.15070030795E+04  0.00000000000E+00 0. -1.
         25    2    1    2    0    0  0.10903796877E+03 -0.71235028610E+02 -0.33910874708E+03  0.38416545235E+03  0.12499857797E+03 0.  0.
          2    1    1    2  501    0 -0.39632871478E+02  0.29523592775E+02 -0.11427610873E+04  0.11438292310E+04  0.00000000000E+00 0. -1.
          1    1    1    2  502    0 -0.69405097293E+02  0.41711435835E+02  0.78951286464E+03  0.79365450597E+03  0.00000000000E+00 0. -1.
         22    1    3    3    0    0  0.58404745718E+02  0.28012859272E+02 -0.86400363236E+02  0.10798544983E+03  0.00000000000E+00 0.  1.
         22    1    3    3    0    0  0.50633223053E+02 -0.99247887882E+02 -0.25270838385E+03  0.27618000252E+03  0.00000000000E+00 0.  1.
</event>
<event>
 7    1  0.6557591E-006  0.6607738E+02  0.7818608E-02  0.1453667E+00
          2   -1    0    0  502    0  0.00000000000E+00  0.00000000000E+00  0.21605351015E+04  0.21605351015E+04  0.00000000000E+00 0. -1.
          1   -1    0    0  501    0 -0.00000000000E+00 -0.00000000000E+00 -0.40948044946E+02  0.40948044946E+02  0.00000000000E+00 0. -1.
         25    2    1    2    0    0  0.29884503658E+02 -0.10447128429E+02  0.20939138186E+03  0.24590092068E+03  0.12498114235E+03 0.  0.
          2    1    1    2  501    0  0.34412353680E+02 -0.90478430885E+01 -0.77862375626E+01  0.36423880158E+02  0.00000000000E+00 0. -1.
          1    1    1    2  502    0 -0.64296857339E+02  0.19494971518E+02  0.19179819123E+04  0.19191583456E+04  0.00000000000E+00 0. -1.
         22    1    3    3    0    0 -0.10640382007E+02  0.47962186651E+02  0.44293097018E+02  0.66147316809E+02  0.00000000000E+00 0.  1.
         22    1    3    3    0    0  0.40524885666E+02 -0.58409315081E+02  0.16509828484E+03  0.17975360387E+03  0.00000000000E+00 0.  1.
</event>
<event>
 7    1  0.6557591E-006  0.1507730E+03  0.7818608E-02  0.1311027E+00
          2   -1    0    0  502    0  0.00000000000E+00  0.00000000000E+00  0.20725868150E+03  0.20725868150E+03  0.00000000000E+00 0. -1.
          1   -1    0    0  501    0 -0.00000000000E+00 -0.00000000000E+00 -0.81258649230E+03  0.81258649230E+03  0.00000000000E+00 0. -1.
         25    2    1    2    0    0 -0.18031658317E+03  0.50249158418E+02 -0.27723186874E+03  0.35710926054E+03  0.12502186542E+03 0.  0.
          2    1    1    2  501    0  0.13067075123E+03 -0.54911020175E+02 -0.48123955499E+03  0.50167875642E+03  0.00000000000E+00 0. -1.
          1    1    1    2  502    0  0.49645831940E+02  0.46618617570E+01  0.15314361293E+03  0.16105715683E+03  0.00000000000E+00 0. -1.
         22    1    3    3    0    0 -0.33987695946E+02  0.52912742335E+02 -0.15197747320E+03  0.16447514748E+03  0.00000000000E+00 0.  1.
         22    1    3    3    0    0 -0.14632888722E+03 -0.26635839172E+01 -0.12525439554E+03  0.19263411307E+03  0.00000000000E+00 0.  1.
</event>
<event>
 7    1  0.6557591E-006  0.7426110E+02  0.7818608E-02  0.1374693E+00
          2   -1    0    0  502    0  0.00000000000E+00  0.00000000000E+00  0.67782785071E+03  0.67782785071E+03  0.00000000000E+00 0. -1.
          1   -1    0    0  501    0 -0.00000000000E+00 -0.00000000000E+00 -0.38656752158E+03  0.38656752158E+03  0.00000000000E+00 0. -1.
         25    2    1    2    0    0 -0.29249705998E+02 -0.32110934319E+01  0.68924548749E+02  0.14574421782E+03  0.12499970874E+03 0.  0.
          2    1    1    2  501    0  0.49625708325E+02  0.57988084690E+02 -0.34244860111E+03  0.35085092745E+03  0.00000000000E+00 0. -1.
          1    1    1    2  502    0 -0.20376002327E+02 -0.54776991258E+02  0.56478438149E+03  0.56780022703E+03  0.00000000000E+00 0. -1.
         22    1    3    3    0    0 -0.54150847886E+02  0.39837959605E+02  0.68546788507E+02  0.96010622156E+02  0.00000000000E+00 0. -1.
         22    1    3    3    0    0  0.24901141888E+02 -0.43049053037E+02  0.37776024233E+00  0.49733595662E+02  0.00000000000E+00 0. -1.
</event>
<event>
 7    1  0.6557591E-006  0.6646128E+02  0.7818608E-02  0.1525130E+00
          2   -1    0    0  502    0  0.00000000000E+00  0.00000000000E+00  0.25244714670E+03  0.25244714670E+03  0.00000000000E+00 0. -1.
          1   -1    0    0  501    0 -0.00000000000E+00 -0.00000000000E+00 -0.58362268723E+03  0.58362268723E+03  0.00000000000E+00 0. -1.
         25    2    1    2    0    0 -0.33070921830E+02 -0.56184681575E+02 -0.11920103932E+03  0.18461927157E+03  0.12499993338E+03 0.  0.
          2    1    1    2  501    0 -0.17360729634E+02  0.12662647581E+02 -0.42638710594E+03  0.42692821608E+03  0.00000000000E+00 0. -1.
          1    1    1    2  502    0  0.50431651464E+02  0.43522033994E+02  0.21441260473E+03  0.22452234628E+03  0.00000000000E+00 0. -1.
         22    1    3    3    0    0 -0.60280564878E+02 -0.23874275617E+02 -0.12612514674E+03  0.14181424533E+03  0.00000000000E+00 0. -1.
         22    1    3    3    0    0  0.27209643048E+02 -0.32310405958E+02  0.69241074170E+01  0.42805026241E+02  0.00000000000E+00 0. -1.
</event>
<event>
 7    1  0.6557591E-006  0.2002579E+03  0.7818608E-02  0.1152273E+00
          2   -1    0    0  502    0  0.00000000000E+00  0.00000000000E+00  0.13895000080E+03  0.13895000080E+03  0.00000000000E+00 0. -1.
          1   -1    0    0  501    0 -0.00000000000E+00 -0.00000000000E+00 -0.11972538869E+04  0.11972538869E+04  0.00000000000E+00 0. -1.
         25    2    1    2    0    0  0.15953067215E+03  0.15848262081E+03 -0.16551964542E+03  0.30592258770E+03  0.12500040075E+03 0.  0.
          2    1    1    2  501    0  0.49478056326E+02 -0.19404937371E+03 -0.74600818456E+03  0.77241921839E+03  0.00000000000E+00 0. -1.
          1    1    1    2  502    0 -0.20900872848E+03  0.35566752903E+02 -0.14677605614E+03  0.25786208164E+03  0.00000000000E+00 0. -1.
         22    1    3    3    0    0  0.46249093803E+02  0.60651416897E+02 -0.13213096043E+03  0.15256527702E+03  0.00000000000E+00 0. -1.
         22    1    3    3    0    0  0.11328157835E+03  0.97831203912E+02 -0.33388684995E+02  0.15335731068E+03  0.00000000000E+00 0. -1.
</event>
<event>
 7    1  0.6557591E-006  0.2196170E+03  0.7818608E-02  0.1351976E+00
          2   -1    0    0  502    0  0.00000000000E+00  0.00000000000E+00  0.10302799096E+04  0.10302799096E+04  0.00000000000E+00 0. -1.
          1   -1    0    0  501    0 -0.00000000000E+00 -0.00000000000E+00 -0.19269660779E+04  0.19269660779E+04  0.00000000000E+00 0. -1.
         25    2    1    2    0    0 -0.45357196671E+02  0.21132590886E+03  0.65550705384E+02  0.25815262644E+03  0.12501987248E+03 0.  0.
          2    1    1    2  501    0  0.69104724809E+02 -0.20866314467E+03 -0.18239007570E+04  0.18370981852E+04  0.00000000000E+00 0. -1.
          1    1    1    2  502    0 -0.23747528138E+02 -0.26627641960E+01  0.86166388325E+03  0.86199517580E+03  0.00000000000E+00 0. -1.
         22    1    3    3    0    0 -0.41659993436E+01  0.20517916192E+02  0.59257878102E+02  0.62847725118E+02  0.00000000000E+00 0. -1.
         22    1    3    3    0    0 -0.41191197327E+02  0.19080799267E+03  0.62928272819E+01  0.19530490132E+03  0.00000000000E+00 0. -1.
</event>
<event>
 7    1  0.6557591E-006  0.7261567E+02  0.7818608E-02  0.1394611E+00
          2   -1    0    0  502    0  0.00000000000E+00  0.00000000000E+00  0.57659108858E+03  0.57659108858E+03  0.00000000000E+00 0. -1.
          1   -1    0    0  501    0 -0.00000000000E+00 -0.00000000000E+00 -0.68601008200E+03  0.68601008200E+03  0.00000000000E+00 0. -1.
         25    2    1    2    0    0  0.37565020170E+02 -0.53144961416E+02  0.57283733215E+02  0.15213761723E+03  0.12501564231E+03 0.  0.
          2    1    1    2  501    0 -0.71497637037E+02  0.15254259109E+02 -0.63510948491E+03  0.63930326321E+03  0.00000000000E+00 0. -1.
          1    1    1    2  502    0  0.33932616867E+02  0.37890702307E+02  0.46840675827E+03  0.47116029014E+03  0.00000000000E+00 0. -1.
         22    1    3    3    0    0  0.44318305852E+02 -0.11613975118E+02  0.88560853885E+02  0.99709686052E+02  0.00000000000E+00 0.  1.
         22    1    3    3    0    0 -0.67532856827E+01 -0.41530986298E+02 -0.31277120671E+02  0.52427931180E+02  0.00000000000E+00 0.  1.
</event>
<event>
 7    1  0.6557591E-006  0.6951132E+02  0.7818608E-02  0.1404962E+00
          2   -1    0    0  502    0  0.00000000000E+00  0.00000000000E+00  0.10152298058E+04  0.10152298058E+04  0.00000000000E+00 0. -1.
          1   -1    0    0  501    0 -0.00000000000E+00 -0.00000000000E+00 -0.14751028077E+03  0.14751028077E+03  0.00000000000E+00 0. -1.
         25    2    1    2    0    0 -0.12883481415E+02 -0.18329868908E+02  0.24162015395E+03  0.27295892561E+03  0.12499723232E+03 0.  0.
          2    1    1    2  501    0  0.44701770374E+02  0.55531637284E+02 -0.12134471256E+03  0.14073574628E+03  0.00000000000E+00 0. -1.
          1    1    1    2  502    0 -0.31818288959E+02 -0.37201768376E+02  0.74744408362E+03  0.74904541466E+03  0.00000000000E+00 0. -1.
         22    1    3    3    0    0 -0.35669490395E+01 -0.66094402129E+02  0.78227331486E+02  0.10247296477E+03  0.00000000000E+00 0. -1.
         22    1    3    3    0    0 -0.93165323759E+01  0.47764533221E+02  0.16339282246E+03  0.17048596083E+03  0.00000000000E+00 0. -1.
</event>
<event>
 7    1  0.6557591E-006  0.1452929E+03  0.7818608E-02  0.1307243E+00
          2   -1    0    0  502    0  0.00000000000E+00  0.00000000000E+00  0.78167948021E+03  0.78167948021E+03  0.00000000000E+00 0. -1.
          1   -1    0    0  501    0 -0.00000000000E+00 -0.00000000000E+00 -0.24791245587E+03  0.24791245587E+03  0.00000000000E+00 0. -1.
         25    2    1    2    0    0 -0.10141431042E+03  0.15176448135E+03 -0.18275827190E+02  0.22198374504E+03  0.12500182816E+03 0.  0.
          2    1    1    2  501    0  0.58971570224E+02 -0.11910355483E+03 -0.91810326415E+02  0.16153154151E+03  0.00000000000E+00 0. -1.
          1    1    1    2  502    0  0.42442740199E+02 -0.32660926523E+02  0.64385317794E+03  0.64607664953E+03  0.00000000000E+00 0. -1.
         22    1    3    3    0    0  0.27126177145E+02  0.49369636088E+02 -0.11575102963E+02  0.57508029549E+02  0.00000000000E+00 0.  1.
         22    1    3    3    0    0 -0.12854048757E+03  0.10239484526E+03 -0.67007242276E+01  0.16447571549E+03  0.00000000000E+00 0.  1.
</event>
<event>
 7    1  0.6557591E-006  0.6413912E+02  0.7818608E-02  0.1424892E+00
          2   -1    0    0  502    0  0.00000000000E+00  0.00000000000E+00  0.52491749377E+03  0.52491749377E+03  0.00000000000E+00 0. -1.
          1   -1    0    0  501    0 -0.00000000000E+00 -0.00000000000E+00 -0.65447309781E+03  0.65447309781E+03  0.00000000000E+00 0. -1.
         25    2    1    2    0    0 -0.96896775322E+02 -0.78190977174E+01 -0.38873704086E+03  0.41975183011E+03  0.12499995436E+03 0.  0.
          2    1    1    2  501    0  0.36050484887E+02  0.27698093114E+02 -0.24612780251E+03  0.25029126431E+03  0.00000000000E+00 0. -1.
          1    1    1    2  502    0  0.60846290435E+02 -0.19878995396E+02  0.50530923933E+03  0.50934749717E+03  0.00000000000E+00 0. -1.
         22    1    3    3    0    0 -0.11736579179E+03 -0.36533494045E+02 -0.30988851282E+03  0.33337713726E+03  0.00000000000E+00 0.  1.
         22    1    3    3    0    0  0.20469016464E+02  0.28714396327E+02 -0.78848528036E+02  0.86374692850E+02  0.00000000000E+00 0.  1.
</event>
<event>
 7    1  0.6557591E-006  0.1296191E+03  0.7818608E-02  0.1417953E+00
          2   -1    0    0  502    0  0.00000000000E+00  0.00000000000E+00  0.20207977690E+03  0.20207977690E+03  0.00000000000E+00 0. -1.
          1   -1    0    0  501    0 -0.00000000000E+00 -0.00000000000E+00 -0.70265125064E+03  0.70265125064E+03  0.00000000000E+00 0. -1.
         25    2    1    2    0    0 -0.13452250382E+03 -0.70979232737E+02  0.74886933778E+02  0.21063349064E+03  0.12499623600E+03 0.  0.
          2    1    1    2  501    0  0.11507648759E+03  0.57385171586E+02 -0.62557163404E+03  0.63865133307E+03  0.00000000000E+00 0. -1.
          1    1    1    2  502    0  0.19446016229E+02  0.13594061150E+02  0.50113226528E+02  0.55446203827E+02  0.00000000000E+00 0. -1.
         22    1    3    3    0    0 -0.57277437861E+02  0.13528084137E+02  0.76016518432E+02  0.96136491630E+02  0.00000000000E+00 0.  1.
         22    1    3    3    0    0 -0.77245065961E+02 -0.84507316873E+02 -0.11295846540E+01  0.11449699901E+03  0.00000000000E+00 0.  1.
</event>
<event>
 7    1  0.6557591E-006  0.9977159E+02  0.7818608E-02  0.1294255E+00
          2   -1    0    0  502    0  0.00000000000E+00  0.00000000000E+00  0.18607300257E+04  0.18607300257E+04  0.00000000000E+00 0. -1.
          1   -1    0    0  501    0 -0.00000000000E+00 -0.00000000000E+00 -0.60749541159E+02  0.60749541159E+02  0.00000000000E+00 0. -1.
         25    2    1    2    0    0  0.42945975160E+01 -0.15433607021E+02  0.30443081693E+03  0.32948520893E+03  0.12500296323E+03 0.  0.
          2    1    1    2  501    0 -0.10284625642E+03 -0.12085119492E+00  0.10259283357E+02  0.10335676059E+03  0.00000000000E+00 0. -1.
          1    1    1    2  502    0  0.98551658905E+02  0.15554458216E+02  0.14852903842E+04  0.14886375973E+04  0.00000000000E+00 0. -1.
         22    1    3    3    0    0  0.54844566426E+02 -0.83447219254E+01  0.24472357355E+03  0.25093263698E+03  0.00000000000E+00 0. -1.
         22    1    3    3    0    0 -0.50549968910E+02 -0.70888850958E+01  0.59707243382E+02  0.78552571956E+02  0.00000000000E+00 0. -1.
</event>
<event>
 7    1  0.6557591E-006  0.1227379E+03  0.7818608E-02  0.1380682E+00
          2   -1    0    0  502    0  0.00000000000E+00  0.00000000000E+00  0.11553126438E+04  0.11553126438E+04  0.00000000000E+00 0. -1.
          1   -1    0    0  501    0 -0.00000000000E+00 -0.00000000000E+00 -0.18501004678E+03  0.18501004678E+03  0.00000000000E+00 0. -1.
         25    2    1    2    0    0  0.14491156615E+03  0.36327130711E+02  0.14685614090E+03  0.24394615558E+03  0.12499591303E+03 0.  0.
          2    1    1    2  501    0 -0.11823371160E+03 -0.15786124215E+02 -0.11003739246E+03  0.16228567410E+03  0.00000000000E+00 0. -1.
          1    1    1    2  502    0 -0.26677854544E+02 -0.20541006495E+02  0.93348384856E+03  0.93409086089E+03  0.00000000000E+00 0. -1.
         22    1    3    3    0    0  0.10831467223E+03 -0.35618132695E+02  0.83240127364E+02  0.14117237123E+03  0.00000000000E+00 0.  1.
         22    1    3    3    0    0  0.36596893919E+02  0.71945263406E+02  0.63616013535E+02  0.10277378435E+03  0.00000000000E+00 0.  1.
</event>
<event>
 7    1  0.6557591E-006  0.9257440E+02  0.7818608E-02  0.1303878E+00
          2   -1    0    0  502    0  0.00000000000E+00  0.00000000000E+00  0.14125273507E+04  0.14125273507E+04  0.00000000000E+00 0. -1.
          1   -1    0    0  501    0 -0.00000000000E+00 -0.00000000000E+00 -0.18334223420E+03  0.18334223420E+03  0.00000000000E+00 0. -1.
         25    2    1    2    0    0 -0.17328558234E+02 -0.22983237531E+02  0.95388078811E+02  0.15985011347E+03  0.12499866023E+03 0.  0.
          2    1    1    2  501    0  0.10249104194E+03  0.68467724439E+01 -0.13200002018E+03  0.16725817558E+03  0.00000000000E+00 0. -1.
          1    1    1    2  502    0 -0.85162483703E+02  0.16136465087E+02  0.12657970579E+04  0.12687612959E+04  0.00000000000E+00 0. -1.
         22    1    3    3    0    0  0.51104812196E+02  0.70498898184E+01  0.25571981560E+02  0.57578893850E+02  0.00000000000E+00 0.  1.
         22    1    3    3    0    0 -0.68433370430E+02 -0.30033127349E+02  0.69816097251E+02  0.10227121962E+03  0.00000000000E+00 0.  1.
</event>
<event>
 7    1  0.6557591E-006  0.1241756E+03  0.7818608E-02  0.1261113E+00
          2   -1    0    0  502    0  0.00000000000E+00  0.00000000000E+00  0.24293922801E+03  0.24293922801E+03  0.00000000000E+00 0. -1.
          1   -1    0    0  501    0 -0.00000000000E+00 -0.00000000000E+00 -0.87238948318E+03  0.87238948318E+03  0.00000000000E+00 0. -1.
         25    2    1    2    0    0 -0.16255008661E+03 -0.91138571759E+02 -0.44712877359E+03  0.50027776201E+03  0.12499971627E+03 0.  0.
          2    1    1    2  501    0  0.10873770666E+03  0.10524229159E+02 -0.37972957441E+03  0.39513187410E+03  0.00000000000E+00 0. -1.
          1    1    1    2  502    0  0.53812379946E+02  0.80614342600E+02  0.19740809284E+03  0.21991907508E+03  0.00000000000E+00 0. -1.
         22    1    3    3    0    0 -0.12054526626E+03 -0.84398727010E+02 -0.42988516709E+03  0.45437381442E+03  0.00000000000E+00 0. -1.
         22    1    3    3    0    0 -0.42004820346E+02 -0.67398447486E+01 -0.17243606497E+02  0.45903947592E+02  0.00000000000E+00 0. -1.
</event>
<event>
 7    1  0.6557591E-006  0.8789540E+02  0.7818608E-02  0.1312634E+00
          2   -1    0    0  502    0  0.00000000000E+00  0.00000000000E+00  0.15868983935E+04  0.15868983935E+04  0.00000000000E+00 0. -1.
          1   -1    0    0  501    0 -0.00000000000E+00 -0.00000000000E+00 -0.12025553420E+04  0.12025553420E+04  0.00000000000E+00 0. -1.
         25    2    1    2    0    0 -0.46909030856E+02 -0.36606578516E+02  0.55451882984E+03  0.57153881583E+03  0.12499994638E+03 0.  0.
          2    1    1    2  501    0  0.63186138258E+02 -0.61099215347E+02 -0.11900251085E+04  0.11932666764E+04  0.00000000000E+00 0. -1.
          1    1    1    2  502    0 -0.16277107402E+02  0.97705793863E+02  0.10198493301E+04  0.10246482433E+04  0.00000000000E+00 0. -1.
         22    1    3    3    0    0 -0.33738985745E+02  0.44411327959E+02  0.19903801426E+03  0.20670465967E+03  0.00000000000E+00 0. -1.
         22    1    3    3    0    0 -0.13170045111E+02 -0.81017906475E+02  0.35548081558E+03  0.36483415616E+03  0.00000000000E+00 0. -1.
</event>
<event>
 7    1  0.6557591E-006  0.2287365E+03  0.7818608E-02  0.1231891E+00
          2   -1    0    0  502    0  0.00000000000E+00  0.00000000000E+00  0.30209351623E+03  0.30209351623E+03  0.00000000000E+00 0. -1.
          1   -1    0    0  501    0 -0.00000000000E+00 -0.00000000000E+00 -0.51012775310E+03  0.51012775310E+03  0.00000000000E+00 0. -1.
         25    2    1    2    0    0 -0.67848890088E+02 -0.17499094452E+03 -0.10377136430E+03  0.24823427285E+03  0.12500582233E+03 0.  0.
          2    1    1    2  501    0  0.10322804187E+03  0.23605842192E+03 -0.27645180105E+03  0.37789576008E+03  0.00000000000E+00 0. -1.
          1    1    1    2  502    0 -0.35379151778E+02 -0.61067477392E+02  0.17218892848E+03  0.18609123641E+03  0.00000000000E+00 0. -1.
         22    1    3    3    0    0 -0.24993885488E+02 -0.11877018211E+03  0.15580735802E+01  0.12138153922E+03  0.00000000000E+00 0.  1.
         22    1    3    3    0    0 -0.42855004599E+02 -0.56220762418E+02 -0.10532943788E+03  0.12685273363E+03  0.00000000000E+00 0.  1.
</event>
<event>
 7    1  0.6557591E-006  0.1862736E+03  0.7818608E-02  0.1319842E+00
          2   -1    0    0  502    0  0.00000000000E+00  0.00000000000E+00  0.48799525693E+03  0.48799525693E+03  0.00000000000E+00 0. -1.
          1   -1    0    0  501    0 -0.00000000000E+00 -0.00000000000E+00 -0.35602057028E+03  0.35602057028E+03  0.00000000000E+00 0. -1.
         25    2    1    2    0    0  0.17088871080E+03  0.30367289969E+02 -0.72009546024E+02  0.22568641654E+03  0.12499544037E+03 0.  0.
          2    1    1    2  501    0  0.52211313862E+01  0.36916057677E+02 -0.18358907709E+03  0.18733660815E+03  0.00000000000E+00 0. -1.
          1    1    1    2  502    0 -0.17610984219E+03 -0.67283347646E+02  0.38757330976E+03  0.43099280252E+03  0.00000000000E+00 0. -1.
         22    1    3    3    0    0  0.11808522034E+03 -0.41042433713E+02 -0.44813200237E+02  0.13280370305E+03  0.00000000000E+00 0.  1.
         22    1    3    3    0    0  0.52803490460E+02  0.71409723683E+02 -0.27196345787E+02  0.92882713490E+02  0.00000000000E+00 0.  1.
</event>
<event>
 7    1  0.6557591E-006  0.8522377E+02  0.7818608E-02  0.1340227E+00
          2   -1    0    0  502    0  0.00000000000E+00  0.00000000000E+00  0.29534344965E+04  0.29534344965E+04  0.00000000000E+00 0. -1.
          1   -1    0    0  501    0 -0.00000000000E+00 -0.00000000000E+00 -0.80008120511E+03  0.80008120511E+03  0.00000000000E+00 0. -1.
         25    2    1    2    0    0 -0.28681091070E+02  0.91478507603E+01  0.23338737878E+03  0.26645985354E+03  0.12499958727E+03 0.  0.
          2    1    1    2  501    0 -0.17054729615E+02  0.65942898886E+02 -0.78134813916E+03  0.78431131848E+03  0.00000000000E+00 0. -1.
          1    1    1    2  502    0  0.45735820685E+02 -0.75090749647E+02  0.27013140517E+04  0.27027445296E+04  0.00000000000E+00 0. -1.
         22    1    3    3    0    0  0.43362052706E+02 -0.53476464268E+01  0.38702933844E+02  0.58367645364E+02  0.00000000000E+00 0.  1.
         22    1    3    3    0    0 -0.72043143777E+02  0.14495497187E+02  0.19468444494E+03  0.20809220818E+03  0.00000000000E+00 0.  1.
</event>
<event>
 7    1  0.6557591E-006  0.1016785E+03  0.7818608E-02  0.1396350E+00
          2   -1    0    0  502    0  0.00000000000E+00  0.00000000000E+00  0.22523897638E+04  0.22523897638E+04  0.00000000000E+00 0. -1.
          1   -1    0    0  501    0 -0.00000000000E+00 -0.00000000000E+00 -0.11150054942E+03  0.11150054942E+03  0.00000000000E+00 0. -1.
         25    2    1    2    0    0 -0.12365648943E+03 -0.24066580523E+01  0.50089600567E+03  0.53086522397E+03  0.12499743255E+03 0.  0.
          2    1    1    2  501    0  0.26233466648E+02  0.24398028699E+02 -0.91702308613E+02  0.98451876477E+02  0.00000000000E+00 0. -1.
          1    1    1    2  502    0  0.97423022785E+02 -0.21991370647E+02  0.17316955173E+04  0.17345732127E+04  0.00000000000E+00 0. -1.
         22    1    3    3    0    0 -0.53493079511E+02 -0.53411434170E+02  0.33760320302E+03  0.34596273433E+03  0.00000000000E+00 0.  1.
         22    1    3    3    0    0 -0.70163409922E+02  0.51004776117E+02  0.16329280265E+03  0.18490248964E+03  0.00000000000E+00 0.  1.
</event>
<event>
 7    1  0.6557591E-006  0.2756492E+02  0.7818608E-02  0.1644295E+00
          2   -1    0    0  502    0  0.00000000000E+00  0.00000000000E+00  0.23855140307E+03  0.23855140307E+03  0.00000000000E+00 0. -1.
          1   -1    0    0  501    0 -0.00000000000E+00 -0.00000000000E+00 -0.39269236701E+03  0.39269236701E+03  0.00000000000E+00 0. -1.
         25    2    1    2    0    0 -0.73941810150E+01 -0.28769784060E+02 -0.75332161514E+01  0.12870270918E+03  0.12500105447E+03 0.  0.
          2    1    1    2  501    0 -0.16607848810E+02  0.22108798879E+02 -0.32310936678E+03  0.32429042929E+03  0.00000000000E+00 0. -1.
          1    1    1    2  502    0  0.24002029825E+02  0.66609851816E+01  0.17650161899E+03  0.17825063160E+03  0.00000000000E+00 0. -1.
         22    1    3    3    0    0  0.41055575347E+02 -0.15242875784E+02 -0.47387806038E+02  0.64525263970E+02  0.00000000000E+00 0.  1.
         22    1    3    3    0    0 -0.48449756362E+02 -0.13526908276E+02  0.39854589887E+02  0.64177445213E+02  0.00000000000E+00 0.  1.
</event>
<event>
 7    1  0.6557591E-006  0.6069378E+02  0.7818608E-02  0.1460344E+00
          2   -1    0    0  502    0  0.00000000000E+00  0.00000000000E+00  0.38229104396E+02  0.38229104396E+02  0.00000000000E+00 0. -1.
          1   -1    0    0  501    0 -0.00000000000E+00 -0.00000000000E+00 -0.14133929524E+04  0.14133929524E+04  0.00000000000E+00 0. -1.
         25    2    1    2    0    0  0.16319778921E+02 -0.35691034600E+02 -0.30618128830E+03  0.33303711461E+03  0.12500621293E+03 0.  0.
          2    1    1    2  501    0 -0.23933911479E+02 -0.28080867574E+02 -0.10513314430E+04  0.10519786929E+04  0.00000000000E+00 0. -1.
          1    1    1    2  502    0  0.76141325583E+01  0.63771902173E+02 -0.17651116673E+02  0.66606249265E+02  0.00000000000E+00 0. -1.
         22    1    3    3    0    0  0.33902014129E+02 -0.77974483573E+02 -0.20769940106E+03  0.22442907087E+03  0.00000000000E+00 0. -1.
         22    1    3    3    0    0 -0.17582235208E+02  0.42283448973E+02 -0.98481887242E+02  0.10860804375E+03  0.00000000000E+00 0. -1.
</event>
<event>
 7    1  0.6557591E-006  0.1546366E+03  0.7818608E-02  0.1315250E+00
          2   -1    0    0  502    0  0.00000000000E+00  0.00000000000E+00  0.17148407015E+03  0.17148407015E+03  0.00000000000E+00 0. -1.
          1   -1    0    0  501    0 -0.00000000000E+00 -0.00000000000E+00 -0.46018320163E+03  0.46018320163E+03  0.00000000000E+00 0. -1.
         25    2    1    2    0    0  0.57168844670E+01  0.12461999637E+03 -0.11720536110E+03  0.21196206799E+03  0.12501198076E+03 0.  0.
          2    1    1    2  501    0 -0.25090061428E+02  0.39505369771E+02 -0.23726288842E+03  0.24183437234E+03  0.00000000000E+00 0. -1.
          1    1    1    2  502    0  0.19373176961E+02 -0.16412536614E+03  0.65769118031E+02  0.17787083145E+03  0.00000000000E+00 0. -1.
         22    1    3    3    0    0  0.60081211497E+02  0.98427912498E+02 -0.66322598103E+02  0.13302816601E+03  0.00000000000E+00 0. -1.
         22    1    3    3    0    0 -0.54364327030E+02  0.26192083870E+02 -0.50882762999E+02  0.78933901977E+02  0.00000000000E+00 0. -1.
</event>
<event>
 7    1  0.6557591E-006  0.4706098E+02  0.7818608E-02  0.1568260E+00
          2   -1    0    0  502    0  0.00000000000E+00  0.00000000000E+00  0.13362654838E+03  0.13362654838E+03  0.00000000000E+00 0. -1.
          1   -1    0    0  501    0 -0.00000000000E+00 -0.00000000000E+00 -0.13108124667E+03  0.13108124667E+03  0.00000000000E+00 0. -1.
         25    2    1    2    0    0  0.13959149635E+02  0.41481326680E+02 -0.32475959467E+02  0.13636517098E+03  0.12500085437E+03 0.  0.
          2    1    1    2  501    0  0.79670705628E+01 -0.48341261935E+02 -0.31311254951E+02  0.58144187202E+02  0.00000000000E+00 0. -1.
          1    1    1    2  502    0 -0.21926220198E+02  0.68599352547E+01  0.66332516118E+02  0.70198436866E+02  0.00000000000E+00 0. -1.
         22    1    3    3    0    0  0.42835108374E+02  0.71928328403E+02 -0.41507335473E+02  0.93441906200E+02  0.00000000000E+00 0.  1.
         22    1    3    3    0    0 -0.28875958739E+02 -0.30447001723E+02  0.90313760063E+01  0.42923264782E+02  0.00000000000E+00 0.  1.
</event>
<event>
 7    1  0.6557591E-006  0.3495969E+02  0.7818608E-02  0.1563574E+00
          2   -1    0    0  502    0  0.00000000000E+00  0.00000000000E+00  0.15885678874E+03  0.15885678874E+03  0.00000000000E+00 0. -1.
          1   -1    0    0  501    0 -0.00000000000E+00 -0.00000000000E+00 -0.84614621403E+03  0.84614621403E+03  0.00000000000E+00 0. -1.
         25    2    1    2    0    0  0.10627764018E+02  0.53008341740E+01 -0.10724787413E+03  0.16514550197E+03  0.12501952690E+03 0.  0.
          2    1    1    2  501    0 -0.10177257837E+02  0.30182277233E+02 -0.70716097493E+03  0.70787794916E+03  0.00000000000E+00 0. -1.
          1    1    1    2  502    0 -0.45050618081E+00 -0.35483111407E+02  0.12711942377E+03  0.13197955164E+03  0.00000000000E+00 0. -1.
         22    1    3    3    0    0  0.57205861045E+02 -0.17125295216E+02 -0.94690008418E+02  0.11194634415E+03  0.00000000000E+00 0.  1.
         22    1    3    3    0    0 -0.46578097028E+02  0.22426129390E+02 -0.12557865709E+02  0.53199157825E+02  0.00000000000E+00 0.  1.
</event>
<event>
 7    1  0.6557591E-006  0.1465808E+03  0.7818608E-02  0.1369535E+00
          2   -1    0    0  502    0  0.00000000000E+00  0.00000000000E+00  0.12158264891E+04  0.12158264891E+04  0.00000000000E+00 0. -1.
          1   -1    0    0  501    0 -0.00000000000E+00 -0.00000000000E+00 -0.73360303772E+03  0.73360303772E+03  0.00000000000E+00 0. -1.
         25    2    1    2    0    0  0.62488514192E+02  0.13374780911E+03 -0.19026435718E+03  0.27132679489E+03  0.12499765265E+03 0.  0.
          2    1    1    2  501    0  0.25936790246E+02 -0.16789021332E+02 -0.49775363306E+03  0.49871160759E+03  0.00000000000E+00 0. -1.
          1    1    1    2  502    0 -0.88425304438E+02 -0.11695878778E+03  0.11702414416E+04  0.11793911243E+04  0.00000000000E+00 0. -1.
         22    1    3    3    0    0  0.85395603118E+02  0.52714205156E+02 -0.14318163716E+03  0.17484901394E+03  0.00000000000E+00 0.  1.
         22    1    3    3    0    0 -0.22907088926E+02  0.81033603953E+02 -0.47082720017E+02  0.96477780949E+02  0.00000000000E+00 0.  1.
</event>
<event>
 7    1  0.6557591E-006  0.1072303E+03  0.7818608E-02  0.1446877E+00
          2   -1    0    0  502    0  0.00000000000E+00  0.00000000000E+00  0.19609777531E+04  0.19609777531E+04  0.00000000000E+00 0. -1.
          1   -1    0    0  501    0 -0.00000000000E+00 -0.00000000000E+00 -0.51319156951E+02  0.51319156951E+02  0.00000000000E+00 0. -1.
         25    2    1    2    0    0  0.78809625489E+02 -0.69732920535E+02  0.14764137471E+04  0.14854280489E+04  0.12500119457E+03 0.  0.
          2    1    1    2  501    0 -0.63296161558E+02  0.86781781055E+02  0.15542917416E+02  0.10853139579E+03  0.00000000000E+00 0. -1.
          1    1    1    2  502    0 -0.15513463931E+02 -0.17048860520E+02  0.41770193165E+03  0.41833746535E+03  0.00000000000E+00 0. -1.
         22    1    3    3    0    0  0.11080439963E+03 -0.35562759213E+02  0.10865713400E+04  0.10927852496E+04  0.00000000000E+00 0. -1.
         22    1    3    3    0    0 -0.31994774137E+02 -0.34170161323E+02  0.38984240711E+03  0.39264279934E+03  0.00000000000E+00 0. -1.
</event>
<event>
 7    1  0.6557591E-006  0.1194174E+03  0.7818608E-02  0.1368785E+00
          2   -1    0    0  502    0  0.00000000000E+00  0.00000000000E+00  0.20026653132E+04  0.20026653132E+04  0.00000000000E+00 0. -1.
          1   -1    0    0  501    0 -0.00000000000E+00 -0.00000000000E+00 -0.26852666669E+03  0.26852666669E+03  0.00000000000E+00 0. -1.
         25    2    1    2    0    0  0.82350513248E+02 -0.67497398412E+02  0.51504083591E+03  0.54058212966E+03  0.12499788169E+03 0.  0.
          2    1    1    2  501    0 -0.14866658812E+02 -0.35146001895E+02 -0.25175780850E+03  0.25463356639E+03  0.00000000000E+00 0. -1.
          1    1    1    2  502    0 -0.67483854436E+02  0.10264340031E+03  0.14708556191E+04  0.14759762838E+04  0.00000000000E+00 0. -1.
         22    1    3    3    0    0 -0.33388912262E+02 -0.15053332772E+02  0.98374302874E+02  0.10497107104E+03  0.00000000000E+00 0.  1.
         22    1    3    3    0    0  0.11573942551E+03 -0.52444065640E+02  0.41666653304E+03  0.43561105862E+03  0.00000000000E+00 0.  1.
</event>
<event>
 7    1  0.6557591E-006  0.5407106E+02  0.7818608E-02  0.1443536E+00
          2   -1    0    0  502    0  0.00000000000E+00  0.00000000000E+00  0.29192128707E+03  0.29192128707E+03  0.00000000000E+00 0. -1.
          1   -1    0    0  501    0 -0.00000000000E+00 -0.00000000000E+00 -0.24421996598E+04  0.24421996598E+04  0.00000000000E+00 0. -1.
         25    2    1    2    0    0  0.24193672381E+02 -0.69874322891E+01 -0.16315596894E+02  0.12855530944E+03  0.12500444348E+03 0.  0.
          2    1    1    2  501    0 -0.13468859669E+02  0.52603115864E+02 -0.23671217373E+04  0.23677444578E+04  0.00000000000E+00 0. -1.
          1    1    1    2  502    0 -0.10724812712E+02 -0.45615683575E+02  0.23315896146E+03  0.23782117968E+03  0.00000000000E+00 0. -1.
         22    1    3    3    0    0 -0.46333244849E+02  0.14176357816E+02 -0.24804908659E+02  0.54433649452E+02  0.00000000000E+00 0. -1.
         22    1    3    3    0    0  0.70526917229E+02 -0.21163790105E+02  0.84893117649E+01  0.74121659990E+02  0.00000000000E+00 0. -1.
</event>
<event>
 7    1  0.6557591E-006  0.8591442E+02  0.7818608E-02  0.1363551E+00
          2   -1    0    0  502    0  0.00000000000E+00  0.00000000000E+00  0.25156174650E+04  0.25156174650E+04  0.00000000000E+00 0. -1.
          1   -1    0    0  501    0 -0.00000000000E+00 -0.00000000000E+00 -0.12267219404E+04  0.12267219404E+04  0.00000000000E+00 0. -1.
         25    2    1    2    0    0  0.13407079699E+03 -0.18753162737E+02 -0.41188756270E+02  0.18878694995E+03  0.12496935269E+03 0.  0.
          2    1    1    2  501    0 -0.79678391860E+02  0.29294933720E+02 -0.11097985093E+04  0.11130406868E+04  0.00000000000E+00 0. -1.
          1    1    1    2  502    0 -0.54392405128E+02 -0.10541770983E+02  0.24398827902E+04  0.24405117686E+04  0.00000000000E+00 0. -1.
         22    1    3    3    0    0  0.15212757277E+03 -0.37668795210E+02 -0.43177746610E+02  0.16256092498E+03  0.00000000000E+00 0.  1.
         22    1    3    3    0    0 -0.18056775778E+02  0.18915632473E+02  0.19889903403E+01  0.26226024974E+02  0.00000000000E+00 0.  1.
</event>
<event>
 7    1  0.6557591E-006  0.1211634E+03  0.7818608E-02  0.1313017E+00
          2   -1    0    0  502    0  0.00000000000E+00  0.00000000000E+00  0.15301874432E+04  0.15301874432E+04  0.00000000000E+00 0. -1.
          1   -1    0    0  501    0 -0.00000000000E+00 -0.00000000000E+00 -0.78251194434E+03  0.78251194434E+03  0.00000000000E+00 0. -1.
         25    2    1    2    0    0 -0.60119807249E+02  0.95456676107E+02  0.34041641849E+02  0.17177766857E+03  0.12498946276E+03 0.  0.
          2    1    1    2  501    0  0.10789170427E+03 -0.57616781088E+02 -0.70774537216E+03  0.71823660804E+03  0.00000000000E+00 0. -1.
          1    1    1    2  502    0 -0.47771897017E+02 -0.37839895019E+02  0.14213792292E+04  0.14226851110E+04  0.00000000000E+00 0. -1.
         22    1    3    3    0    0 -0.27648261681E+02  0.11853778206E+03  0.46095113753E+02  0.13015525983E+03  0.00000000000E+00 0. -1.
         22    1    3    3    0    0 -0.32471545568E+02 -0.23081105957E+02 -0.12053471904E+02  0.41622408733E+02  0.00000000000E+00 0. -1.
</event>
<event>
 7    1  0.6557591E-006  0.8862506E+02  0.7818608E-02  0.1419164E+00
          2   -1    0    0  502    0  0.00000000000E+00  0.00000000000E+00  0.19886577038E+04  0.19886577038E+04  0.00000000000E+00 0. -1.
          1   -1    0    0  501    0 -0.00000000000E+00 -0.00000000000E+00 -0.23797139801E+03  0.23797139801E+03  0.00000000000E+00 0. -1.
         25    2    1    2    0    0  0.36118105309E+02  0.86008102345E+02  0.15720191063E+04  0.15797374491E+04  0.12499770529E+03 0.  0.
          2    1    1    2  501    0 -0.61982006606E+02 -0.63359165990E+02 -0.22496593165E+03  0.24179707083E+03  0.00000000000E+00 0. -1.
          1    1    1    2  502    0  0.25863901297E+02 -0.22648936355E+02  0.40363313114E+03  0.40509458187E+03  0.00000000000E+00 0. -1.
         22    1    3    3    0    0  0.72567662020E+02  0.93304365513E+02  0.12516577750E+04  0.12572266923E+04  0.00000000000E+00 0. -1.
         22    1    3    3    0    0 -0.36449556711E+02 -0.72962631681E+01  0.32036133134E+03  0.32251075681E+03  0.00000000000E+00 0. -1.
</event>
<event>
 7    1  0.6557591E-006  0.4892283E+02  0.7818608E-02  0.1486728E+00
          2   -1    0    0  502    0  0.00000000000E+00  0.00000000000E+00  0.11374109429E+04  0.11374109429E+04  0.00000000000E+00 0. -1.
          1   -1    0    0  501    0 -0.00000000000E+00 -0.00000000000E+00 -0.97188123922E+02  0.97188123922E+02  0.00000000000E+00 0. -1.
         25    2    1    2    0    0  0.32229140785E+02  0.22510575195E+01 -0.94488444857E+01  0.12945395548E+03  0.12500104460E+03 0.  0.
          2    1    1    2  501    0  0.16215763214E+01 -0.37891805014E+02 -0.13933329293E+02  0.40404901462E+02  0.00000000000E+00 0. -1.
          1    1    1    2  502    0 -0.33850717107E+02  0.35640747494E+02  0.10636049928E+04  0.10647402099E+04  0.00000000000E+00 0. -1.
         22    1    3    3    0    0  0.73628616072E+02 -0.25437820559E+02 -0.15033234673E+02  0.79336334452E+02  0.00000000000E+00 0. -1.
         22    1    3    3    0    0 -0.41399475287E+02  0.27688878079E+02  0.55843901868E+01  0.50117621023E+02  0.00000000000E+00 0. -1.
</event>
<event>
 7    1  0.6557591E-006  0.8639453E+02  0.7818608E-02  0.1361223E+00
          2   -1    0    0  502    0  0.00000000000E+00  0.00000000000E+00  0.30756450680E+03  0.30756450680E+03  0.00000000000E+00 0. -1.
          1   -1    0    0  501    0 -0.00000000000E+00 -0.00000000000E+00 -0.27196299943E+03  0.27196299943E+03  0.00000000000E+00 0. -1.
         25    2    1    2    0    0 -0.60802000261E+02  0.45785997151E+02 -0.15336744809E+03  0.21199112447E+03  0.12500168779E+03 0.  0.
          2    1    1    2  501    0  0.40234838351E+02  0.39210734949E+02 -0.72563772556E+02  0.91770502014E+02  0.00000000000E+00 0. -1.
          1    1    1    2  502    0  0.20567161910E+02 -0.84996732100E+02  0.26153272801E+03  0.27576587976E+03  0.00000000000E+00 0. -1.
         22    1    3    3    0    0 -0.65829724225E+02 -0.16327785973E+02 -0.30797518544E+02  0.74489169245E+02  0.00000000000E+00 0. -1.
         22    1    3    3    0    0  0.50277239636E+01  0.62113783123E+02 -0.12256992954E+03  0.13750195522E+03  0.00000000000E+00 0. -1.
</event>
<event>
 7    1  0.6557591E-006  0.4137879E+02  0.7818608E-02  0.1500229E+00
          2   -1    0    0  502    0  0.00000000000E+00  0.00000000000E+00  0.48327760844E+02  0.48327760844E+02  0.00000000000E+00 0. -1.
          1   -1    0    0  501    0 -0.00000000000E+00 -0.00000000000E+00 -0.45410319966E+03  0.45410319966E+03  0.00000000000E+00 0. -1.
         25    2    1    2    0    0  0.34168761555E+02 -0.11679701290E+02 -0.17747801099E+03  0.22006326411E+03  0.12500190454E+03 0.  0.
          2    1    1    2  501    0 -0.77373119196E+01  0.42805638474E+02 -0.23671177489E+03  0.24067541016E+03  0.00000000000E+00 0. -1.
          1    1    1    2  502    0 -0.26431449635E+02 -0.31125937184E+02  0.84143470651E+01  0.41692286240E+02  0.00000000000E+00 0. -1.
         22    1    3    3    0    0 -0.93306321226E+01  0.15162341842E+02 -0.16692378042E+03  0.16787050300E+03  0.00000000000E+00 0. -1.
         22    1    3    3    0    0  0.43499393677E+02 -0.26842043132E+02 -0.10554230569E+02  0.52192761114E+02  0.00000000000E+00 0. -1.
</event>
<event>
 7    1  0.6557591E-006  0.5118488E+02  0.7818608E-02  0.1471006E+00
          2   -1    0    0  502    0  0.00000000000E+00  0.00000000000E+00  0.88165090333E+03  0.88165090333E+03  0.00000000000E+00 0. -1.
          1   -1    0    0  501    0 -0.00000000000E+00 -0.00000000000E+00 -0.50059022900E+02  0.50059022900E+02  0.00000000000E+00 0. -1.
         25    2    1    2    0    0  0.57414030627E+02  0.67514027114E+02  0.35901046599E+03  0.39034197496E+03  0.12499531174E+03 0.  0.
          2    1    1    2  501    0 -0.25849570343E+02 -0.42113347207E+02 -0.15360928481E+02  0.51746424260E+02  0.00000000000E+00 0. -1.
          1    1    1    2  502    0 -0.31564460284E+02 -0.25400679907E+02  0.48794234293E+03  0.48962152701E+03  0.00000000000E+00 0. -1.
         22    1    3    3    0    0  0.92301971230E+02  0.22343862830E+02  0.24701717397E+03  0.26464388588E+03  0.00000000000E+00 0.  1.
         22    1    3    3    0    0 -0.34887940603E+02  0.45170164283E+02  0.11199329202E+03  0.12569808908E+03  0.00000000000E+00 0.  1.
</event>
<event>
 7    1  0.6557591E-006  0.8416921E+02  0.7818608E-02  0.1390955E+00
          2   -1    0    0  502    0  0.00000000000E+00  0.00000000000E+00  0.42471165013E+03  0.42471165013E+03  0.00000000000E+00 0. -1.
          1   -1    0    0  501    0 -0.00000000000E+00 -0.00000000000E+00 -0.94086545774E+03  0.94086545774E+03  0.00000000000E+00 0. -1.
         25    2    1    2    0    0 -0.76201617275E+02  0.13289001681E+02 -0.38988463017E+03  0.41666782289E+03  0.12497506048E+03 0.  0.
          2    1    1    2  501    0 -0.19219198674E+01 -0.45143827037E+02 -0.53229564292E+03  0.53420998714E+03  0.00000000000E+00 0. -1.
          1    1    1    2  502    0  0.78123537143E+02  0.31854825355E+02  0.40602646548E+03  0.41469929784E+03  0.00000000000E+00 0. -1.
         22    1    3    3    0    0  0.33446641170E+02  0.15997156300E+02 -0.88894437906E+02  0.96316187144E+02  0.00000000000E+00 0. -1.
         22    1    3    3    0    0 -0.10964825845E+03 -0.27081546189E+01 -0.30099019227E+03  0.32035163574E+03  0.00000000000E+00 0. -1.
</event>
<event>
 7    1  0.6557591E-006  0.2977833E+02  0.7818608E-02  0.1605098E+00
          2   -1    0    0  502    0  0.00000000000E+00  0.00000000000E+00  0.16720018483E+04  0.16720018483E+04  0.00000000000E+00 0. -1.
          1   -1    0    0  501    0 -0.00000000000E+00 -0.00000000000E+00 -0.54524168946E+03  0.54524168946E+03  0.00000000000E+00 0. -1.
         25    2    1    2    0    0 -0.10179791957E+02 -0.32168471045E+02  0.37966914310E+03  0.40114021514E+03  0.12500550100E+03 0.  0.
          2    1    1    2  501    0  0.27850162753E+02  0.80051619745E+01 -0.53393841608E+03  0.53472417783E+03  0.00000000000E+00 0. -1.
          1    1    1    2  502    0 -0.17670370796E+02  0.24163309071E+02  0.12810294318E+04  0.12813791448E+04  0.00000000000E+00 0. -1.
         22    1    3    3    0    0  0.23820336273E+02 -0.71309656490E+02  0.18520702527E+03  0.19988526143E+03  0.00000000000E+00 0.  1.
         22    1    3    3    0    0 -0.34000128231E+02  0.39141185445E+02  0.19446211784E+03  0.20125495371E+03  0.00000000000E+00 0.  1.
</event>
<event>
 7    1  0.6557591E-006  0.3297816E+02  0.7818608E-02  0.1573792E+00
          2   -1    0    0  502    0  0.00000000000E+00  0.00000000000E+00  0.32385655803E+03  0.32385655803E+03  0.00000000000E+00 0. -1.
          1   -1    0    0  501    0 -0.00000000000E+00 -0.00000000000E+00 -0.14154626929E+03  0.14154626929E+03  0.00000000000E+00 0. -1.
         25    2    1    2    0    0 -0.13151980901E+01 -0.22011399279E+02  0.22478579512E+02  0.12890527301E+03  0.12500020571E+03 0.  0.
          2    1    1    2  501    0 -0.29836816898E+02  0.16298500871E+02 -0.83999020734E+02  0.90618498429E+02  0.00000000000E+00 0. -1.
          1    1    1    2  502    0  0.31152014988E+02  0.57128984081E+01  0.24383072996E+03  0.24587905588E+03  0.00000000000E+00 0. -1.
         22    1    3    3    0    0 -0.37616110135E+02 -0.82894222498E+01  0.62335335328E+02  0.73276055389E+02  0.00000000000E+00 0.  1.
         22    1    3    3    0    0  0.36300912045E+02 -0.13721977030E+02 -0.39856755816E+02  0.55629217621E+02  0.00000000000E+00 0.  1.
</event>
<event>
 7    1  0.6557591E-006  0.8235676E+02  0.7818608E-02  0.1360376E+00
          2   -1    0    0  502    0  0.00000000000E+00  0.00000000000E+00  0.20247873066E+04  0.20247873066E+04  0.00000000000E+00 0. -1.
          1   -1    0    0  501    0 -0.00000000000E+00 -0.00000000000E+00 -0.30935917242E+03  0.30935917242E+03  0.00000000000E+00 0. -1.
         25    2    1    2    0    0  0.87139360763E+02 -0.17177145243E+02  0.64081638578E+03  0.65890786460E+03  0.12500244494E+03 0.  0.
          2    1    1    2  501    0 -0.72013149989E+02 -0.40219274215E+02 -0.29399435975E+03  0.30534597976E+03  0.00000000000E+00 0. -1.
          1    1    1    2  502    0 -0.15126210774E+02  0.57396419458E+02  0.13686061081E+04  0.13698926346E+04  0.00000000000E+00 0. -1.
         22    1    3    3    0    0  0.83367790751E+02 -0.30380176736E+02  0.63891355893E+03  0.64504548634E+03  0.00000000000E+00 0. -1.
         22    1    3    3    0    0  0.37715700119E+01  0.13203031493E+02  0.19028268511E+01  0.13862378259E+02  0.00000000000E+00 0. -1.
</event>
<event>
 7    1  0.6557591E-006  0.1212068E+03  0.7818608E-02  0.1275043E+00
          2   -1    0    0  502    0  0.00000000000E+00  0.00000000000E+00  0.30138234480E+04  0.30138234480E+04  0.00000000000E+00 0. -1.
          1   -1    0    0  501    0 -0.00000000000E+00 -0.00000000000E+00 -0.86678412421E+02  0.86678412421E+02  0.00000000000E+00 0. -1.
         25    2    1    2    0    0  0.15526417814E+03 -0.42376500587E+02  0.73242110068E+03  0.76024552712E+03  0.12501943836E+03 0.  0.
          2    1    1    2  501    0 -0.11499732290E+03 -0.34459866100E+02 -0.21819340740E+02  0.12201618858E+03  0.00000000000E+00 0. -1.
          1    1    1    2  502    0 -0.40266855243E+02  0.76836366686E+02  0.22165432756E+04  0.22182401447E+04  0.00000000000E+00 0. -1.
         22    1    3    3    0    0 -0.94489517168E+01 -0.31705349838E+02  0.67884764508E+02  0.75517237431E+02  0.00000000000E+00 0.  1.
         22    1    3    3    0    0  0.16471312986E+03 -0.10671150749E+02  0.66453633617E+03  0.68472828969E+03  0.00000000000E+00 0.  1.
</event>
<event>
 7    1  0.1108883E-005  0.9025254E+02  0.7818608E-02  0.1347853E+00
          2   -1    0    0  502    0  0.00000000000E+00  0.00000000000E+00  0.14495803976E+04  0.14495803976E+04  0.00000000000E+00 0. -1.
          1   -1    0    0  501    0 -0.00000000000E+00 -0.00000000000E+00 -0.91902914958E+03  0.91902914958E+03  0.00000000000E+00 0. -1.
         25    2    1    2    0    0 -0.10006480732E+03  0.55677276117E+02 -0.66852100083E+02  0.18223022515E+03  0.12500290770E+03 0.  0.
          2    1    1    2  501    0  0.99789478063E+01 -0.59398273496E+02 -0.79188303162E+03  0.79417030294E+03  0.00000000000E+00 0. -1.
          1    1    1    2  502    0  0.90085859514E+02  0.37209973789E+01  0.13892863798E+04  0.13922090191E+04  0.00000000000E+00 0. -1.
         22    1    3    3    0    0 -0.36552635315E+02  0.78243560861E+02 -0.74943117057E+02  0.11434430794E+03  0.00000000000E+00 0. -1.
         22    1    3    3    0    0 -0.63512172006E+02 -0.22566284744E+02  0.80910169737E+01  0.67885917212E+02  0.00000000000E+00 0. -1.
</event>
<event>
 7    1  0.6557591E-006  0.7746908E+02  0.7818608E-02  0.1373985E+00
          2   -1    0    0  502    0  0.00000000000E+00  0.00000000000E+00  0.92635356921E+03  0.92635356921E+03  0.00000000000E+00 0. -1.
          1   -1    0    0  501    0 -0.00000000000E+00 -0.00000000000E+00 -0.35419162779E+02  0.35419162779E+02  0.00000000000E+00 0. -1.
         25    2    1    2    0    0  0.92170504650E+01 -0.47038435628E+02  0.44554336406E+03  0.46522092755E+03  0.12499621484E+03 0.  0.
          2    1    1    2  501    0 -0.65261491211E+02  0.52909530258E+02  0.51270875321E+02  0.98423489490E+02  0.00000000000E+00 0. -1.
          1    1    1    2  502    0  0.56044440746E+02 -0.58710946295E+01  0.39412016705E+03  0.39812831495E+03  0.00000000000E+00 0. -1.
         22    1    3    3    0    0  0.44158325453E+02  0.69298508127E+01  0.62613087917E+02  0.76931003617E+02  0.00000000000E+00 0.  1.
         22    1    3    3    0    0 -0.34941274988E+02 -0.53968286441E+02  0.38293027614E+03  0.38828992393E+03  0.00000000000E+00 0.  1.
</event>
<event>
 7    1  0.6557591E-006  0.5823497E+02  0.7818608E-02  0.1421714E+00
          2   -1    0    0  502    0  0.00000000000E+00  0.00000000000E+00  0.13238198477E+04  0.13238198477E+04  0.00000000000E+00 0. -1.
          1   -1    0    0  501    0 -0.00000000000E+00 -0.00000000000E+00 -0.49595212328E+02  0.49595212328E+02  0.00000000000E+00 0. -1.
         25    2    1    2    0    0 -0.83989536926E+02 -0.29572655524E+02  0.14457518705E+03  0.21084613309E+03  0.12500129144E+03 0.  0.
          2    1    1    2  501    0  0.27756757096E+02  0.43147455397E+02  0.26205404474E+02  0.57609579892E+02  0.00000000000E+00 0. -1.
          1    1    1    2  502    0  0.56232779830E+02 -0.13574799872E+02  0.11034440439E+04  0.11049593471E+04  0.00000000000E+00 0. -1.
         22    1    3    3    0    0 -0.35671679329E+02 -0.76401463464E+02  0.96507389094E+02  0.12815353478E+03  0.00000000000E+00 0. -1.
         22    1    3    3    0    0 -0.48317857597E+02  0.46828807940E+02  0.48067797956E+02  0.82692598316E+02  0.00000000000E+00 0. -1.
</event>
<event>
 7    1  0.6557591E-006  0.1212261E+03  0.7818608E-02  0.1293598E+00
          2   -1    0    0  502    0  0.00000000000E+00  0.00000000000E+00  0.14440398177E+04  0.14440398177E+04  0.00000000000E+00 0. -1.
          1   -1    0    0  501    0 -0.00000000000E+00 -0.00000000000E+00 -0.27382006148E+02  0.27382006148E+02  0.00000000000E+00 0. -1.
         25    2    1    2    0    0 -0.58724919227E+01 -0.72614202262E+02  0.32148085934E+03  0.35253378526E+03  0.12499127288E+03 0.  0.
          2    1    1    2  501    0  0.37014214530E+02 -0.62670149755E+02  0.19639549684E+03  0.20944877877E+03  0.00000000000E+00 0. -1.
          1    1    1    2  502    0 -0.31141722607E+02  0.13528435202E+03  0.89878145541E+03  0.90943925986E+03  0.00000000000E+00 0. -1.
         22    1    3    3    0    0  0.38813336545E+02  0.14580670025E+02  0.56974183102E+02  0.70463668456E+02  0.00000000000E+00 0.  1.
         22    1    3    3    0    0 -0.44685828468E+02 -0.87194872287E+02  0.26450667624E+03  0.28207011681E+03  0.00000000000E+00 0.  1.
</event>
<event>
 7    1  0.6557591E-006  0.6415132E+02  0.7818608E-02  0.1421938E+00
          2   -1    0    0  502    0  0.00000000000E+00  0.00000000000E+00  0.15821290274E+04  0.15821290274E+04  0.00000000000E+00 0. -1.
          1   -1    0    0  501    0 -0.00000000000E+00 -0.00000000000E+00 -0.50249516063E+02  0.50249516063E+02  0.00000000000E+00 0. -1.
         25    2    1    2    0    0 -0.73804143585E+02 -0.45510153017E+02  0.57795918812E+03  0.59764411762E+03  0.12499377003E+03 0.  0.
          2    1    1    2  501    0  0.45259913540E+02 -0.10635828407E+02 -0.25678528557E+02  0.53112780462E+02  0.00000000000E+00 0. -1.
          1    1    1    2  502    0  0.28544230045E+02  0.56145981423E+02  0.97959885180E+03  0.98162164541E+03  0.00000000000E+00 0. -1.
         22    1    3    3    0    0 -0.55744461124E+02  0.35970653701E+02  0.20526955987E+03  0.21572418752E+03  0.00000000000E+00 0. -1.
         22    1    3    3    0    0 -0.18059682461E+02 -0.81480806718E+02  0.37268962825E+03  0.38191993009E+03  0.00000000000E+00 0. -1.
</event>
<event>
 7    1  0.6557591E-006  0.3185230E+02  0.7818608E-02  0.1586389E+00
          2   -1    0    0  502    0  0.00000000000E+00  0.00000000000E+00  0.13100599640E+04  0.13100599640E+04  0.00000000000E+00 0. -1.
          1   -1    0    0  501    0 -0.00000000000E+00 -0.00000000000E+00 -0.48634159015E+02  0.48634159015E+02  0.00000000000E+00 0. -1.
         25    2    1    2    0    0  0.53907976580E+01  0.18491066694E+02  0.16439732818E+03  0.20741906161E+03  0.12500082142E+03 0.  0.
          2    1    1    2  501    0  0.24738411070E+02 -0.22039164595E+02 -0.16721284807E+02  0.37112196431E+02  0.00000000000E+00 0. -1.
          1    1    1    2  502    0 -0.30129208728E+02  0.35480979013E+01  0.11137497616E+04  0.11141628650E+04  0.00000000000E+00 0. -1.
         22    1    3    3    0    0 -0.48510345440E+02 -0.19244161255E+02  0.11108905640E+03  0.12273699446E+03  0.00000000000E+00 0. -1.
         22    1    3    3    0    0  0.53901143098E+02  0.37735227949E+02  0.53308271789E+02  0.84682067150E+02  0.00000000000E+00 0. -1.
</event>
<event>
 7    1  0.6557591E-006  0.8813173E+02  0.7818608E-02  0.1340146E+00
          2   -1    0    0  502    0  0.00000000000E+00  0.00000000000E+00  0.22622323259E+04  0.22622323259E+04  0.00000000000E+00 0. -1.
          1   -1    0    0  501    0 -0.00000000000E+00 -0.00000000000E+00 -0.24514969184E+03  0.24514969184E+03  0.00000000000E+00 0. -1.
         25    2    1    2    0    0  0.28300204485E+02 -0.32936405126E+02 -0.97873655475E+02  0.16458516309E+03  0.12499326029E+03 0.  0.
          2    1    1    2  501    0  0.46142152743E+02  0.80112006434E+02 -0.94139230775E+02  0.13194402831E+03  0.00000000000E+00 0. -1.
          1    1    1    2  502    0 -0.74442357228E+02 -0.47175601308E+02  0.22090955203E+04  0.22108528264E+04  0.00000000000E+00 0. -1.
         22    1    3    3    0    0  0.61849861414E+02 -0.38025890326E+02 -0.10712722067E+03  0.12941257705E+03  0.00000000000E+00 0. -1.
         22    1    3    3    0    0 -0.33549656929E+02  0.50894852004E+01  0.92535651925E+01  0.35172586036E+02  0.00000000000E+00 0. -1.
</event>
<event>
 7    1  0.6557591E-006  0.6115488E+02  0.7818608E-02  0.1512772E+00
          2   -1    0    0  502    0  0.00000000000E+00  0.00000000000E+00  0.46928759193E+03  0.46928759193E+03  0.00000000000E+00 0. -1.
          1   -1    0    0  501    0 -0.00000000000E+00 -0.00000000000E+00 -0.12285914746E+04  0.12285914746E+04  0.00000000000E+00 0. -1.
         25    2    1    2    0    0  0.81311745219E+02 -0.10285789787E+02 -0.38300287673E+02  0.15430261435E+03  0.12499994951E+03 0.  0.
          2    1    1    2  501    0 -0.60715653435E+02 -0.45228480232E+01 -0.11310793722E+04  0.11327168194E+04  0.00000000000E+00 0. -1.
          1    1    1    2  502    0 -0.20596091783E+02  0.14808637810E+02  0.41007577723E+03  0.41085963275E+03  0.00000000000E+00 0. -1.
         22    1    3    3    0    0 -0.11733317149E+01  0.48161911933E+02 -0.86125777771E+01  0.48939993506E+02  0.00000000000E+00 0.  1.
         22    1    3    3    0    0  0.82485076934E+02 -0.58447701720E+02 -0.29687709896E+02  0.10536262085E+03  0.00000000000E+00 0.  1.
</event>
<event>
 7    1  0.6557591E-006  0.1104965E+03  0.7818608E-02  0.1340926E+00
          2   -1    0    0  502    0  0.00000000000E+00  0.00000000000E+00  0.61982475599E+03  0.61982475599E+03  0.00000000000E+00 0. -1.
          1   -1    0    0  501    0 -0.00000000000E+00 -0.00000000000E+00 -0.56856656952E+03  0.56856656952E+03  0.00000000000E+00 0. -1.
         25    2    1    2    0    0 -0.11694042248E+03 -0.10568523912E+03 -0.61338762623E+02  0.21031580710E+03  0.12500345091E+03 0.  0.
          2    1    1    2  501    0  0.73143958995E+02  0.77251162745E+02 -0.42491647096E+03  0.43803172051E+03  0.00000000000E+00 0. -1.
          1    1    1    2  502    0  0.43796463482E+02  0.28434076379E+02  0.53751342005E+03  0.54004379789E+03  0.00000000000E+00 0. -1.
         22    1    3    3    0    0 -0.16412517183E+02 -0.93388411280E+02 -0.53169825958E+02  0.10870968896E+03  0.00000000000E+00 0. -1.
         22    1    3    3    0    0 -0.10052790529E+03 -0.12296827844E+02 -0.81689366652E+01  0.10160611814E+03  0.00000000000E+00 0. -1.
</event>
<event>
 7    1  0.6557591E-006  0.1597487E+03  0.7818608E-02  0.1244575E+00
          2   -1    0    0  502    0  0.00000000000E+00  0.00000000000E+00  0.60475082471E+03  0.60475082471E+03  0.00000000000E+00 0. -1.
          1   -1    0    0  501    0 -0.00000000000E+00 -0.00000000000E+00 -0.25225108301E+03  0.25225108301E+03  0.00000000000E+00 0. -1.
         25    2    1    2    0    0  0.13662299466E+03 -0.48864451206E+02  0.17484152482E+03  0.25932274696E+03  0.12500060411E+03 0.  0.
          2    1    1    2  501    0  0.33851498648E+02  0.82102515813E+02 -0.17964568381E+03  0.20039790112E+03  0.00000000000E+00 0. -1.
          1    1    1    2  502    0 -0.17047449331E+03 -0.33238064607E+02  0.35730390070E+03  0.39728125964E+03  0.00000000000E+00 0. -1.
         22    1    3    3    0    0 -0.13387445745E+02 -0.17283206331E+02 -0.55861714130E+01  0.22564091733E+02  0.00000000000E+00 0. -1.
         22    1    3    3    0    0  0.15001044040E+03 -0.31581244875E+02  0.18042769623E+03  0.23675865523E+03  0.00000000000E+00 0. -1.
</event>
<event>
 7    1  0.6557591E-006  0.7678965E+02  0.7818608E-02  0.1465681E+00
          2   -1    0    0  502    0  0.00000000000E+00  0.00000000000E+00  0.78498615311E+03  0.78498615311E+03  0.00000000000E+00 0. -1.
          1   -1    0    0  501    0 -0.00000000000E+00 -0.00000000000E+00 -0.18926976692E+03  0.18926976692E+03  0.00000000000E+00 0. -1.
         25    2    1    2    0    0 -0.27346299469E+02 -0.49526747539E+02 -0.10661476935E+02  0.13762203673E+03  0.12500175633E+03 0.  0.
          2    1    1    2  501    0  0.25471501532E+02  0.77522496299E+02 -0.10035560052E+03  0.12934365612E+03  0.00000000000E+00 0. -1.
          1    1    1    2  502    0  0.18747979368E+01 -0.27995748760E+02  0.70673346365E+03  0.70729022718E+03  0.00000000000E+00 0. -1.
         22    1    3    3    0    0 -0.44642074385E+02 -0.24653731861E+02  0.48991504491E+02  0.70716962692E+02  0.00000000000E+00 0. -1.
         22    1    3    3    0    0  0.17295774916E+02 -0.24873015678E+02 -0.59652981426E+02  0.66905074037E+02  0.00000000000E+00 0. -1.
</event>
<event>
 7    1  0.6557591E-006  0.6776958E+02  0.7818608E-02  0.1449679E+00
          2   -1    0    0  502    0  0.00000000000E+00  0.00000000000E+00  0.77824713659E+03  0.77824713659E+03  0.00000000000E+00 0. -1.
          1   -1    0    0  501    0 -0.00000000000E+00 -0.00000000000E+00 -0.43962222395E+03  0.43962222395E+03  0.00000000000E+00 0. -1.
         25    2    1    2    0    0  0.50292587193E+02  0.61142910815E+02 -0.39800247038E+02  0.15322352395E+03  0.12500235501E+03 0.  0.
          2    1    1    2  501    0 -0.14885874521E+02 -0.65905610820E+02 -0.33933546138E+03  0.34599666783E+03  0.00000000000E+00 0. -1.
          1    1    1    2  502    0 -0.35406712672E+02  0.47627000046E+01  0.71776062106E+03  0.71864916876E+03  0.00000000000E+00 0. -1.
         22    1    3    3    0    0  0.92239634066E+02  0.40705706052E+02 -0.32905698965E+02  0.10605606829E+03  0.00000000000E+00 0.  1.
         22    1    3    3    0    0 -0.41947046873E+02  0.20437204763E+02 -0.68945480733E+01  0.47167455655E+02  0.00000000000E+00 0.  1.
</event>
<event>
 7    1  0.6557591E-006  0.1101529E+03  0.7818608E-02  0.1353213E+00
          2   -1    0    0  502    0  0.00000000000E+00  0.00000000000E+00  0.23276492783E+04  0.23276492783E+04  0.00000000000E+00 0. -1.
          1   -1    0    0  501    0 -0.00000000000E+00 -0.00000000000E+00 -0.31949941151E+04  0.31949941151E+04  0.00000000000E+00 0. -1.
         25    2    1    2    0    0 -0.76452065630E+02  0.19884909360E+02  0.43987706403E+02  0.15427091917E+03  0.12499708088E+03 0.  0.
          2    1    1    2  501    0  0.10967735320E+03  0.13562614646E+02 -0.31386305568E+04  0.31405755584E+04  0.00000000000E+00 0. -1.
          1    1    1    2  502    0 -0.33225287574E+02 -0.33447524006E+02  0.22272980136E+04  0.22277969158E+04  0.00000000000E+00 0. -1.
         22    1    3    3    0    0  0.22013492251E+02  0.28286379752E+02 -0.15361144756E+02  0.38995870150E+02  0.00000000000E+00 0. -1.
         22    1    3    3    0    0 -0.98465557881E+02 -0.84014703925E+01  0.59348851159E+02  0.11527504902E+03  0.00000000000E+00 0. -1.
</event>
<event>
 7    1  0.6557591E-006  0.1030595E+03  0.7818608E-02  0.1276323E+00
          2   -1    0    0  502    0  0.00000000000E+00  0.00000000000E+00  0.21661093383E+04  0.21661093383E+04  0.00000000000E+00 0. -1.
          1   -1    0    0  501    0 -0.00000000000E+00 -0.00000000000E+00 -0.24917691062E+03  0.24917691062E+03  0.00000000000E+00 0. -1.
         25    2    1    2    0    0 -0.82805804593E+01  0.27822460822E+01  0.19710278113E+03  0.23356001113E+03  0.12499785424E+03 0.  0.
          2    1    1    2  501    0  0.10495084919E+02 -0.10581795937E+03 -0.21726507018E+03  0.24189191399E+03  0.00000000000E+00 0. -1.
          1    1    1    2  502    0 -0.22145044601E+01  0.10303571329E+03  0.19370947167E+04  0.19398343238E+04  0.00000000000E+00 0. -1.
         22    1    3    3    0    0  0.30130750513E+02  0.71650652448E+01 -0.17148863424E+01  0.31018399727E+02  0.00000000000E+00 0. -1.
         22    1    3    3    0    0 -0.38411330972E+02 -0.43828191626E+01  0.19881766747E+03  0.20254161140E+03  0.00000000000E+00 0. -1.
</event>
<event>
 7    1  0.6557591E-006  0.5846373E+02  0.7818608E-02  0.1425003E+00
          2   -1    0    0  502    0  0.00000000000E+00  0.00000000000E+00  0.10113841136E+04  0.10113841136E+04  0.00000000000E+00 0. -1.
          1   -1    0    0  501    0 -0.00000000000E+00 -0.00000000000E+00 -0.86131966491E+02  0.86131966491E+02  0.00000000000E+00 0. -1.
         25    2    1    2    0    0 -0.68501452882E+02 -0.64530532116E+02  0.38172515480E+03  0.41254791598E+03  0.12500020221E+03 0.  0.
          2    1    1    2  501    0  0.55274489684E+02  0.16484724286E+02 -0.57754746256E+02  0.81624910779E+02  0.00000000000E+00 0. -1.
          1    1    1    2  502    0  0.13226963199E+02  0.48045807830E+02  0.60128173855E+03  0.60334325332E+03  0.00000000000E+00 0. -1.
         22    1    3    3    0    0 -0.82113836207E+02 -0.23932542619E+02  0.34709432981E+03  0.35747716358E+03  0.00000000000E+00 0.  1.
         22    1    3    3    0    0  0.13612383324E+02 -0.40597989497E+02  0.34630824984E+02  0.55070752402E+02  0.00000000000E+00 0.  1.
</event>
<event>
 7    1  0.6557591E-006  0.1011232E+03  0.7818608E-02  0.1344231E+00
          2   -1    0    0  502    0  0.00000000000E+00  0.00000000000E+00  0.11468306816E+04  0.11468306816E+04  0.00000000000E+00 0. -1.
          1   -1    0    0  501    0 -0.00000000000E+00 -0.00000000000E+00 -0.55122868270E+03  0.55122868270E+03  0.00000000000E+00 0. -1.
         25    2    1    2    0    0  0.56324470951E+02 -0.12555272302E+03 -0.23871455597E+03  0.30256514507E+03  0.12500038198E+03 0.  0.
          2    1    1    2  501    0 -0.61326182298E+02  0.70325421531E+02 -0.27211780154E+03  0.28767110293E+03  0.00000000000E+00 0. -1.
          1    1    1    2  502    0  0.50017113469E+01  0.55227301485E+02  0.11064343564E+04  0.11078231163E+04  0.00000000000E+00 0. -1.
         22    1    3    3    0    0  0.69868361708E+02 -0.56945452162E+02 -0.54040783142E+02  0.10509414224E+03  0.00000000000E+00 0. -1.
         22    1    3    3    0    0 -0.13543890757E+02 -0.68607270855E+02 -0.18467377283E+03  0.19747100284E+03  0.00000000000E+00 0. -1.
</event>
<event>
 7    1  0.6557591E-006  0.1337311E+03  0.7818608E-02  0.1264194E+00
          2   -1    0    0  502    0  0.00000000000E+00  0.00000000000E+00  0.12856289202E+04  0.12856289202E+04  0.00000000000E+00 0. -1.
          1   -1    0    0  501    0 -0.00000000000E+00 -0.00000000000E+00 -0.27552372922E+04  0.27552372922E+04  0.00000000000E+00 0. -1.
         25    2    1    2    0    0  0.12738279140E+03  0.15880079342E+03 -0.53747458604E+03  0.58816852993E+03  0.12497688358E+03 0.  0.
          2    1    1    2  501    0 -0.10552815872E+03 -0.74253602549E+02 -0.21890008433E+04  0.21928006024E+04  0.00000000000E+00 0. -1.
          1    1    1    2  502    0 -0.21854632688E+02 -0.84547190874E+02  0.12568670574E+04  0.12598970801E+04  0.00000000000E+00 0. -1.
         22    1    3    3    0    0  0.34069643630E+02  0.13860819045E+03 -0.30014242499E+03  0.33235289431E+03  0.00000000000E+00 0.  1.
         22    1    3    3    0    0  0.93313147774E+02  0.20192602974E+02 -0.23733216105E+03  0.25581563563E+03  0.00000000000E+00 0.  1.
</event>
<event>
 7    1  0.6557591E-006  0.8735578E+02  0.7818608E-02  0.1436168E+00
          2   -1    0    0  502    0  0.00000000000E+00  0.00000000000E+00  0.10427997439E+04  0.10427997439E+04  0.00000000000E+00 0. -1.
          1   -1    0    0  501    0 -0.00000000000E+00 -0.00000000000E+00 -0.10362024987E+04  0.10362024987E+04  0.00000000000E+00 0. -1.
         25    2    1    2    0    0 -0.87140354231E+02  0.75857395987E+02  0.13226992380E+03  0.21557167099E+03  0.12501210634E+03 0.  0.
          2    1    1    2  501    0  0.18029858432E+02 -0.24782429754E+02 -0.99218960378E+03  0.99266281006E+03  0.00000000000E+00 0. -1.
          1    1    1    2  502    0  0.69110495799E+02 -0.51074966233E+02  0.86651692518E+03  0.87076776148E+03  0.00000000000E+00 0. -1.
         22    1    3    3    0    0 -0.22562216182E+02  0.29024237428E+02 -0.21322633827E+02  0.42498407860E+02  0.00000000000E+00 0.  1.
         22    1    3    3    0    0 -0.64578138049E+02  0.46833158560E+02  0.15359255762E+03  0.17307326313E+03  0.00000000000E+00 0.  1.
</event>
<event>
 7    1  0.6557591E-006  0.3978286E+02  0.7818608E-02  0.1596631E+00
          2   -1    0    0  502    0  0.00000000000E+00  0.00000000000E+00  0.25246296654E+03  0.25246296654E+03  0.00000000000E+00 0. -1.
          1   -1    0    0  501    0 -0.00000000000E+00 -0.00000000000E+00 -0.19925490306E+03  0.19925490306E+03  0.00000000000E+00 0. -1.
         25    2    1    2    0    0 -0.99168370125E+01  0.15258157812E+02  0.37431580831E+01  0.12636926144E+03  0.12499609581E+03 0.  0.
          2    1    1    2  501    0 -0.17522729466E+02  0.14623068889E+02 -0.13477566969E+03  0.13669440856E+03  0.00000000000E+00 0. -1.
          1    1    1    2  502    0  0.27439566479E+02 -0.29881226701E+02  0.18424057509E+03  0.18865419960E+03  0.00000000000E+00 0. -1.
         22    1    3    3    0    0 -0.31467773631E+02 -0.17415930781E+02  0.52629050888E+02  0.63744430499E+02  0.00000000000E+00 0.  1.
         22    1    3    3    0    0  0.21550936619E+02  0.32674088593E+02 -0.48885892805E+02  0.62624830937E+02  0.00000000000E+00 0.  1.
</event>
<event>
 7    1  0.6557591E-006  0.6588422E+02  0.7818608E-02  0.1402827E+00
          2   -1    0    0  502    0  0.00000000000E+00  0.00000000000E+00  0.16477087627E+03  0.16477087627E+03  0.00000000000E+00 0. -1.
          1   -1    0    0  501    0 -0.00000000000E+00 -0.00000000000E+00 -0.58217626260E+03  0.58217626260E+03  0.00000000000E+00 0. -1.
         25    2    1    2    0    0 -0.11434928736E+03  0.12685646202E+02 -0.79877764780E+02  0.18772931798E+03  0.12500061753E+03 0.  0.
          2    1    1    2  501    0  0.52381507384E+02 -0.38548031197E+01 -0.43783962669E+03  0.44097870757E+03  0.00000000000E+00 0. -1.
          1    1    1    2  502    0  0.61967779977E+02 -0.88308430821E+01  0.10031200514E+03  0.11823911333E+03  0.00000000000E+00 0. -1.
         22    1    3    3    0    0 -0.10269346468E+02  0.25620016350E+02  0.26556849124E+02  0.38302884357E+02  0.00000000000E+00 0.  1.
         22    1    3    3    0    0 -0.10407994089E+03 -0.12934370148E+02 -0.10643461390E+03  0.14942643362E+03  0.00000000000E+00 0.  1.
</event>
<event>
 7    1  0.7616335E-006  0.1689140E+03  0.7818608E-02  0.1214407E+00
          2   -1    0    0  502    0  0.00000000000E+00  0.00000000000E+00  0.15053289373E+04  0.15053289373E+04  0.00000000000E+00 0. -1.
          1   -1    0    0  501    0 -0.00000000000E+00 -0.00000000000E+00 -0.12996880580E+04  0.12996880580E+04  0.00000000000E+00 0. -1.
         25    2    1    2    0    0 -0.18886578927E+02  0.71778972231E+02 -0.28617704169E+03  0.32098462333E+03  0.12499962203E+03 0.  0.
          2    1    1    2  501    0 -0.10552773006E+03  0.44985507648E+02 -0.98788562720E+03  0.99452391130E+03  0.00000000000E+00 0. -1.
          1    1    1    2  502    0  0.12441430899E+03 -0.11676447988E+03  0.14797035481E+04  0.14895084607E+04  0.00000000000E+00 0. -1.
         22    1    3    3    0    0 -0.29196898032E+02  0.95255390984E+02 -0.13574344877E+03  0.16838150804E+03  0.00000000000E+00 0. -1.
         22    1    3    3    0    0  0.10310319105E+02 -0.23476418753E+02 -0.15043359292E+03  0.15260311529E+03  0.00000000000E+00 0. -1.
</event>
<event>
 7    1  0.6557591E-006  0.7022020E+02  0.7818608E-02  0.1516291E+00
          2   -1    0    0  502    0  0.00000000000E+00  0.00000000000E+00  0.11275511766E+03  0.11275511766E+03  0.00000000000E+00 0. -1.
          1   -1    0    0  501    0 -0.00000000000E+00 -0.00000000000E+00 -0.14676646536E+03  0.14676646536E+03  0.00000000000E+00 0. -1.
         25    2    1    2    0    0 -0.78269053066E+01 -0.53719205375E+02 -0.65016061170E+02  0.15099681107E+03  0.12500374103E+03 0.  0.
          2    1    1    2  501    0 -0.13921622011E+02 -0.16482208072E+02 -0.10636697698E+02  0.24054398356E+02  0.00000000000E+00 0. -1.
          1    1    1    2  502    0  0.21748527318E+02  0.70201413447E+02  0.41641411167E+02  0.84470373590E+02  0.00000000000E+00 0. -1.
         22    1    3    3    0    0  0.40411882232E+02 -0.51944372309E+02  0.49453028632E+01  0.65998439834E+02  0.00000000000E+00 0. -1.
         22    1    3    3    0    0 -0.48238787539E+02 -0.17748330657E+01 -0.69961364033E+02  0.84998371237E+02  0.00000000000E+00 0. -1.
</event>
<event>
 7    1  0.6557591E-006  0.1281253E+03  0.7818608E-02  0.1330175E+00
          2   -1    0    0  502    0  0.00000000000E+00  0.00000000000E+00  0.19633823041E+04  0.19633823041E+04  0.00000000000E+00 0. -1.
          1   -1    0    0  501    0 -0.00000000000E+00 -0.00000000000E+00 -0.10484386625E+03  0.10484386625E+03  0.00000000000E+00 0. -1.
         25    2    1    2    0    0  0.11843117028E+03  0.82284903510E+01  0.33659115812E+03  0.37816962016E+03  0.12500001495E+03 0.  0.
          2    1    1    2  501    0  0.53174659783E+01 -0.49172915508E+02 -0.73884115920E+02  0.88910706044E+02  0.00000000000E+00 0. -1.
          1    1    1    2  502    0 -0.12374863626E+03  0.40944425157E+02  0.15958313956E+04  0.16011458441E+04  0.00000000000E+00 0. -1.
         22    1    3    3    0    0  0.66003661354E+02  0.24312215258E+02  0.49802721783E+02  0.86185139206E+02  0.00000000000E+00 0. -1.
         22    1    3    3    0    0  0.52427508924E+02 -0.16083724906E+02  0.28678843634E+03  0.29198448095E+03  0.00000000000E+00 0. -1.
</event>
<event>
 7    1  0.6557591E-006  0.6090935E+02  0.7818608E-02  0.1419766E+00
          2   -1    0    0  502    0  0.00000000000E+00  0.00000000000E+00  0.17920077532E+03  0.17920077532E+03  0.00000000000E+00 0. -1.
          1   -1    0    0  501    0 -0.00000000000E+00 -0.00000000000E+00 -0.70525891767E+03  0.70525891767E+03  0.00000000000E+00 0. -1.
         25    2    1    2    0    0 -0.90630017126E+02  0.13347390628E+02 -0.23875160952E+03  0.28463505442E+03  0.12499132095E+03 0.  0.
          2    1    1    2  501    0  0.55111438168E+02  0.21546741550E+02 -0.43755638455E+03  0.44153949127E+03  0.00000000000E+00 0. -1.
          1    1    1    2  502    0  0.35518578957E+02 -0.34894132177E+02  0.15024985173E+03  0.15828514730E+03  0.00000000000E+00 0. -1.
         22    1    3    3    0    0 -0.10252152541E+03  0.15557583718E+02 -0.24839214432E+03  0.26916790103E+03  0.00000000000E+00 0.  1.
         22    1    3    3    0    0  0.11891508288E+02 -0.22101930905E+01  0.96405347955E+01  0.15467153390E+02  0.00000000000E+00 0.  1.
</event>
<event>
 7    1  0.6557591E-006  0.6331055E+02  0.7818608E-02  0.1532974E+00
          2   -1    0    0  502    0  0.00000000000E+00  0.00000000000E+00  0.67982697493E+03  0.67982697493E+03  0.00000000000E+00 0. -1.
          1   -1    0    0  501    0 -0.00000000000E+00 -0.00000000000E+00 -0.55251202100E+03  0.55251202100E+03  0.00000000000E+00 0. -1.
         25    2    1    2    0    0 -0.54869870578E+02  0.58363288092E+02  0.49340280335E+03  0.51525577263E+03  0.12500083512E+03 0.  0.
          2    1    1    2  501    0  0.34057892969E+02 -0.53302252835E+02 -0.53907589554E+03  0.54277425453E+03  0.00000000000E+00 0. -1.
          1    1    1    2  502    0  0.20811977609E+02 -0.50610352565E+01  0.17298804613E+03  0.17430896877E+03  0.00000000000E+00 0. -1.
         22    1    3    3    0    0 -0.44473531895E+02 -0.17002008936E+02  0.34713729976E+03  0.35038731175E+03  0.00000000000E+00 0. -1.
         22    1    3    3    0    0 -0.10396338683E+02  0.75365297028E+02  0.14626550358E+03  0.16486846088E+03  0.00000000000E+00 0. -1.
</event>
<event>
 7    1  0.6557591E-006  0.8677429E+02  0.7818608E-02  0.1401143E+00
          2   -1    0    0  502    0  0.00000000000E+00  0.00000000000E+00  0.49875569896E+03  0.49875569896E+03  0.00000000000E+00 0. -1.
          1   -1    0    0  501    0 -0.00000000000E+00 -0.00000000000E+00 -0.61874663441E+03  0.61874663441E+03  0.00000000000E+00 0. -1.
         25    2    1    2    0    0  0.55290012003E+02 -0.86976791567E+02 -0.39548291510E+03  0.42738019216E+03  0.12500057927E+03 0.  0.
          2    1    1    2  501    0 -0.15607551607E+02  0.79329732010E+02 -0.19853980194E+03  0.21437083524E+03  0.00000000000E+00 0. -1.
          1    1    1    2  502    0 -0.39682460396E+02  0.76470595570E+01  0.47403178158E+03  0.47575130597E+03  0.00000000000E+00 0. -1.
         22    1    3    3    0    0 -0.18770844616E+02  0.19749550539E+02 -0.36022334443E+02  0.45166336279E+02  0.00000000000E+00 0.  1.
         22    1    3    3    0    0  0.74060856619E+02 -0.10672634211E+03 -0.35946058065E+03  0.38221385588E+03  0.00000000000E+00 0.  1.
</event>
<event>
 7    1  0.6557591E-006  0.1047081E+03  0.7818608E-02  0.1383580E+00
          2   -1    0    0  502    0  0.00000000000E+00  0.00000000000E+00  0.10540921413E+04  0.10540921413E+04  0.00000000000E+00 0. -1.
          1   -1    0    0  501    0 -0.00000000000E+00 -0.00000000000E+00 -0.25366068525E+02  0.25366068525E+02  0.00000000000E+00 0. -1.
         25    2    1    2    0    0  0.83551308798E+02 -0.23079076845E+02  0.54580656135E+03  0.56660652729E+03  0.12499875743E+03 0.  0.
          2    1    1    2  501    0  0.23043235689E+02 -0.30902596488E+02  0.46649518256E+02  0.60515607361E+02  0.00000000000E+00 0. -1.
          1    1    1    2  502    0 -0.10659454449E+03  0.53981673333E+02  0.43626999322E+03  0.45233607523E+03  0.00000000000E+00 0. -1.
         22    1    3    3    0    0 -0.25617393867E+02 -0.23118481773E+02  0.22744343685E+03  0.23004615197E+03  0.00000000000E+00 0. -1.
         22    1    3    3    0    0  0.10916870266E+03  0.39404927832E-01  0.31836312450E+03  0.33656037532E+03  0.00000000000E+00 0. -1.
</event>
<event>
 7    1  0.6557591E-006  0.7888380E+02  0.7818608E-02  0.1335699E+00
          2   -1    0    0  502    0  0.00000000000E+00  0.00000000000E+00  0.19204234035E+04  0.19204234035E+04  0.00000000000E+00 0. -1.
          1   -1    0    0  501    0 -0.00000000000E+00 -0.00000000000E+00 -0.16759621661E+02  0.16759621661E+02  0.00000000000E+00 0. -1.
         25    2    1    2    0    0 -0.17154041276E+02 -0.23426807970E+02  0.67690671735E+03  0.68896366475E+03  0.12500060357E+03 0.  0.
          2    1    1    2  501    0  0.31243522427E+02 -0.72432702758E+02  0.17438979638E+03  0.19140129363E+03  0.00000000000E+00 0. -1.
          1    1    1    2  502    0 -0.14089481151E+02  0.95859510728E+02  0.10523672681E+04  0.10568180668E+04  0.00000000000E+00 0. -1.
         22    1    3    3    0    0 -0.66727374550E+02  0.83509967970E+01  0.42346242437E+03  0.42876882643E+03  0.00000000000E+00 0. -1.
         22    1    3    3    0    0  0.49573333274E+02 -0.31777804767E+02  0.25344429298E+03  0.26019483832E+03  0.00000000000E+00 0. -1.
</event>
<event>
 7    1  0.6557591E-006  0.6130756E+02  0.7818608E-02  0.1441879E+00
          2   -1    0    0  502    0  0.00000000000E+00  0.00000000000E+00  0.35711663458E+03  0.35711663458E+03  0.00000000000E+00 0. -1.
          1   -1    0    0  501    0 -0.00000000000E+00 -0.00000000000E+00 -0.23811978780E+04  0.23811978780E+04  0.00000000000E+00 0. -1.
         25    2    1    2    0    0 -0.74861973860E+02  0.61454894936E+02 -0.13722907365E+04  0.13813731987E+04  0.12501611592E+03 0.  0.
          2    1    1    2  501    0  0.18477411862E+02 -0.37540394286E+02 -0.10012658787E+04  0.10021397387E+04  0.00000000000E+00 0. -1.
          1    1    1    2  502    0  0.56384561999E+02 -0.23914500650E+02  0.34947537189E+03  0.35480157515E+03  0.00000000000E+00 0. -1.
         22    1    3    3    0    0 -0.67742416344E+02  0.69196512183E+02 -0.13653323997E+04  0.13687621246E+04  0.00000000000E+00 0.  1.
         22    1    3    3    0    0 -0.71195575158E+01 -0.77416172466E+01 -0.69583368751E+01  0.12611074057E+02  0.00000000000E+00 0.  1.
</event>
<event>
 7    1  0.6557591E-006  0.8933385E+02  0.7818608E-02  0.1389496E+00
          2   -1    0    0  502    0  0.00000000000E+00  0.00000000000E+00  0.35704724798E+04  0.35704724798E+04  0.00000000000E+00 0. -1.
          1   -1    0    0  501    0 -0.00000000000E+00 -0.00000000000E+00 -0.27279533609E+04  0.27279533609E+04  0.00000000000E+00 0. -1.
         25    2    1    2    0    0  0.88889463939E+02 -0.89565115428E+02 -0.26420832223E+03  0.31836182535E+03  0.12499987042E+03 0.  0.
          2    1    1    2  501    0 -0.14206976523E+02  0.40664138030E+02 -0.24359156220E+04  0.24362964367E+04  0.00000000000E+00 0. -1.
          1    1    1    2  502    0 -0.74682487417E+02  0.48900977398E+02  0.35426430630E+04  0.35437675786E+04  0.00000000000E+00 0. -1.
         22    1    3    3    0    0  0.54011396006E+02  0.16104436291E+02 -0.43526019708E+02  0.71211643419E+02  0.00000000000E+00 0. -1.
         22    1    3    3    0    0  0.34878067934E+02 -0.10566955172E+03 -0.22068230252E+03  0.24715018194E+03  0.00000000000E+00 0. -1.
</event>
<event>
 7    1  0.6557591E-006  0.5398329E+02  0.7818608E-02  0.1520774E+00
          2   -1    0    0  502    0  0.00000000000E+00  0.00000000000E+00  0.12274711212E+04  0.12274711212E+04  0.00000000000E+00 0. -1.
          1   -1    0    0  501    0 -0.00000000000E+00 -0.00000000000E+00 -0.10104260299E+02  0.10104260299E+02  0.00000000000E+00 0. -1.
         25    2    1    2    0    0 -0.37637186538E+02  0.75256774850E+01  0.67094796182E+03  0.68357090425E+03  0.12499928017E+03 0.  0.
          2    1    1    2  501    0  0.61737630167E+02  0.51565811337E+01  0.31894982104E+03  0.32491093187E+03  0.00000000000E+00 0. -1.
          1    1    1    2  502    0 -0.24100443629E+02 -0.12682258619E+02  0.22746907808E+03  0.22909354542E+03  0.00000000000E+00 0. -1.
         22    1    3    3    0    0 -0.76406375606E+02  0.25947585587E+02  0.32040218884E+03  0.33040698244E+03  0.00000000000E+00 0.  1.
         22    1    3    3    0    0  0.38769189068E+02 -0.18421908102E+02  0.35054577297E+03  0.35316392181E+03  0.00000000000E+00 0.  1.
</event>
<event>
 7    1  0.6557591E-006  0.7164001E+02  0.7818608E-02  0.1432866E+00
          2   -1    0    0  502    0  0.00000000000E+00  0.00000000000E+00  0.40332169144E+03  0.40332169144E+03  0.00000000000E+00 0. -1.
          1   -1    0    0  501    0 -0.00000000000E+00 -0.00000000000E+00 -0.10077355657E+03  0.10077355657E+03  0.00000000000E+00 0. -1.
         25    2    1    2    0    0 -0.54218189389E+02  0.76751763425E+02  0.22334729285E+03  0.27265351645E+03  0.12500192623E+03 0.  0.
          2    1    1    2  501    0  0.16808142729E+02 -0.68492094135E+02 -0.56544743468E+02  0.90393520978E+02  0.00000000000E+00 0. -1.
          1    1    1    2  502    0  0.37410046660E+02 -0.82596692905E+01  0.13574558549E+03  0.14104821058E+03  0.00000000000E+00 0. -1.
         22    1    3    3    0    0  0.34106989170E+02  0.33659337615E+02  0.12387943829E+03  0.13282451939E+03  0.00000000000E+00 0. -1.
         22    1    3    3    0    0 -0.88325178559E+02  0.43092425810E+02  0.99467854557E+02  0.13982899706E+03  0.00000000000E+00 0. -1.
</event>
<event>
 7    1  0.6557591E-006  0.1497872E+03  0.7818608E-02  0.1326791E+00
          2   -1    0    0  502    0  0.00000000000E+00  0.00000000000E+00  0.35047547305E+03  0.35047547305E+03  0.00000000000E+00 0. -1.
          1   -1    0    0  501    0 -0.00000000000E+00 -0.00000000000E+00 -0.15896087964E+04  0.15896087964E+04  0.00000000000E+00 0. -1.
         25    2    1    2    0    0 -0.49203114599E+02  0.99398823118E+02 -0.21095130549E+03  0.26912126810E+03  0.12499892451E+03 0.  0.
          2    1    1    2  501    0 -0.31056603037E+02  0.30584392514E+02 -0.13310422326E+04  0.13317557368E+04  0.00000000000E+00 0. -1.
          1    1    1    2  502    0  0.80259717637E+02 -0.12998321563E+03  0.30286021474E+03  0.33920726450E+03  0.00000000000E+00 0. -1.
         22    1    3    3    0    0  0.78184133886E+01  0.69661631004E+02 -0.18832334353E+03  0.20094664004E+03  0.00000000000E+00 0.  1.
         22    1    3    3    0    0 -0.57021527988E+02  0.29737192113E+02 -0.22627961960E+02  0.68174628062E+02  0.00000000000E+00 0.  1.
</event>
<event>
 7    1  0.6557591E-006  0.2106976E+03  0.7818608E-02  0.1225444E+00
          2   -1    0    0  502    0  0.00000000000E+00  0.00000000000E+00  0.97541889644E+03  0.97541889644E+03  0.00000000000E+00 0. -1.
          1   -1    0    0  501    0 -0.00000000000E+00 -0.00000000000E+00 -0.21249101861E+03  0.21249101861E+03  0.00000000000E+00 0. -1.
         25    2    1    2    0    0  0.11891207592E+03 -0.25138608986E+03  0.27598914433E+03  0.41125163496E+03  0.12499140569E+03 0.  0.
          2    1    1    2  501    0 -0.94533862889E+02  0.17319530101E+03 -0.73280644151E+02  0.21048352983E+03  0.00000000000E+00 0. -1.
          1    1    1    2  502    0 -0.24378213029E+02  0.78190788852E+02  0.56021937765E+03  0.56617475025E+03  0.00000000000E+00 0. -1.
         22    1    3    3    0    0  0.13789270685E+03 -0.22820671880E+03  0.27223673605E+03  0.38105845426E+03  0.00000000000E+00 0. -1.
         22    1    3    3    0    0 -0.18980630928E+02 -0.23179371059E+02  0.37524082827E+01  0.30193180704E+02  0.00000000000E+00 0. -1.
</event>
<event>
 7    1  0.6557591E-006  0.6739403E+02  0.7818608E-02  0.1480255E+00
          2   -1    0    0  502    0  0.00000000000E+00  0.00000000000E+00  0.39954147595E+03  0.39954147595E+03  0.00000000000E+00 0. -1.
          1   -1    0    0  501    0 -0.00000000000E+00 -0.00000000000E+00 -0.14914169825E+03  0.14914169825E+03  0.00000000000E+00 0. -1.
         25    2    1    2    0    0 -0.53830711844E+02  0.27689863368E+02 -0.34428915686E+01  0.13893113302E+03  0.12500212858E+03 0.  0.
          2    1    1    2  501    0  0.43755801459E+02 -0.54684485438E+02 -0.61433868622E+02  0.93161597897E+02  0.00000000000E+00 0. -1.
          1    1    1    2  502    0  0.10074910385E+02  0.26994622071E+02  0.31527653788E+03  0.31659044329E+03  0.00000000000E+00 0. -1.
         22    1    3    3    0    0 -0.84917272010E+02  0.27674479702E+01 -0.31049569716E+02  0.90458154046E+02  0.00000000000E+00 0. -1.
         22    1    3    3    0    0  0.31086560166E+02  0.24922415397E+02  0.27606678147E+02  0.48472978973E+02  0.00000000000E+00 0. -1.
</event>
<event>
 7    1  0.6557591E-006  0.8281902E+02  0.7818608E-02  0.1395784E+00
          2   -1    0    0  502    0  0.00000000000E+00  0.00000000000E+00  0.18259006098E+04  0.18259006098E+04  0.00000000000E+00 0. -1.
          1   -1    0    0  501    0 -0.00000000000E+00 -0.00000000000E+00 -0.14521218801E+04  0.14521218801E+04  0.00000000000E+00 0. -1.
         25    2    1    2    0    0  0.82671119578E+02 -0.12709262149E+02  0.18730696157E+03  0.24021990265E+03  0.12500265766E+03 0.  0.
          2    1    1    2  501    0 -0.63945600302E+02  0.52726819482E+02 -0.14241576628E+04  0.14265672805E+04  0.00000000000E+00 0. -1.
          1    1    1    2  502    0 -0.18725519276E+02 -0.40017557333E+02  0.16106294310E+04  0.16112353068E+04  0.00000000000E+00 0. -1.
         22    1    3    3    0    0  0.90888207039E+02 -0.17929699498E+02  0.55373156071E+02  0.10792741411E+03  0.00000000000E+00 0. -1.
         22    1    3    3    0    0 -0.82170874612E+01  0.52204373495E+01  0.13193380550E+03  0.13229248855E+03  0.00000000000E+00 0. -1.
</event>
<event>
 7    1  0.6557591E-006  0.2037401E+03  0.7818608E-02  0.1190556E+00
          2   -1    0    0  502    0  0.00000000000E+00  0.00000000000E+00  0.73583042462E+03  0.73583042462E+03  0.00000000000E+00 0. -1.
          1   -1    0    0  501    0 -0.00000000000E+00 -0.00000000000E+00 -0.14572150497E+04  0.14572150497E+04  0.00000000000E+00 0. -1.
         25    2    1    2    0    0 -0.82577440183E+01 -0.92505544498E+02  0.29354566594E+03  0.33229828805E+03  0.12501051215E+03 0.  0.
          2    1    1    2  501    0 -0.20325229232E+03  0.14089547945E+02 -0.13998497289E+04  0.14145986262E+04  0.00000000000E+00 0. -1.
          1    1    1    2  502    0  0.21151003634E+03  0.78415996553E+02  0.38491943790E+03  0.44614856007E+03  0.00000000000E+00 0. -1.
         22    1    3    3    0    0 -0.12244223343E+02  0.17796524296E+02  0.33996067590E+01  0.21867661247E+02  0.00000000000E+00 0.  1.
         22    1    3    3    0    0  0.39864793249E+01 -0.11030206879E+03  0.29014605918E+03  0.31043062680E+03  0.00000000000E+00 0.  1.
</event>
<event>
 7    1  0.6557591E-006  0.8032359E+02  0.7818608E-02  0.1347927E+00
          2   -1    0    0  502    0  0.00000000000E+00  0.00000000000E+00  0.14960688726E+03  0.14960688726E+03  0.00000000000E+00 0. -1.
          1   -1    0    0  501    0 -0.00000000000E+00 -0.00000000000E+00 -0.37139830468E+03  0.37139830468E+03  0.00000000000E+00 0. -1.
         25    2    1    2    0    0  0.16057097321E+01  0.28205333092E+02 -0.35150564212E+02  0.13288564643E+03  0.12499965497E+03 0.  0.
          2    1    1    2  501    0  0.47122450717E+02 -0.75106922612E+02 -0.26801970128E+03  0.28230503973E+03  0.00000000000E+00 0. -1.
          1    1    1    2  502    0 -0.48728160449E+02  0.46901589520E+02  0.81378848074E+02  0.10581450578E+03  0.00000000000E+00 0. -1.
         22    1    3    3    0    0  0.26721360254E+02 -0.34916087537E+02 -0.46515822518E+02  0.64006921557E+02  0.00000000000E+00 0.  1.
         22    1    3    3    0    0 -0.25115650522E+02  0.63121420630E+02  0.11365258306E+02  0.68878724871E+02  0.00000000000E+00 0.  1.
</event>
<event>
 7    1  0.6557591E-006  0.1568570E+03  0.7818608E-02  0.1368704E+00
          2   -1    0    0  502    0  0.00000000000E+00  0.00000000000E+00  0.43666722497E+03  0.43666722497E+03  0.00000000000E+00 0. -1.
          1   -1    0    0  501    0 -0.00000000000E+00 -0.00000000000E+00 -0.18184858862E+03  0.18184858862E+03  0.00000000000E+00 0. -1.
         25    2    1    2    0    0  0.79367614147E+02  0.16259622996E+03 -0.46693210729E+02  0.22481565108E+03  0.12500027548E+03 0.  0.
          2    1    1    2  501    0 -0.20704216458E+02 -0.20408788366E+02 -0.21351203363E+02  0.36070169209E+02  0.00000000000E+00 0. -1.
          1    1    1    2  502    0 -0.58663397689E+02 -0.14218744159E+03  0.32286305044E+03  0.35762999331E+03  0.00000000000E+00 0. -1.
         22    1    3    3    0    0 -0.53393923686E-01  0.47172441230E+01  0.31291073877E+02  0.31644692247E+02  0.00000000000E+00 0. -1.
         22    1    3    3    0    0  0.79421008071E+02  0.15787898583E+03 -0.77984284606E+02  0.19317095883E+03  0.00000000000E+00 0. -1.
</event>
<event>
 7    1  0.6557591E-006  0.1407424E+03  0.7818608E-02  0.1217323E+00
          2   -1    0    0  502    0  0.00000000000E+00  0.00000000000E+00  0.24074982945E+04  0.24074982945E+04  0.00000000000E+00 0. -1.
          1   -1    0    0  501    0 -0.00000000000E+00 -0.00000000000E+00 -0.10230366261E+04  0.10230366261E+04  0.00000000000E+00 0. -1.
         25    2    1    2    0    0  0.96748481662E+02  0.59074322180E+02  0.97121289036E+02  0.19469982095E+03  0.12500172499E+03 0.  0.
          2    1    1    2  501    0 -0.10248594712E+03  0.85547760797E+02 -0.96734283773E+03  0.97651111332E+03  0.00000000000E+00 0. -1.
          1    1    1    2  502    0  0.57374654567E+01 -0.14462208298E+03  0.22546832172E+04  0.22593239863E+04  0.00000000000E+00 0. -1.
         22    1    3    3    0    0  0.58184905479E+02  0.36575397821E+02  0.12458389717E+03  0.14228278316E+03  0.00000000000E+00 0. -1.
         22    1    3    3    0    0  0.38563576183E+02  0.22498924358E+02 -0.27462608132E+02  0.52417037791E+02  0.00000000000E+00 0. -1.
</event>
<event>
 7    1  0.6557591E-006  0.1081281E+03  0.7818608E-02  0.1280326E+00
          2   -1    0    0  502    0  0.00000000000E+00  0.00000000000E+00  0.40063639663E+03  0.40063639663E+03  0.00000000000E+00 0. -1.
          1   -1    0    0  501    0 -0.00000000000E+00 -0.00000000000E+00 -0.11133145793E+04  0.11133145793E+04  0.00000000000E+00 0. -1.
         25    2    1    2    0    0  0.78484655514E+02 -0.65741777905E+02 -0.17670022656E+03  0.23943661373E+03  0.12500039766E+03 0.  0.
          2    1    1    2  501    0 -0.11069892463E+03 -0.20921409967E+02 -0.89587514933E+03  0.90293091679E+03  0.00000000000E+00 0. -1.
          1    1    1    2  502    0  0.32214269117E+02  0.86663187871E+02  0.35989719318E+03  0.37158344544E+03  0.00000000000E+00 0. -1.
         22    1    3    3    0    0  0.25399872037E+02 -0.17957194085E+02 -0.16396093307E+03  0.16688559522E+03  0.00000000000E+00 0. -1.
         22    1    3    3    0    0  0.53084783477E+02 -0.47784583819E+02 -0.12739293482E+02  0.72551018504E+02  0.00000000000E+00 0. -1.
</event>
<event>
 7    1  0.6557591E-006  0.7177007E+02  0.7818608E-02  0.1408728E+00
          2   -1    0    0  502    0  0.00000000000E+00  0.00000000000E+00  0.28704128413E+03  0.28704128413E+03  0.00000000000E+00 0. -1.
          1   -1    0    0  501    0 -0.00000000000E+00 -0.00000000000E+00 -0.93658619511E+03  0.93658619511E+03  0.00000000000E+00 0. -1.
         25    2    1    2    0    0 -0.33412742037E+02 -0.10977914228E+03 -0.38405206144E+00  0.16968694043E+03  0.12500255537E+03 0.  0.
          2    1    1    2  501    0  0.11254412824E+02  0.44636033302E+02 -0.84505772739E+03  0.84631058123E+03  0.00000000000E+00 0. -1.
          1    1    1    2  502    0  0.22158329214E+02  0.65143108977E+02  0.19589686847E+03  0.20762995757E+03  0.00000000000E+00 0. -1.
         22    1    3    3    0    0  0.44641035970E+02 -0.63304405983E+02 -0.10953408630E+02  0.78232007963E+02  0.00000000000E+00 0. -1.
         22    1    3    3    0    0 -0.78053778008E+02 -0.46474736297E+02  0.10569356568E+02  0.91454932472E+02  0.00000000000E+00 0. -1.
</event>
<event>
 7    1  0.6557591E-006  0.1156493E+03  0.7818608E-02  0.1357874E+00
          2   -1    0    0  502    0  0.00000000000E+00  0.00000000000E+00  0.10773214870E+04  0.10773214870E+04  0.00000000000E+00 0. -1.
          1   -1    0    0  501    0 -0.00000000000E+00 -0.00000000000E+00 -0.11150839773E+03  0.11150839773E+03  0.00000000000E+00 0. -1.
         25    2    1    2    0    0  0.52919938940E+02 -0.13460651660E+03  0.36228670747E+03  0.40962912657E+03  0.12499971472E+03 0.  0.
          2    1    1    2  501    0 -0.64526773610E+02  0.93028057276E+02 -0.50345414586E+02  0.12390554759E+03  0.00000000000E+00 0. -1.
          1    1    1    2  502    0  0.11606834670E+02  0.41578459324E+02  0.65387179634E+03  0.65529521053E+03  0.00000000000E+00 0. -1.
         22    1    3    3    0    0  0.49147094455E+02 -0.61794035328E+02  0.61357518632E+02  0.99993423725E+02  0.00000000000E+00 0.  1.
         22    1    3    3    0    0  0.37728444850E+01 -0.72812481272E+02  0.30092918883E+03  0.30963570284E+03  0.00000000000E+00 0.  1.
</event>
<event>
 7    1  0.6557591E-006  0.1575514E+03  0.7818608E-02  0.1304293E+00
          2   -1    0    0  502    0  0.00000000000E+00  0.00000000000E+00  0.44319270187E+04  0.44319270187E+04  0.00000000000E+00 0. -1.
          1   -1    0    0  501    0 -0.00000000000E+00 -0.00000000000E+00 -0.11369974344E+04  0.11369974344E+04  0.00000000000E+00 0. -1.
         25    2    1    2    0    0 -0.18309318102E+03 -0.64759259149E+02  0.83038829318E+03  0.86190814190E+03  0.12499621213E+03 0.  0.
          2    1    1    2  501    0  0.49384962990E+02 -0.11634954121E+02 -0.11190090885E+04  0.11201587329E+04  0.00000000000E+00 0. -1.
          1    1    1    2  502    0  0.13370821803E+03  0.76394213270E+02  0.35835503797E+04  0.35868575783E+04  0.00000000000E+00 0. -1.
         22    1    3    3    0    0 -0.54358856491E+02  0.43216400355E+00  0.47856220142E+03  0.48163975404E+03  0.00000000000E+00 0.  1.
         22    1    3    3    0    0 -0.12873432453E+03 -0.65191423153E+02  0.35182609176E+03  0.38026838786E+03  0.00000000000E+00 0.  1.
</event>
<event>
 7    1  0.6557591E-006  0.7825639E+02  0.7818608E-02  0.1361451E+00
          2   -1    0    0  502    0  0.00000000000E+00  0.00000000000E+00  0.38180993545E+03  0.38180993545E+03  0.00000000000E+00 0. -1.
          1   -1    0    0  501    0 -0.00000000000E+00 -0.00000000000E+00 -0.11707964394E+04  0.11707964394E+04  0.00000000000E+00 0. -1.
         25    2    1    2    0    0  0.11659760455E+03  0.50627108091E+02 -0.56522377593E+03  0.59267268876E+03  0.12499957463E+03 0.  0.
          2    1    1    2  501    0 -0.38660124908E+02 -0.48349219628E+02 -0.58607055506E+03  0.58933093233E+03  0.00000000000E+00 0. -1.
          1    1    1    2  502    0 -0.77937479645E+02 -0.22778884630E+01  0.36230782708E+03  0.37060275373E+03  0.00000000000E+00 0. -1.
         22    1    3    3    0    0  0.26608080273E+01  0.57017638913E+02 -0.11743896991E+03  0.13057565891E+03  0.00000000000E+00 0.  1.
         22    1    3    3    0    0  0.11393679653E+03 -0.63905308219E+01 -0.44778480602E+03  0.46209702984E+03  0.00000000000E+00 0.  1.
</event>
<event>
 7    1  0.6557591E-006  0.6972566E+02  0.7818608E-02  0.1379202E+00
          2   -1    0    0  502    0  0.00000000000E+00  0.00000000000E+00  0.21376002960E+03  0.21376002960E+03  0.00000000000E+00 0. -1.
          1   -1    0    0  501    0 -0.00000000000E+00 -0.00000000000E+00 -0.40399886014E+03  0.40399886014E+03  0.00000000000E+00 0. -1.
         25    2    1    2    0    0 -0.18834782044E+02 -0.29325416364E+02  0.80110346342E+01  0.13001723806E+03  0.12500230581E+03 0.  0.
          2    1    1    2  501    0 -0.57720271309E+02  0.16338621126E+02 -0.32967702208E+03  0.33509031492E+03  0.00000000000E+00 0. -1.
          1    1    1    2  502    0  0.76555053352E+02  0.12986795238E+02  0.13142715691E+03  0.15265133677E+03  0.00000000000E+00 0. -1.
         22    1    3    3    0    0 -0.66581000636E+02  0.10489608301E+02  0.56783091133E+00  0.67404628624E+02  0.00000000000E+00 0. -1.
         22    1    3    3    0    0  0.47746218592E+02 -0.39815024665E+02  0.74432037228E+01  0.62612609438E+02  0.00000000000E+00 0. -1.
</event>
<event>
 7    1  0.6557591E-006  0.1176781E+03  0.7818608E-02  0.1285030E+00
          2   -1    0    0  502    0  0.00000000000E+00  0.00000000000E+00  0.12022593883E+04  0.12022593883E+04  0.00000000000E+00 0. -1.
          1   -1    0    0  501    0 -0.00000000000E+00 -0.00000000000E+00 -0.22621385290E+03  0.22621385290E+03  0.00000000000E+00 0. -1.
         25    2    1    2    0    0 -0.50012907939E+02 -0.12814763910E+03  0.11993627585E+03  0.22120478322E+03  0.12499494985E+03 0.  0.
          2    1    1    2  501    0 -0.49365628217E+02  0.64533717913E+02 -0.16258857114E+03  0.18175975754E+03  0.00000000000E+00 0. -1.
          1    1    1    2  502    0  0.99378536156E+02  0.63613921183E+02  0.10186978307E+04  0.10255087005E+04  0.00000000000E+00 0. -1.
         22    1    3    3    0    0 -0.18052678104E+02 -0.13640597835E+03  0.12722489921E+03  0.18739974678E+03  0.00000000000E+00 0. -1.
         22    1    3    3    0    0 -0.31960229836E+02  0.82583392495E+01 -0.72886233556E+01  0.33805036440E+02  0.00000000000E+00 0. -1.
</event>
<event>
 7    1  0.6557591E-006  0.1560649E+03  0.7818608E-02  0.1231291E+00
          2   -1    0    0  502    0  0.00000000000E+00  0.00000000000E+00  0.15691147263E+04  0.15691147263E+04  0.00000000000E+00 0. -1.
          1   -1    0    0  501    0 -0.00000000000E+00 -0.00000000000E+00 -0.83205106074E+02  0.83205106074E+02  0.00000000000E+00 0. -1.
         25    2    1    2    0    0 -0.27244912809E+02  0.90624133699E+02  0.31354594623E+03  0.35054952981E+03  0.12497557190E+03 0.  0.
          2    1    1    2  501    0  0.53193653362E+02  0.89459899171E+02 -0.10855070349E+02  0.10464449756E+03  0.00000000000E+00 0. -1.
          1    1    1    2  502    0 -0.25948740554E+02 -0.18008403287E+03  0.11832187444E+04  0.11971258050E+04  0.00000000000E+00 0. -1.
         22    1    3    3    0    0 -0.57878277364E+02  0.10050164255E+03  0.18758734993E+03  0.22054362154E+03  0.00000000000E+00 0. -1.
         22    1    3    3    0    0  0.30633364555E+02 -0.98775088510E+01  0.12595859629E+03  0.13000590827E+03  0.00000000000E+00 0. -1.
</event>
<event>
 7    1  0.6557591E-006  0.2200287E+03  0.7818608E-02  0.1245509E+00
          2   -1    0    0  502    0  0.00000000000E+00  0.00000000000E+00  0.55352195748E+03  0.55352195748E+03  0.00000000000E+00 0. -1.
          1   -1    0    0  501    0 -0.00000000000E+00 -0.00000000000E+00 -0.25138245057E+04  0.25138245057E+04  0.00000000000E+00 0. -1.
         25    2    1    2    0    0  0.27971729504E+03  0.19136071378E+02 -0.53551234545E+03  0.61725764543E+03  0.12500229734E+03 0.  0.
          2    1    1    2  501    0 -0.63574090977E+02  0.61805105800E+01 -0.19137875414E+04  0.19148531582E+04  0.00000000000E+00 0. -1.
          1    1    1    2  502    0 -0.21614320406E+03 -0.25316581958E+02  0.48899733868E+03  0.53523565952E+03  0.00000000000E+00 0. -1.
         22    1    3    3    0    0  0.17646685572E+03 -0.31694989394E+02 -0.40703895611E+03  0.44477616316E+03  0.00000000000E+00 0. -1.
         22    1    3    3    0    0  0.10325043932E+03  0.50831060772E+02 -0.12847338934E+03  0.17248148227E+03  0.00000000000E+00 0. -1.
</event>
<event>
 7    1  0.6557591E-006  0.8707333E+02  0.7818608E-02  0.1327451E+00
          2   -1    0    0  502    0  0.00000000000E+00  0.00000000000E+00  0.14480548647E+04  0.14480548647E+04  0.00000000000E+00 0. -1.
          1   -1    0    0  501    0 -0.00000000000E+00 -0.00000000000E+00 -0.13359814991E+03  0.13359814991E+03  0.00000000000E+00 0. -1.
         25    2    1    2    0    0 -0.10038933364E+02  0.20385335139E+02  0.25981473203E+03  0.28921520898E+03  0.12500160022E+03 0.  0.
          2    1    1    2  501    0 -0.41599232115E+01  0.74430363327E+02 -0.10503731297E+03  0.12880225565E+03  0.00000000000E+00 0. -1.
          1    1    1    2  502    0  0.14198856575E+02 -0.94815698466E+02  0.11596792957E+04  0.11636355500E+04  0.00000000000E+00 0. -1.
         22    1    3    3    0    0  0.33933525215E+02  0.27576128339E+02  0.23330855282E+03  0.23737061277E+03  0.00000000000E+00 0. -1.
         22    1    3    3    0    0 -0.43972458579E+02 -0.71907931998E+01  0.26506179207E+02  0.51844596213E+02  0.00000000000E+00 0. -1.
</event>
<event>
 7    1  0.6557591E-006  0.6112906E+02  0.7818608E-02  0.1475085E+00
          2   -1    0    0  502    0  0.00000000000E+00  0.00000000000E+00  0.66486497779E+03  0.66486497779E+03  0.00000000000E+00 0. -1.
          1   -1    0    0  501    0 -0.00000000000E+00 -0.00000000000E+00 -0.31157713463E+04  0.31157713463E+04  0.00000000000E+00 0. -1.
         25    2    1    2    0    0 -0.28196158237E+02 -0.47691847944E+01 -0.66580810593E+02  0.14448322886E+03  0.12499852247E+03 0.  0.
          2    1    1    2  501    0  0.61138500749E+02  0.55644627627E+01 -0.30094923613E+04  0.30101184615E+04  0.00000000000E+00 0. -1.
          1    1    1    2  502    0 -0.32942342512E+02 -0.79527796830E+00  0.62516680346E+03  0.62603463366E+03  0.00000000000E+00 0. -1.
         22    1    3    3    0    0  0.64990050710E+01 -0.60298217060E+02 -0.19034746220E+02  0.63564405222E+02  0.00000000000E+00 0. -1.
         22    1    3    3    0    0 -0.34695163308E+02  0.55529032266E+02 -0.47546064373E+02  0.80918823636E+02  0.00000000000E+00 0. -1.
</event>
<event>
 7    1  0.6557591E-006  0.4644617E+02  0.7818608E-02  0.1574443E+00
          2   -1    0    0  502    0  0.00000000000E+00  0.00000000000E+00  0.50253941827E+03  0.50253941827E+03  0.00000000000E+00 0. -1.
          1   -1    0    0  501    0 -0.00000000000E+00 -0.00000000000E+00 -0.19076615325E+03  0.19076615325E+03  0.00000000000E+00 0. -1.
         25    2    1    2    0    0 -0.20662318070E+01  0.67907304828E+02  0.18412917122E+03  0.23268908301E+03  0.12499994519E+03 0.  0.
          2    1    1    2  501    0  0.55564608349E+01 -0.45784142935E+02 -0.16285280632E+03  0.16925749179E+03  0.00000000000E+00 0. -1.
          1    1    1    2  502    0 -0.34902290278E+01 -0.22123161894E+02  0.29049690012E+03  0.29135899672E+03  0.00000000000E+00 0. -1.
         22    1    3    3    0    0 -0.10108196876E+02 -0.24559827954E+02  0.11209874657E+03  0.11520195213E+03  0.00000000000E+00 0.  1.
         22    1    3    3    0    0  0.80419650692E+01  0.92467132783E+02  0.72030424647E+02  0.11748713088E+03  0.00000000000E+00 0.  1.
</event>
<event>
 7    1  0.6557591E-006  0.5628560E+02  0.7818608E-02  0.1553774E+00
          2   -1    0    0  502    0  0.00000000000E+00  0.00000000000E+00  0.14850404030E+04  0.14850404030E+04  0.00000000000E+00 0. -1.
          1   -1    0    0  501    0 -0.00000000000E+00 -0.00000000000E+00 -0.19996704045E+03  0.19996704045E+03  0.00000000000E+00 0. -1.
         25    2    1    2    0    0 -0.71148727717E+02 -0.18512864162E+02 -0.59843266898E+02  0.15687902590E+03  0.12499977832E+03 0.  0.
          2    1    1    2  501    0  0.20326109891E+02 -0.54873893751E+01 -0.89838662638E+02  0.92272680085E+02  0.00000000000E+00 0. -1.
          1    1    1    2  502    0  0.50822617825E+02  0.24000253537E+02  0.14347552921E+04  0.14358557375E+04  0.00000000000E+00 0. -1.
         22    1    3    3    0    0 -0.79964003880E+02  0.37184708269E+02 -0.30513648711E+02  0.93316810936E+02  0.00000000000E+00 0.  1.
         22    1    3    3    0    0  0.88152761633E+01 -0.55697572431E+02 -0.29329618187E+02  0.63562214967E+02  0.00000000000E+00 0.  1.
</event>
<event>
 7    1  0.6557591E-006  0.5837629E+02  0.7818608E-02  0.1445076E+00
          2   -1    0    0  502    0  0.00000000000E+00  0.00000000000E+00  0.15409005161E+04  0.15409005161E+04  0.00000000000E+00 0. -1.
          1   -1    0    0  501    0 -0.00000000000E+00 -0.00000000000E+00 -0.15375500336E+04  0.15375500336E+04  0.00000000000E+00 0. -1.
         25    2    1    2    0    0  0.29370915435E+02 -0.24159660873E+02  0.32519918263E+02  0.13464395138E+03  0.12500043469E+03 0.  0.
          2    1    1    2  501    0 -0.58089015083E+02 -0.77234416354E+01 -0.14855943711E+04  0.14867496832E+04  0.00000000000E+00 0. -1.
          1    1    1    2  502    0  0.28718099648E+02  0.31883102508E+02  0.14564249353E+04  0.14570569151E+04  0.00000000000E+00 0. -1.
         22    1    3    3    0    0 -0.29474500245E+02  0.33763795078E+02 -0.26455342967E+01  0.44896980684E+02  0.00000000000E+00 0.  1.
         22    1    3    3    0    0  0.58845415680E+02 -0.57923455951E+02  0.35165452560E+02  0.89746970699E+02  0.00000000000E+00 0.  1.
</event>
<event>
 7    1  0.6557591E-006  0.8657540E+02  0.7818608E-02  0.1483277E+00
          2   -1    0    0  502    0  0.00000000000E+00  0.00000000000E+00  0.16908324879E+04  0.16908324879E+04  0.00000000000E+00 0. -1.
          1   -1    0    0  501    0 -0.00000000000E+00 -0.00000000000E+00 -0.12083807474E+04  0.12083807474E+04  0.00000000000E+00 0. -1.
         25    2    1    2    0    0 -0.33248428537E+01 -0.10782096464E+03 -0.11104457199E+03  0.19898906881E+03  0.12501734897E+03 0.  0.
          2    1    1    2  501    0  0.48534442599E+01  0.21413937548E+02 -0.10521155527E+04  0.10523446436E+04  0.00000000000E+00 0. -1.
          1    1    1    2  502    0 -0.15286014062E+01  0.86407027089E+02  0.16456118653E+04  0.16478795229E+04  0.00000000000E+00 0. -1.
         22    1    3    3    0    0 -0.45204141060E+02 -0.11399816461E+03 -0.86293160648E+02  0.14995167715E+03  0.00000000000E+00 0. -1.
         22    1    3    3    0    0  0.41879298207E+02  0.61771999774E+01 -0.24751411343E+02  0.49037391665E+02  0.00000000000E+00 0. -1.
</event>
<event>
 7    1  0.6557591E-006  0.6829477E+02  0.7818608E-02  0.1503499E+00
          2   -1    0    0  502    0  0.00000000000E+00  0.00000000000E+00  0.16761042357E+04  0.16761042357E+04  0.00000000000E+00 0. -1.
          1   -1    0    0  501    0 -0.00000000000E+00 -0.00000000000E+00 -0.17915311062E+04  0.17915311062E+04  0.00000000000E+00 0. -1.
         25    2    1    2    0    0  0.46802759115E+02 -0.76714415333E+02 -0.10383428975E+03  0.18569288778E+03  0.12499875625E+03 0.  0.
          2    1    1    2  501    0 -0.27507855266E+02  0.62120359859E+02 -0.16459772489E+04  0.16473787437E+04  0.00000000000E+00 0. -1.
          1    1    1    2  502    0 -0.19294903849E+02  0.14594055474E+02  0.16343846682E+04  0.16345637104E+04  0.00000000000E+00 0. -1.
         22    1    3    3    0    0  0.68703227942E+01  0.20924225914E+02  0.15111032246E+02  0.26708947207E+02  0.00000000000E+00 0.  1.
         22    1    3    3    0    0  0.39932436321E+02 -0.97638641247E+02 -0.11894532199E+03  0.15898394057E+03  0.00000000000E+00 0.  1.
</event>
<event>
 7    1  0.6557591E-006  0.1365970E+03  0.7818608E-02  0.1255192E+00
          2   -1    0    0  502    0  0.00000000000E+00  0.00000000000E+00  0.35773069318E+04  0.35773069318E+04  0.00000000000E+00 0. -1.
          1   -1    0    0  501    0 -0.00000000000E+00 -0.00000000000E+00 -0.20348110778E+04  0.20348110778E+04  0.00000000000E+00 0. -1.
         25    2    1    2    0    0  0.61812754497E+02  0.15599827481E+03  0.25644363918E+04  0.25729587324E+04  0.12500541144E+03 0.  0.
          2    1    1    2  501    0  0.36606468293E+02 -0.85934642731E+02 -0.20258522648E+04  0.20280044860E+04  0.00000000000E+00 0. -1.
          1    1    1    2  502    0 -0.98419222791E+02 -0.70063632084E+02  0.10039117271E+04  0.10111547912E+04  0.00000000000E+00 0. -1.
         22    1    3    3    0    0  0.29977567936E+01  0.86375747579E+02  0.57733421375E+03  0.58376754850E+03  0.00000000000E+00 0.  1.
         22    1    3    3    0    0  0.58814997704E+02  0.69622527236E+02  0.19871021780E+04  0.19891911839E+04  0.00000000000E+00 0.  1.
</event>
<event>
 7    1  0.6557591E-006  0.1872290E+03  0.7818608E-02  0.1330416E+00
          2   -1    0    0  502    0  0.00000000000E+00  0.00000000000E+00  0.65234557078E+03  0.65234557078E+03  0.00000000000E+00 0. -1.
          1   -1    0    0  501    0 -0.00000000000E+00 -0.00000000000E+00 -0.69388580383E+03  0.69388580383E+03  0.00000000000E+00 0. -1.
         25    2    1    2    0    0 -0.16419740129E+03 -0.36435251946E+02  0.21987073592E+03  0.30373764279E+03  0.12500040382E+03 0.  0.
          2    1    1    2  501    0 -0.26163818740E+02 -0.21358297302E+02 -0.62613264223E+03  0.62704290758E+03  0.00000000000E+00 0. -1.
          1    1    1    2  502    0  0.19036122003E+03  0.57793549249E+02  0.36472167325E+03  0.41545082425E+03  0.00000000000E+00 0. -1.
         22    1    3    3    0    0 -0.49492672896E+01  0.15460419940E+02  0.90920061960E+02  0.92357877294E+02  0.00000000000E+00 0.  1.
         22    1    3    3    0    0 -0.15924813400E+03 -0.51895671887E+02  0.12895067396E+03  0.21137976549E+03  0.00000000000E+00 0.  1.
</event>
<event>
 7    1  0.6557591E-006  0.4711743E+02  0.7818608E-02  0.1471248E+00
          2   -1    0    0  502    0  0.00000000000E+00  0.00000000000E+00  0.51071955702E+03  0.51071955702E+03  0.00000000000E+00 0. -1.
          1   -1    0    0  501    0 -0.00000000000E+00 -0.00000000000E+00 -0.31120030734E+02  0.31120030734E+02  0.00000000000E+00 0. -1.
         25    2    1    2    0    0 -0.34694652192E+02  0.32972328930E+02  0.36052391965E+03  0.38456922372E+03  0.12500039131E+03 0.  0.
          2    1    1    2  501    0 -0.18953808888E+02 -0.39638466754E+02  0.30448154296E+02  0.53456010120E+02  0.00000000000E+00 0. -1.
          1    1    1    2  502    0  0.53648461080E+02  0.66661378236E+01  0.88627452339E+02  0.10381435391E+03  0.00000000000E+00 0. -1.
         22    1    3    3    0    0 -0.23184365062E+02  0.62742549638E+02  0.34023712111E+03  0.34674982465E+03  0.00000000000E+00 0. -1.
         22    1    3    3    0    0 -0.11510287130E+02 -0.29770220707E+02  0.20286798545E+02  0.37819399070E+02  0.00000000000E+00 0. -1.
</event>
<event>
 7    1  0.6557591E-006  0.1081266E+03  0.7818608E-02  0.1354549E+00
          2   -1    0    0  502    0  0.00000000000E+00  0.00000000000E+00  0.11244377837E+04  0.11244377837E+04  0.00000000000E+00 0. -1.
          1   -1    0    0  501    0 -0.00000000000E+00 -0.00000000000E+00 -0.92082513529E+02  0.92082513529E+02  0.00000000000E+00 0. -1.
         25    2    1    2    0    0 -0.32510701613E+02  0.14428864343E+03  0.42590846672E+03  0.46786663659E+03  0.12500003707E+03 0.  0.
          2    1    1    2  501    0  0.16033266141E+02 -0.44698957582E+02 -0.58919313091E+02  0.75673957787E+02  0.00000000000E+00 0. -1.
          1    1    1    2  502    0  0.16477435472E+02 -0.99589685852E+02  0.66536611650E+03  0.67297970281E+03  0.00000000000E+00 0. -1.
         22    1    3    3    0    0  0.37846128461E+02  0.71806878379E+02  0.27131825994E+03  0.28319985063E+03  0.00000000000E+00 0.  1.
         22    1    3    3    0    0 -0.70356830074E+02  0.72481765056E+02  0.15459020678E+03  0.18466678596E+03  0.00000000000E+00 0.  1.
</event>
<event>
 7    1  0.6557591E-006  0.1126746E+03  0.7818608E-02  0.1282321E+00
          2   -1    0    0  502    0  0.00000000000E+00  0.00000000000E+00  0.24774910800E+04  0.24774910800E+04  0.00000000000E+00 0. -1.
          1   -1    0    0  501    0 -0.00000000000E+00 -0.00000000000E+00 -0.18950573515E+04  0.18950573515E+04  0.00000000000E+00 0. -1.
         25    2    1    2    0    0  0.87167891950E+02 -0.13829916455E+03  0.37240724478E+03  0.42548445046E+03  0.12499984526E+03 0.  0.
          2    1    1    2  501    0 -0.99741212745E+02  0.52150860509E+02 -0.18659105984E+04  0.18693021113E+04  0.00000000000E+00 0. -1.
          1    1    1    2  502    0  0.12573320795E+02  0.86148304045E+02  0.20759370821E+04  0.20777618698E+04  0.00000000000E+00 0. -1.
         22    1    3    3    0    0  0.16767421590E+01 -0.73524229901E+02  0.59167205854E+02  0.94389523229E+02  0.00000000000E+00 0. -1.
         22    1    3    3    0    0  0.85491149791E+02 -0.64774934653E+02  0.31324003893E+03  0.33109492724E+03  0.00000000000E+00 0. -1.
</event>
<event>
 7    1  0.6557591E-006  0.3791893E+02  0.7818608E-02  0.1594195E+00
          2   -1    0    0  502    0  0.00000000000E+00  0.00000000000E+00  0.11593176153E+04  0.11593176153E+04  0.00000000000E+00 0. -1.
          1   -1    0    0  501    0 -0.00000000000E+00 -0.00000000000E+00 -0.15947511577E+03  0.15947511577E+03  0.00000000000E+00 0. -1.
         25    2    1    2    0    0  0.29759484889E+02  0.37589053518E+02 -0.33984200094E+01  0.13392062719E+03  0.12499848497E+03 0.  0.
          2    1    1    2  501    0 -0.24300137436E+02 -0.82602907512E-01 -0.88855379973E+02  0.92118304657E+02  0.00000000000E+00 0. -1.
          1    1    1    2  502    0 -0.54593474526E+01 -0.37506450611E+02  0.10920962996E+04  0.10927537993E+04  0.00000000000E+00 0. -1.
         22    1    3    3    0    0  0.67031804253E+02  0.66940611869E+01  0.31375988781E+02  0.74313699333E+02  0.00000000000E+00 0. -1.
         22    1    3    3    0    0 -0.37272319365E+02  0.30894992331E+02 -0.34774408790E+02  0.59606927858E+02  0.00000000000E+00 0. -1.
</event>
<event>
 7    1  0.6557591E-006  0.3066787E+02  0.7818608E-02  0.1591900E+00
          2   -1    0    0  502    0  0.00000000000E+00  0.00000000000E+00  0.38699105707E+04  0.38699105707E+04  0.00000000000E+00 0. -1.
          1   -1    0    0  501    0 -0.00000000000E+00 -0.00000000000E+00 -0.36451191190E+01  0.36451191190E+01  0.00000000000E+00 0. -1.
         25    2    1    2    0    0 -0.36941002904E+01  0.23791967382E+02  0.14018599048E+04  0.14076277932E+04  0.12500042972E+03 0.  0.
          2    1    1    2  501    0 -0.26535982541E+02 -0.14969853192E+02  0.36005836736E+03  0.36134510205E+03  0.00000000000E+00 0. -1.
          1    1    1    2  502    0  0.30230082831E+02 -0.88221141899E+01  0.21043471794E+04  0.21045827945E+04  0.00000000000E+00 0. -1.
         22    1    3    3    0    0 -0.42432236273E+02  0.55422256452E+02  0.10383976500E+04  0.10407409863E+04  0.00000000000E+00 0. -1.
         22    1    3    3    0    0  0.38738135982E+02 -0.31630289069E+02  0.36346225481E+03  0.36688680684E+03  0.00000000000E+00 0. -1.
</event>
<event>
 7    1  0.6557591E-006  0.9944426E+02  0.7818608E-02  0.1437983E+00
          2   -1    0    0  502    0  0.00000000000E+00  0.00000000000E+00  0.12047503659E+04  0.12047503659E+04  0.00000000000E+00 0. -1.
          1   -1    0    0  501    0 -0.00000000000E+00 -0.00000000000E+00 -0.71599545141E+03  0.71599545141E+03  0.00000000000E+00 0. -1.
         25    2    1    2    0    0  0.11141842637E+03 -0.50869019310E+01  0.13589303561E+03  0.21571267539E+03  0.12500039556E+03 0.  0.
          2    1    1    2  501    0 -0.97670942737E+02 -0.17635280855E+02 -0.67227021567E+03  0.67955710508E+03  0.00000000000E+00 0. -1.
          1    1    1    2  502    0 -0.13747483628E+02  0.22722182786E+02  0.10251320945E+04  0.10254760368E+04  0.00000000000E+00 0. -1.
         22    1    3    3    0    0  0.73639495417E+02  0.17137029904E+02  0.28778221091E+01  0.75661978161E+02  0.00000000000E+00 0. -1.
         22    1    3    3    0    0  0.37778930949E+02 -0.22223931835E+02  0.13301521350E+03  0.14005069722E+03  0.00000000000E+00 0. -1.
</event>
<event>
 7    1  0.6557591E-006  0.4578297E+02  0.7818608E-02  0.1477748E+00
          2   -1    0    0  502    0  0.00000000000E+00  0.00000000000E+00  0.22653195606E+03  0.22653195606E+03  0.00000000000E+00 0. -1.
          1   -1    0    0  501    0 -0.00000000000E+00 -0.00000000000E+00 -0.94414841415E+03  0.94414841415E+03  0.00000000000E+00 0. -1.
         25    2    1    2    0    0  0.43016789742E+02 -0.76562119592E+02  0.13887927309E+00  0.15276822607E+03  0.12500363696E+03 0.  0.
          2    1    1    2  501    0 -0.16849821231E+02  0.42222359177E+02 -0.86411891208E+03  0.86531389582E+03  0.00000000000E+00 0. -1.
          1    1    1    2  502    0 -0.26166968510E+02  0.34339760415E+02  0.14636357471E+03  0.15259824832E+03  0.00000000000E+00 0. -1.
         22    1    3    3    0    0 -0.41934853154E+02 -0.15177012984E+02  0.14690223202E+02  0.46953980554E+02  0.00000000000E+00 0. -1.
         22    1    3    3    0    0  0.84951642895E+02 -0.61385106608E+02 -0.14551343929E+02  0.10581424552E+03  0.00000000000E+00 0. -1.
</event>
<event>
 7    1  0.6557591E-006  0.2783509E+03  0.7818608E-02  0.1212037E+00
          2   -1    0    0  502    0  0.00000000000E+00  0.00000000000E+00  0.19582982944E+03  0.19582982944E+03  0.00000000000E+00 0. -1.
          1   -1    0    0  501    0 -0.00000000000E+00 -0.00000000000E+00 -0.10958861744E+04  0.10958861744E+04  0.00000000000E+00 0. -1.
         25    2    1    2    0    0 -0.16668184629E+03  0.17502016981E+03 -0.54227622287E+03  0.60671525735E+03  0.12500001556E+03 0.  0.
          2    1    1    2  501    0 -0.70339162299E+02 -0.12194869541E+02 -0.38923279441E+03  0.39572525929E+03  0.00000000000E+00 0. -1.
          1    1    1    2  502    0  0.23702100859E+03 -0.16282530027E+03  0.31452672282E+02  0.28927548723E+03  0.00000000000E+00 0. -1.
         22    1    3    3    0    0 -0.10584495247E+03  0.79792995046E+02 -0.41907839545E+03  0.43954155385E+03  0.00000000000E+00 0.  1.
         22    1    3    3    0    0 -0.60836893821E+02  0.95227174766E+02 -0.12319782741E+03  0.16717370350E+03  0.00000000000E+00 0.  1.
</event>
<event>
 7    1  0.6557591E-006  0.5984083E+02  0.7818608E-02  0.1530519E+00
          2   -1    0    0  502    0  0.00000000000E+00  0.00000000000E+00  0.78960939233E+03  0.78960939233E+03  0.00000000000E+00 0. -1.
          1   -1    0    0  501    0 -0.00000000000E+00 -0.00000000000E+00 -0.56158196904E+02  0.56158196904E+02  0.00000000000E+00 0. -1.
         25    2    1    2    0    0 -0.37409881806E+02  0.19280271887E+02  0.81351891932E+02  0.15497501335E+03  0.12501158467E+03 0.  0.
          2    1    1    2  501    0 -0.69465600718E+01  0.21956753036E+02 -0.10585689824E+02  0.25345818783E+02  0.00000000000E+00 0. -1.
          1    1    1    2  502    0  0.44356441878E+02 -0.41237024923E+02  0.66268499332E+03  0.66544675710E+03  0.00000000000E+00 0. -1.
         22    1    3    3    0    0 -0.45804917310E+02 -0.22904951470E+02 -0.11638827268E+02  0.52518468673E+02  0.00000000000E+00 0. -1.
         22    1    3    3    0    0  0.83950355031E+01  0.42185223357E+02  0.92990719200E+02  0.10245654468E+03  0.00000000000E+00 0. -1.
</event>
<event>
 7    1  0.6557591E-006  0.2929017E+02  0.7818608E-02  0.1633075E+00
          2   -1    0    0  502    0  0.00000000000E+00  0.00000000000E+00  0.19764171229E+03  0.19764171229E+03  0.00000000000E+00 0. -1.
          1   -1    0    0  501    0 -0.00000000000E+00 -0.00000000000E+00 -0.94517624219E+02  0.94517624219E+02  0.00000000000E+00 0. -1.
         25    2    1    2    0    0 -0.41039858623E+02 -0.93714303427E+01  0.97707516129E+02  0.16414655581E+03  0.12500095750E+03 0.  0.
          2    1    1    2  501    0  0.26892180340E+02 -0.11237664828E+02 -0.55212144938E+02  0.62432807264E+02  0.00000000000E+00 0. -1.
          1    1    1    2  502    0  0.14147678283E+02  0.20609095171E+02  0.60628716881E+02  0.65579973430E+02  0.00000000000E+00 0. -1.
         22    1    3    3    0    0 -0.71919302544E+02 -0.43800804372E+02  0.74354369214E+02  0.11233640889E+03  0.00000000000E+00 0.  1.
         22    1    3    3    0    0  0.30879443921E+02  0.34429374030E+02  0.23353146914E+02  0.51810146919E+02  0.00000000000E+00 0.  1.
</event>
<event>
 7    1  0.6557591E-006  0.8944667E+02  0.7818608E-02  0.1355277E+00
          2   -1    0    0  502    0  0.00000000000E+00  0.00000000000E+00  0.80041534242E+02  0.80041534242E+02  0.00000000000E+00 0. -1.
          1   -1    0    0  501    0 -0.00000000000E+00 -0.00000000000E+00 -0.14439502505E+04  0.14439502505E+04  0.00000000000E+00 0. -1.
         25    2    1    2    0    0 -0.37840861203E+02  0.94121688687E+01 -0.83403428680E+03  0.84425025555E+03  0.12499913096E+03 0.  0.
          2    1    1    2  501    0 -0.35874680543E+02  0.44361141980E+02 -0.57508677814E+03  0.57790977325E+03  0.00000000000E+00 0. -1.
          1    1    1    2  502    0  0.73715541746E+02 -0.53773310848E+02  0.45212348650E+02  0.10183175598E+03  0.00000000000E+00 0. -1.
         22    1    3    3    0    0  0.16756753091E+02  0.10337685660E+02 -0.18910563570E+02  0.27299559218E+02  0.00000000000E+00 0. -1.
         22    1    3    3    0    0 -0.54597614294E+02 -0.92551679138E+00 -0.81512372323E+03  0.81695069634E+03  0.00000000000E+00 0. -1.
</event>
<event>
 7    1  0.6557591E-006  0.1339629E+03  0.7818608E-02  0.1415582E+00
          2   -1    0    0  502    0  0.00000000000E+00  0.00000000000E+00  0.68072249288E+02  0.68072249288E+02  0.00000000000E+00 0. -1.
          1   -1    0    0  501    0 -0.00000000000E+00 -0.00000000000E+00 -0.98925765196E+03  0.98925765196E+03  0.00000000000E+00 0. -1.
         25    2    1    2    0    0  0.62335695407E+02  0.12528219528E+03 -0.78435767783E+03  0.80648586681E+03  0.12498447591E+03 0.  0.
          2    1    1    2  501    0 -0.68888837565E+02 -0.10283773835E+03 -0.16998218858E+03  0.21027414678E+03  0.00000000000E+00 0. -1.
          1    1    1    2  502    0  0.65531421576E+01 -0.22444456931E+02  0.33154463737E+02  0.40569887660E+02  0.00000000000E+00 0. -1.
         22    1    3    3    0    0  0.65879999036E+02  0.78539102915E+02 -0.71776499918E+03  0.72504838391E+03  0.00000000000E+00 0. -1.
         22    1    3    3    0    0 -0.35443036284E+01  0.46743092361E+02 -0.66592678650E+02  0.81437482903E+02  0.00000000000E+00 0. -1.
</event>
<event>
 7    1  0.6557591E-006  0.1122410E+03  0.7818608E-02  0.1318565E+00
          2   -1    0    0  502    0  0.00000000000E+00  0.00000000000E+00  0.69902345391E+03  0.69902345391E+03  0.00000000000E+00 0. -1.
          1   -1    0    0  501    0 -0.00000000000E+00 -0.00000000000E+00 -0.15309367735E+04  0.15309367735E+04  0.00000000000E+00 0. -1.
         25    2    1    2    0    0  0.14846622299E+03 -0.25504818476E+02 -0.31193839668E+03  0.36827093835E+03  0.12500082228E+03 0.  0.
          2    1    1    2  501    0 -0.94014832841E+02  0.56359727589E+02 -0.11868413511E+04  0.11918924450E+04  0.00000000000E+00 0. -1.
          1    1    1    2  502    0 -0.54451390152E+02 -0.30854909113E+02  0.66686642819E+03  0.66979684409E+03  0.00000000000E+00 0. -1.
         22    1    3    3    0    0  0.13670619700E+03  0.54908404029E+00 -0.14648541820E+03  0.20036682245E+03  0.00000000000E+00 0.  1.
         22    1    3    3    0    0  0.11760025989E+02 -0.26053902516E+02 -0.16545297848E+03  0.16790411590E+03  0.00000000000E+00 0.  1.
</event>
<event>
 7    1  0.6557591E-006  0.5283462E+02  0.7818608E-02  0.1446847E+00
          2   -1    0    0  502    0  0.00000000000E+00  0.00000000000E+00  0.72523694152E+03  0.72523694152E+03  0.00000000000E+00 0. -1.
          1   -1    0    0  501    0 -0.00000000000E+00 -0.00000000000E+00 -0.11691595241E+04  0.11691595241E+04  0.00000000000E+00 0. -1.
         25    2    1    2    0    0  0.68868995321E+02 -0.76008052972E+01  0.91555501588E+01  0.14321230942E+03  0.12500092285E+03 0.  0.
          2    1    1    2  501    0 -0.42674349979E+02 -0.31172869298E+02 -0.11006529573E+04  0.11019209501E+04  0.00000000000E+00 0. -1.
          1    1    1    2  502    0 -0.26194645341E+02  0.38773674595E+02  0.64757482459E+03  0.64926320605E+03  0.00000000000E+00 0. -1.
         22    1    3    3    0    0  0.37522276007E+02  0.58551886056E+02  0.94527278620E+00  0.69549537008E+02  0.00000000000E+00 0.  1.
         22    1    3    3    0    0  0.31346719314E+02 -0.66152691353E+02  0.82102773726E+01  0.73662772413E+02  0.00000000000E+00 0.  1.
</event>
<event>
 7    1  0.6557591E-006  0.7807707E+02  0.7818608E-02  0.1403634E+00
          2   -1    0    0  502    0  0.00000000000E+00  0.00000000000E+00  0.14452970431E+04  0.14452970431E+04  0.00000000000E+00 0. -1.
          1   -1    0    0  501    0 -0.00000000000E+00 -0.00000000000E+00 -0.19480964513E+03  0.19480964513E+03  0.00000000000E+00 0. -1.
         25    2    1    2    0    0  0.88202405311E+02  0.33469530177E+02  0.11959012228E+03  0.19704296704E+03  0.12499703902E+03 0.  0.
          2    1    1    2  501    0 -0.77151384070E+02  0.91613484988E+01 -0.14601168869E+03  0.16539552474E+03  0.00000000000E+00 0. -1.
          1    1    1    2  502    0 -0.11051021241E+02 -0.42630878676E+02  0.12769089644E+04  0.12776681964E+04  0.00000000000E+00 0. -1.
         22    1    3    3    0    0  0.63602616245E+02  0.49186881744E+02  0.69741312271E+01  0.80704898459E+02  0.00000000000E+00 0.  1.
         22    1    3    3    0    0  0.24599789066E+02 -0.15717351567E+02  0.11261599105E+03  0.11633806859E+03  0.00000000000E+00 0.  1.
</event>
<event>
 7    1  0.6557591E-006  0.5469591E+02  0.7818608E-02  0.1498877E+00
          2   -1    0    0  502    0  0.00000000000E+00  0.00000000000E+00  0.21261007486E+03  0.21261007486E+03  0.00000000000E+00 0. -1.
          1   -1    0    0  501    0 -0.00000000000E+00 -0.00000000000E+00 -0.75103413149E+02  0.75103413149E+02  0.00000000000E+00 0. -1.
         25    2    1    2    0    0 -0.48424152050E+01 -0.42083255357E+02  0.14628421227E+03  0.19702332120E+03  0.12499867588E+03 0.  0.
          2    1    1    2  501    0  0.35851116223E+02  0.45353825436E+02  0.15806423374E+01  0.57833990406E+02  0.00000000000E+00 0. -1.
          1    1    1    2  502    0 -0.31008701018E+02 -0.32705700782E+01 -0.10358192899E+02  0.32856176399E+02  0.00000000000E+00 0. -1.
         22    1    3    3    0    0 -0.56365692560E+02  0.95654749566E+01  0.80864645515E+02  0.99033734168E+02  0.00000000000E+00 0.  1.
         22    1    3    3    0    0  0.51523277355E+02 -0.51648730314E+02  0.65419566756E+02  0.97989587034E+02  0.00000000000E+00 0.  1.
</event>
<event>
 7    1  0.6557591E-006  0.1323429E+03  0.7818608E-02  0.1248811E+00
          2   -1    0    0  502    0  0.00000000000E+00  0.00000000000E+00  0.15501769319E+04  0.15501769319E+04  0.00000000000E+00 0. -1.
          1   -1    0    0  501    0 -0.00000000000E+00 -0.00000000000E+00 -0.22629419420E+03  0.22629419420E+03  0.00000000000E+00 0. -1.
         25    2    1    2    0    0  0.18248591292E+02 -0.73334911416E+02  0.39449799240E+03  0.42067194315E+03  0.12500078971E+03 0.  0.
          2    1    1    2  501    0  0.93583708920E+02 -0.42380489086E+02 -0.19476019071E+03  0.22019434216E+03  0.00000000000E+00 0. -1.
          1    1    1    2  502    0 -0.11183230021E+03  0.11571540050E+03  0.11241449360E+04  0.11356048408E+04  0.00000000000E+00 0. -1.
         22    1    3    3    0    0  0.57124693552E+02 -0.39994425026E+02  0.33493916298E+03  0.34212136376E+03  0.00000000000E+00 0. -1.
         22    1    3    3    0    0 -0.38876102260E+02 -0.33340486391E+02  0.59558829426E+02  0.78550579389E+02  0.00000000000E+00 0. -1.
</event>
<event>
 7    1  0.6557591E-006  0.7536353E+02  0.7818608E-02  0.1350618E+00
          2   -1    0    0  502    0  0.00000000000E+00  0.00000000000E+00  0.54723726794E+02  0.54723726794E+02  0.00000000000E+00 0. -1.
          1   -1    0    0  501    0 -0.00000000000E+00 -0.00000000000E+00 -0.18937436776E+04  0.18937436776E+04  0.00000000000E+00 0. -1.
         25    2    1    2    0    0 -0.15089807553E+02  0.58638618602E+02 -0.68496018813E+03  0.69890033801E+03  0.12500013310E+03 0.  0.
          2    1    1    2  501    0  0.70309914664E+02 -0.43826454644E+01 -0.11686656672E+04  0.11707869718E+04  0.00000000000E+00 0. -1.
          1    1    1    2  502    0 -0.55220107112E+02 -0.54255973137E+02  0.14605904532E+02  0.78780094553E+02  0.00000000000E+00 0. -1.
         22    1    3    3    0    0 -0.63611654857E+02  0.50316529764E+02 -0.53377077955E+03  0.53989762076E+03  0.00000000000E+00 0.  1.
         22    1    3    3    0    0  0.48521847305E+02  0.83220888383E+01 -0.15118940857E+03  0.15900271725E+03  0.00000000000E+00 0.  1.
</event>
<event>
 7    1  0.6557591E-006  0.7440797E+02  0.7818608E-02  0.1395630E+00
          2   -1    0    0  502    0  0.00000000000E+00  0.00000000000E+00  0.13676243179E+03  0.13676243179E+03  0.00000000000E+00 0. -1.
          1   -1    0    0  501    0 -0.00000000000E+00 -0.00000000000E+00 -0.31043480606E+03  0.31043480606E+03  0.00000000000E+00 0. -1.
         25    2    1    2    0    0  0.70783352644E+02 -0.83979992010E+02 -0.71626018131E+02  0.18115335393E+03  0.12499331620E+03 0.  0.
          2    1    1    2  501    0 -0.60761265558E+02  0.35773876933E+02 -0.16889340744E+03  0.18302099535E+03  0.00000000000E+00 0. -1.
          1    1    1    2  502    0 -0.10022087086E+02  0.48206115077E+02  0.66847051298E+02  0.83022888577E+02  0.00000000000E+00 0. -1.
         22    1    3    3    0    0 -0.14519391324E+00 -0.93800437568E+02 -0.50320584915E+02  0.10644578167E+03  0.00000000000E+00 0. -1.
         22    1    3    3    0    0  0.70928546557E+02  0.98204455590E+01 -0.21305433216E+02  0.74707572255E+02  0.00000000000E+00 0. -1.
</event>
<event>
 7    1  0.6557591E-006  0.5846781E+02  0.7818608E-02  0.1409934E+00
          2   -1    0    0  502    0  0.00000000000E+00  0.00000000000E+00  0.90558487963E+01  0.90558487963E+01  0.00000000000E+00 0. -1.
          1   -1    0    0  501    0 -0.00000000000E+00 -0.00000000000E+00 -0.28525417192E+04  0.28525417192E+04  0.00000000000E+00 0. -1.
         25    2    1    2    0    0  0.23039393331E+02  0.66338617149E+02 -0.12572742335E+04  0.12654244946E+04  0.12501610861E+03 0.  0.
          2    1    1    2  501    0  0.33164707787E+02 -0.45094142558E+02 -0.13862376678E+04  0.13873673814E+04  0.00000000000E+00 0. -1.
          1    1    1    2  502    0 -0.56204101119E+02 -0.21244474591E+02 -0.19997396908E+03  0.20880569196E+03  0.00000000000E+00 0. -1.
         22    1    3    3    0    0  0.37825733905E+02 -0.28433281048E+02 -0.38850668620E+03  0.39137792840E+03  0.00000000000E+00 0. -1.
         22    1    3    3    0    0 -0.14786340574E+02  0.94771898196E+02 -0.86876754731E+03  0.87404656616E+03  0.00000000000E+00 0. -1.
</event>
<event>
 7    1  0.6557591E-006  0.1157709E+03  0.7818608E-02  0.1381953E+00
          2   -1    0    0  502    0  0.00000000000E+00  0.00000000000E+00  0.11339198167E+04  0.11339198167E+04  0.00000000000E+00 0. -1.
          1   -1    0    0  501    0 -0.00000000000E+00 -0.00000000000E+00 -0.82239172157E+02  0.82239172157E+02  0.00000000000E+00 0. -1.
         25    2    1    2    0    0  0.10776279633E+03  0.48959833938E+02  0.33306569375E+03  0.37492330939E+03  0.12499938384E+03 0.  0.
          2    1    1    2  501    0  0.74901003262E+01 -0.34525200082E+02 -0.51476734775E+02  0.62433526784E+02  0.00000000000E+00 0. -1.
          1    1    1    2  502    0 -0.11525289665E+03 -0.14434633856E+02  0.77009168560E+03  0.77880215271E+03  0.00000000000E+00 0. -1.
         22    1    3    3    0    0  0.13949782215E+02 -0.16293547296E+02  0.19284679672E+03  0.19403598406E+03  0.00000000000E+00 0.  1.
         22    1    3    3    0    0  0.93813014112E+02  0.65253381234E+02  0.14021889703E+03  0.18088732533E+03  0.00000000000E+00 0.  1.
</event>
<event>
 7    1  0.6557591E-006  0.9085506E+02  0.7818608E-02  0.1401010E+00
          2   -1    0    0  502    0  0.00000000000E+00  0.00000000000E+00  0.22170009411E+04  0.22170009411E+04  0.00000000000E+00 0. -1.
          1   -1    0    0  501    0 -0.00000000000E+00 -0.00000000000E+00 -0.32849871099E+03  0.32849871099E+03  0.00000000000E+00 0. -1.
         25    2    1    2    0    0 -0.10398176939E+03 -0.48560786995E+02  0.51777233662E+02  0.17741729234E+03  0.12500262115E+03 0.  0.
          2    1    1    2  501    0  0.14312628288E+02  0.35889510591E+02 -0.26329283481E+03  0.26611280533E+03  0.00000000000E+00 0. -1.
          1    1    1    2  502    0  0.89669141098E+02  0.12671276404E+02  0.21000178312E+04  0.21019695544E+04  0.00000000000E+00 0. -1.
         22    1    3    3    0    0 -0.11719318575E+03 -0.36773834906E+02  0.13829849677E+00  0.12282742709E+03  0.00000000000E+00 0.  1.
         22    1    3    3    0    0  0.13211416365E+02 -0.11786952089E+02  0.51638935166E+02  0.54589865240E+02  0.00000000000E+00 0.  1.
</event>
<event>
 7    1  0.6557591E-006  0.1055665E+03  0.7818608E-02  0.1313426E+00
          2   -1    0    0  502    0  0.00000000000E+00  0.00000000000E+00  0.61471680933E+03  0.61471680933E+03  0.00000000000E+00 0. -1.
          1   -1    0    0  501    0 -0.00000000000E+00 -0.00000000000E+00 -0.11880739358E+04  0.11880739358E+04  0.00000000000E+00 0. -1.
         25    2    1    2    0    0 -0.25127544818E+01 -0.13039515193E+03  0.68332865369E+02  0.19314195601E+03  0.12500090040E+03 0.  0.
          2    1    1    2  501    0  0.56702244854E+02  0.40514780767E+02 -0.11188827251E+04  0.11210509108E+04  0.00000000000E+00 0. -1.
          1    1    1    2  502    0 -0.54189490373E+02  0.89880371161E+02  0.47719273329E+03  0.48859787831E+03  0.00000000000E+00 0. -1.
         22    1    3    3    0    0 -0.36526081985E+02 -0.76648507493E+02  0.92077378319E+02  0.12524931922E+03  0.00000000000E+00 0. -1.
         22    1    3    3    0    0  0.34013327503E+02 -0.53746644434E+02 -0.23744512949E+02  0.67892636795E+02  0.00000000000E+00 0. -1.
</event>
<event>
 7    1  0.6557591E-006  0.1015839E+03  0.7818608E-02  0.1355954E+00
          2   -1    0    0  502    0  0.00000000000E+00  0.00000000000E+00  0.28231333033E+03  0.28231333033E+03  0.00000000000E+00 0. -1.
          1   -1    0    0  501    0 -0.00000000000E+00 -0.00000000000E+00 -0.30376583863E+03  0.30376583863E+03  0.00000000000E+00 0. -1.
         25    2    1    2    0    0  0.80253777416E+02  0.40408552824E+02 -0.73665546584E+02  0.17065216646E+03  0.12498811637E+03 0.  0.
          2    1    1    2  501    0 -0.63633736376E+02 -0.87510933312E+02 -0.16236354874E+03  0.19511365358E+03  0.00000000000E+00 0. -1.
          1    1    1    2  502    0 -0.16620041039E+02  0.47102380488E+02  0.21457658702E+03  0.22031334891E+03  0.00000000000E+00 0. -1.
         22    1    3    3    0    0 -0.15552410607E+02 -0.30219554619E+02 -0.88380967978E+01  0.35117102843E+02  0.00000000000E+00 0. -1.
         22    1    3    3    0    0  0.95806188023E+02  0.70628107444E+02 -0.64827449786E+02  0.13553506362E+03  0.00000000000E+00 0. -1.
</event>
<event>
 7    1  0.6557591E-006  0.5047389E+02  0.7818608E-02  0.1464341E+00
          2   -1    0    0  502    0  0.00000000000E+00  0.00000000000E+00  0.10003515673E+04  0.10003515673E+04  0.00000000000E+00 0. -1.
          1   -1    0    0  501    0 -0.00000000000E+00 -0.00000000000E+00 -0.24928914521E+02  0.24928914521E+02  0.00000000000E+00 0. -1.
         25    2    1    2    0    0  0.69745734727E+01  0.19676727842E+02  0.20814392685E+03  0.24369356913E+03  0.12500737201E+03 0.  0.
          2    1    1    2  501    0  0.28041792014E+02 -0.56028731873E+02  0.15432565120E+03  0.16655920123E+03  0.00000000000E+00 0. -1.
          1    1    1    2  502    0 -0.35016365486E+02  0.36352004031E+02  0.61295307475E+03  0.61502771148E+03  0.00000000000E+00 0. -1.
         22    1    3    3    0    0  0.68550639274E+01  0.17778011110E+02  0.22546482353E+03  0.22626850472E+03  0.00000000000E+00 0. -1.
         22    1    3    3    0    0  0.11950954528E+00  0.18987167319E+01 -0.17320896681E+02  0.17425064407E+02  0.00000000000E+00 0. -1.
</event>
<event>
 7    1  0.6557591E-006  0.5800643E+02  0.7818608E-02  0.1410568E+00
          2   -1    0    0  502    0  0.00000000000E+00  0.00000000000E+00  0.55827199708E+03  0.55827199708E+03  0.00000000000E+00 0. -1.
          1   -1    0    0  501    0 -0.00000000000E+00 -0.00000000000E+00 -0.30436530747E+03  0.30436530747E+03  0.00000000000E+00 0. -1.
         25    2    1    2    0    0 -0.41144019936E+02  0.71141996707E+02 -0.77350203993E+02  0.16840829713E+03  0.12499714562E+03 0.  0.
          2    1    1    2  501    0  0.55054593279E+02 -0.16749134582E+02 -0.17533424781E+03  0.18453628425E+03  0.00000000000E+00 0. -1.
          1    1    1    2  502    0 -0.13910573343E+02 -0.54392862124E+02  0.50659114140E+03  0.50969272317E+03  0.00000000000E+00 0. -1.
         22    1    3    3    0    0 -0.76345284069E+02  0.44182918233E+02 -0.11404212799E+02  0.88942614830E+02  0.00000000000E+00 0. -1.
         22    1    3    3    0    0  0.35201264133E+02  0.26959078474E+02 -0.65945991194E+02  0.79465682299E+02  0.00000000000E+00 0. -1.
</event>
<event>
 7    1  0.6557591E-006  0.4714214E+02  0.7818608E-02  0.1476333E+00
          2   -1    0    0  502    0  0.00000000000E+00  0.00000000000E+00  0.10850898347E+03  0.10850898347E+03  0.00000000000E+00 0. -1.
          1   -1    0    0  501    0 -0.00000000000E+00 -0.00000000000E+00 -0.12296334435E+04  0.12296334435E+04  0.00000000000E+00 0. -1.
         25    2    1    2    0    0  0.43223454244E+02 -0.58687542196E+02 -0.39484287304E+03  0.42052775511E+03  0.12502081354E+03 0.  0.
          2    1    1    2  501    0  0.78223192888E+00  0.42344170234E+02 -0.81560688942E+03  0.81670572345E+03  0.00000000000E+00 0. -1.
          1    1    1    2  502    0 -0.44005686173E+02  0.16343371962E+02  0.89325302417E+02  0.10090894844E+03  0.00000000000E+00 0. -1.
         22    1    3    3    0    0  0.65580211926E+02  0.38514719340E+01 -0.28235726664E+03  0.28989864446E+03  0.00000000000E+00 0. -1.
         22    1    3    3    0    0 -0.22356757682E+02 -0.62539014130E+02 -0.11248560640E+03  0.13062911065E+03  0.00000000000E+00 0. -1.
</event>
<event>
 7    1  0.6557591E-006  0.2674598E+03  0.7818608E-02  0.1255476E+00
          2   -1    0    0  502    0  0.00000000000E+00  0.00000000000E+00  0.74029122933E+03  0.74029122933E+03  0.00000000000E+00 0. -1.
          1   -1    0    0  501    0 -0.00000000000E+00 -0.00000000000E+00 -0.19203318767E+03  0.19203318767E+03  0.00000000000E+00 0. -1.
         25    2    1    2    0    0  0.24029384467E+03  0.98673089346E+02  0.41522901885E+03  0.50548886768E+03  0.12500538751E+03 0.  0.
          2    1    1    2  501    0 -0.26426494698E+03 -0.57583577656E+02 -0.15465155899E+02  0.27090773644E+03  0.00000000000E+00 0. -1.
          1    1    1    2  502    0  0.23971102314E+02 -0.41089511690E+02  0.14849417872E+03  0.15592781288E+03  0.00000000000E+00 0. -1.
         22    1    3    3    0    0  0.39157237008E+02 -0.19423979879E+02  0.23626458374E+02  0.49686917189E+02  0.00000000000E+00 0.  1.
         22    1    3    3    0    0  0.20113660766E+03  0.11809706922E+03  0.39160256047E+03  0.45580195049E+03  0.00000000000E+00 0.  1.
</event>
<event>
 7    1  0.6557591E-006  0.1904763E+03  0.7818608E-02  0.1281026E+00
          2   -1    0    0  502    0  0.00000000000E+00  0.00000000000E+00  0.22729014361E+04  0.22729014361E+04  0.00000000000E+00 0. -1.
          1   -1    0    0  501    0 -0.00000000000E+00 -0.00000000000E+00 -0.90350807386E+03  0.90350807386E+03  0.00000000000E+00 0. -1.
         25    2    1    2    0    0 -0.18750772429E+03  0.95041112946E+02  0.13685026944E+04  0.13901858280E+04  0.12500020767E+03 0.  0.
          2    1    1    2  501    0  0.49836868927E+02  0.15315372315E+02 -0.88318013956E+03  0.88471771376E+03  0.00000000000E+00 0. -1.
          1    1    1    2  502    0  0.13767085536E+03 -0.11035648526E+03  0.88407080745E+03  0.90150596828E+03  0.00000000000E+00 0. -1.
         22    1    3    3    0    0 -0.94819149983E+02  0.10914624940E+03  0.67022697557E+03  0.68564405762E+03  0.00000000000E+00 0.  1.
         22    1    3    3    0    0 -0.92688574305E+02 -0.14105136453E+02  0.69827571882E+03  0.70454177035E+03  0.00000000000E+00 0.  1.
</event>
<event>
 7    1  0.6557591E-006  0.2102072E+03  0.7818608E-02  0.1322776E+00
          2   -1    0    0  502    0  0.00000000000E+00  0.00000000000E+00  0.21774159003E+04  0.21774159003E+04  0.00000000000E+00 0. -1.
          1   -1    0    0  501    0 -0.00000000000E+00 -0.00000000000E+00 -0.12810391870E+03  0.12810391870E+03  0.00000000000E+00 0. -1.
         25    2    1    2    0    0 -0.15144330630E+03  0.14885328575E+03  0.19929276406E+03  0.31691809174E+03  0.12500838116E+03 0.  0.
          2    1    1    2  501    0  0.25587213511E+02  0.19524371811E+02 -0.59446025064E+02  0.67599826078E+02  0.00000000000E+00 0. -1.
          1    1    1    2  502    0  0.12585609279E+03 -0.16837765756E+03  0.19094652426E+04  0.19210019012E+04  0.00000000000E+00 0. -1.
         22    1    3    3    0    0 -0.10724481673E+03  0.28672246861E+02  0.13128534462E+03  0.17192844490E+03  0.00000000000E+00 0. -1.
         22    1    3    3    0    0 -0.44198489565E+02  0.12018103889E+03  0.68007419441E+02  0.14498964683E+03  0.00000000000E+00 0. -1.
</event>
<event>
 7    1  0.6557591E-006  0.5806387E+02  0.7818608E-02  0.1417971E+00
          2   -1    0    0  502    0  0.00000000000E+00  0.00000000000E+00  0.22284849452E+04  0.22284849452E+04  0.00000000000E+00 0. -1.
          1   -1    0    0  501    0 -0.00000000000E+00 -0.00000000000E+00 -0.12817351213E+04  0.12817351213E+04  0.00000000000E+00 0. -1.
         25    2    1    2    0    0  0.48949265182E+02  0.55099543493E+02  0.64467323678E+03  0.66080287030E+03  0.12499944370E+03 0.  0.
          2    1    1    2  501    0 -0.57996907679E+02 -0.29195777823E+01 -0.12725630219E+04  0.12738872831E+04  0.00000000000E+00 0. -1.
          1    1    1    2  502    0  0.90476424972E+01 -0.52179965711E+02  0.15746396090E+04  0.15755299131E+04  0.00000000000E+00 0. -1.
         22    1    3    3    0    0  0.36936544647E+02  0.45973412385E+02  0.64291558960E+03  0.64561468255E+03  0.00000000000E+00 0.  1.
         22    1    3    3    0    0  0.12012720534E+02  0.91261311080E+01  0.17576471846E+01  0.15188187754E+02  0.00000000000E+00 0.  1.
</event>
<event>
 7    1  0.6557591E-006  0.6779876E+02  0.7818608E-02  0.1375864E+00
          2   -1    0    0  502    0  0.00000000000E+00  0.00000000000E+00  0.24794272010E+04  0.24794272010E+04  0.00000000000E+00 0. -1.
          1   -1    0    0  501    0 -0.00000000000E+00 -0.00000000000E+00 -0.21444774164E+03  0.21444774164E+03  0.00000000000E+00 0. -1.
         25    2    1    2    0    0 -0.89055778360E+01 -0.11972707095E+03 -0.36318642040E+02  0.17707191442E+03  0.12498615237E+03 0.  0.
          2    1    1    2  501    0  0.30412617556E+02  0.55632095323E+02 -0.97908282911E+02  0.11664428490E+03  0.00000000000E+00 0. -1.
          1    1    1    2  502    0 -0.21507039720E+02  0.64094975622E+02  0.23992063843E+04  0.24001587433E+04  0.00000000000E+00 0. -1.
         22    1    3    3    0    0 -0.27646855420E+02 -0.47631531505E+02 -0.75068613405E+02  0.93104286296E+02  0.00000000000E+00 0.  1.
         22    1    3    3    0    0  0.18741277584E+02 -0.72095539441E+02  0.38749971364E+02  0.83967628128E+02  0.00000000000E+00 0.  1.
</event>
<event>
 7    1  0.6557591E-006  0.8119491E+02  0.7818608E-02  0.1430709E+00
          2   -1    0    0  502    0  0.00000000000E+00  0.00000000000E+00  0.12588587789E+03  0.12588587789E+03  0.00000000000E+00 0. -1.
          1   -1    0    0  501    0 -0.00000000000E+00 -0.00000000000E+00 -0.37199206022E+03  0.37199206022E+03  0.00000000000E+00 0. -1.
         25    2    1    2    0    0 -0.48964657084E+02 -0.93595988528E+02 -0.23693188198E+03  0.28795801644E+03  0.12500142327E+03 0.  0.
          2    1    1    2  501    0 -0.42875475650E+01  0.34089942850E+02 -0.89978296099E+02  0.96315113231E+02  0.00000000000E+00 0. -1.
          1    1    1    2  502    0  0.53252204649E+02  0.59506045677E+02  0.80803995747E+02  0.11360480844E+03  0.00000000000E+00 0. -1.
         22    1    3    3    0    0 -0.28185644332E+01 -0.30340643301E+01 -0.16108093951E+03  0.16113416436E+03  0.00000000000E+00 0.  1.
         22    1    3    3    0    0 -0.46146092651E+02 -0.90561924197E+02 -0.75850942478E+02  0.12682385208E+03  0.00000000000E+00 0.  1.
</event>
<event>
 7    1  0.6557591E-006  0.8233687E+02  0.7818608E-02  0.1456280E+00
          2   -1    0    0  502    0  0.00000000000E+00  0.00000000000E+00  0.77757492893E+02  0.77757492893E+02  0.00000000000E+00 0. -1.
          1   -1    0    0  501    0 -0.00000000000E+00 -0.00000000000E+00 -0.18585645521E+04  0.18585645521E+04  0.00000000000E+00 0. -1.
         25    2    1    2    0    0 -0.48090996508E+02 -0.45955162107E+02 -0.65884515056E+02  0.15617259736E+03  0.12499795988E+03 0.  0.
          2    1    1    2  501    0  0.74377565725E+02  0.36267630861E+02 -0.17403497838E+04  0.17423159109E+04  0.00000000000E+00 0. -1.
          1    1    1    2  502    0 -0.26286569217E+02  0.96875312454E+01  0.25427239680E+02  0.37833536718E+02  0.00000000000E+00 0. -1.
         22    1    3    3    0    0 -0.67353174464E+02 -0.15250957358E+02 -0.89400172910E+02  0.11296651153E+03  0.00000000000E+00 0.  1.
         22    1    3    3    0    0  0.19262177956E+02 -0.30704204749E+02  0.23515657855E+02  0.43206085835E+02  0.00000000000E+00 0.  1.
</event>
<event>
 7    1  0.1167806E-005  0.8290827E+02  0.7818608E-02  0.1331379E+00
          2   -1    0    0  502    0  0.00000000000E+00  0.00000000000E+00  0.26962693364E+04  0.26962693364E+04  0.00000000000E+00 0. -1.
          1   -1    0    0  501    0 -0.00000000000E+00 -0.00000000000E+00 -0.83710485489E+03  0.83710485489E+03  0.00000000000E+00 0. -1.
         25    2    1    2    0    0 -0.11252208393E+03  0.95202228177E+02 -0.16758002234E+03  0.25579935629E+03  0.12500225265E+03 0.  0.
          2    1    1    2  501    0  0.72032731139E+02 -0.23046270650E+02 -0.62248051450E+03  0.62705808015E+03  0.00000000000E+00 0. -1.
          1    1    1    2  502    0  0.40489352787E+02 -0.72155957528E+02  0.26492250183E+04  0.26505167548E+04  0.00000000000E+00 0. -1.
         22    1    3    3    0    0 -0.11262607026E+03  0.25083138886E+02 -0.13750305680E+03  0.17950177210E+03  0.00000000000E+00 0.  1.
         22    1    3    3    0    0  0.10398633176E+00  0.70119089291E+02 -0.30076965539E+02  0.76297584183E+02  0.00000000000E+00 0.  1.
</event>
<event>
 7    1  0.6557591E-006  0.9003802E+02  0.7818608E-02  0.1352766E+00
          2   -1    0    0  502    0  0.00000000000E+00  0.00000000000E+00  0.32407309839E+03  0.32407309839E+03  0.00000000000E+00 0. -1.
          1   -1    0    0  501    0 -0.00000000000E+00 -0.00000000000E+00 -0.59691925878E+03  0.59691925878E+03  0.00000000000E+00 0. -1.
         25    2    1    2    0    0 -0.11770978260E+03 -0.51011821913E+02 -0.20755847623E+03  0.27415927828E+03  0.12499995967E+03 0.  0.
          2    1    1    2  501    0  0.28487806517E+02  0.50403370582E+02 -0.34675868647E+03  0.35155887349E+03  0.00000000000E+00 0. -1.
          1    1    1    2  502    0  0.89221976087E+02  0.60845133197E+00  0.28147100231E+03  0.29527420539E+03  0.00000000000E+00 0. -1.
         22    1    3    3    0    0 -0.49060198889E+02  0.26167671518E+02 -0.14025435257E+03  0.15087389954E+03  0.00000000000E+00 0.  1.
         22    1    3    3    0    0 -0.68649583715E+02 -0.77179493431E+02 -0.67304123662E+02  0.12328537875E+03  0.00000000000E+00 0.  1.
</event>
<event>
 7    1  0.6557591E-006  0.5504569E+02  0.7818608E-02  0.1452674E+00
          2   -1    0    0  502    0  0.00000000000E+00  0.00000000000E+00  0.27530203694E+03  0.27530203694E+03  0.00000000000E+00 0. -1.
          1   -1    0    0  501    0 -0.00000000000E+00 -0.00000000000E+00 -0.11512797861E+03  0.11512797861E+03  0.00000000000E+00 0. -1.
         25    2    1    2    0    0 -0.36454394899E+02  0.47375403765E+02 -0.21974581034E+02  0.14028686080E+03  0.12499667720E+03 0.  0.
          2    1    1    2  501    0  0.42296152077E+02  0.78867965495E+01 -0.14804202731E+02  0.45500884155E+02  0.00000000000E+00 0. -1.
          1    1    1    2  502    0 -0.58417571777E+01 -0.55262200315E+02  0.19695284209E+03  0.20464227060E+03  0.00000000000E+00 0. -1.
         22    1    3    3    0    0  0.99472173387E+01  0.75993379906E+02  0.96732889532E+01  0.77249682469E+02  0.00000000000E+00 0. -1.
         22    1    3    3    0    0 -0.46401612238E+02 -0.28617976141E+02 -0.31647869987E+02  0.63037178327E+02  0.00000000000E+00 0. -1.
</event>
<event>
 7    1  0.6557591E-006  0.5032395E+02  0.7818608E-02  0.1444772E+00
          2   -1    0    0  502    0  0.00000000000E+00  0.00000000000E+00  0.85608048731E+03  0.85608048731E+03  0.00000000000E+00 0. -1.
          1   -1    0    0  501    0 -0.00000000000E+00 -0.00000000000E+00 -0.11310832372E+03  0.11310832372E+03  0.00000000000E+00 0. -1.
         25    2    1    2    0    0 -0.48448722359E+02  0.24302982796E+02  0.55248542950E+03  0.56903644857E+03  0.12499766527E+03 0.  0.
          2    1    1    2  501    0  0.40812912126E+02  0.29441571310E+02 -0.96095015550E+02  0.10847466032E+03  0.00000000000E+00 0. -1.
          1    1    1    2  502    0  0.76358102332E+01 -0.53744554106E+02  0.28658174965E+03  0.29167770214E+03  0.00000000000E+00 0. -1.
         22    1    3    3    0    0 -0.49259871342E+02 -0.40897212961E+01  0.53131825556E+03  0.53361254618E+03  0.00000000000E+00 0. -1.
         22    1    3    3    0    0  0.81114898298E+00  0.28392704092E+02  0.21167173936E+02  0.35423902393E+02  0.00000000000E+00 0. -1.
</event>
<event>
 7    1  0.6557591E-006  0.8912070E+02  0.7818608E-02  0.1422197E+00
          2   -1    0    0  502    0  0.00000000000E+00  0.00000000000E+00  0.66075154359E+02  0.66075154359E+02  0.00000000000E+00 0. -1.
          1   -1    0    0  501    0 -0.00000000000E+00 -0.00000000000E+00 -0.22321290591E+04  0.22321290591E+04  0.00000000000E+00 0. -1.
         25    2    1    2    0    0  0.55915217914E+02  0.71878020297E+02 -0.12671321455E+04  0.12765339322E+04  0.12498817704E+03 0.  0.
          2    1    1    2  501    0 -0.30484810091E+02  0.13647915735E+02 -0.92740607315E+03  0.92800733498E+03  0.00000000000E+00 0. -1.
          1    1    1    2  502    0 -0.25430407824E+02 -0.85525936032E+02  0.28484313906E+02  0.93662946328E+02  0.00000000000E+00 0. -1.
         22    1    3    3    0    0 -0.13039907613E+02 -0.22109410639E+02 -0.88383000259E+02  0.92034884496E+02  0.00000000000E+00 0. -1.
         22    1    3    3    0    0  0.68955125527E+02  0.93987430937E+02 -0.11787491453E+04  0.11844990477E+04  0.00000000000E+00 0. -1.
</event>
<event>
 7    1  0.6557591E-006  0.6531570E+02  0.7818608E-02  0.1531325E+00
          2   -1    0    0  502    0  0.00000000000E+00  0.00000000000E+00  0.62924020814E+02  0.62924020814E+02  0.00000000000E+00 0. -1.
          1   -1    0    0  501    0 -0.00000000000E+00 -0.00000000000E+00 -0.88979384654E+03  0.88979384654E+03  0.00000000000E+00 0. -1.
         25    2    1    2    0    0 -0.42193772278E+02  0.54833100123E+02 -0.14154398989E+03  0.20111647360E+03  0.12500460627E+03 0.  0.
          2    1    1    2  501    0 -0.11277347607E+02 -0.17700019539E+02 -0.68617484739E+03  0.68649573229E+03  0.00000000000E+00 0. -1.
          1    1    1    2  502    0  0.53471119886E+02 -0.37133080584E+02  0.84901155055E+00  0.65105661475E+02  0.00000000000E+00 0. -1.
         22    1    3    3    0    0 -0.45742834141E+02 -0.32023574691E+02 -0.59182175277E+02  0.81366123674E+02  0.00000000000E+00 0.  1.
         22    1    3    3    0    0  0.35490618628E+01  0.86856674814E+02 -0.82361814616E+02  0.11975034992E+03  0.00000000000E+00 0.  1.
</event>
<event>
 7    1  0.6557591E-006  0.4741927E+02  0.7818608E-02  0.1494077E+00
          2   -1    0    0  502    0  0.00000000000E+00  0.00000000000E+00  0.16148000278E+04  0.16148000278E+04  0.00000000000E+00 0. -1.
          1   -1    0    0  501    0 -0.00000000000E+00 -0.00000000000E+00 -0.56550499049E+03  0.56550499049E+03  0.00000000000E+00 0. -1.
         25    2    1    2    0    0  0.39271662581E+01 -0.24760585047E+02  0.51257816862E+00  0.12749255116E+03  0.12500231461E+03 0.  0.
          2    1    1    2  501    0 -0.35575699263E+02 -0.10794889450E+02 -0.50096076702E+03  0.50233838208E+03  0.00000000000E+00 0. -1.
          1    1    1    2  502    0  0.31648533005E+02  0.35555474497E+02  0.15497432262E+04  0.15504740851E+04  0.00000000000E+00 0. -1.
         22    1    3    3    0    0 -0.22888262312E+02 -0.91545848492E+01  0.57525171458E+02  0.62584537441E+02  0.00000000000E+00 0.  1.
         22    1    3    3    0    0  0.26815428570E+02 -0.15606000198E+02 -0.57012593290E+02  0.64908013721E+02  0.00000000000E+00 0.  1.
</event>
<event>
 7    1  0.6557591E-006  0.4131461E+02  0.7818608E-02  0.1578131E+00
          2   -1    0    0  502    0  0.00000000000E+00  0.00000000000E+00  0.27934004672E+03  0.27934004672E+03  0.00000000000E+00 0. -1.
          1   -1    0    0  501    0 -0.00000000000E+00 -0.00000000000E+00 -0.15457750337E+03  0.15457750337E+03  0.00000000000E+00 0. -1.
         25    2    1    2    0    0  0.30541558470E+02 -0.10540147222E+01  0.11728636593E+03  0.17411114242E+03  0.12499880215E+03 0.  0.
          2    1    1    2  501    0  0.62303300659E+01  0.23807384545E+02 -0.12139995961E+03  0.12386911949E+03  0.00000000000E+00 0. -1.
          1    1    1    2  502    0 -0.36771888536E+02 -0.22753369822E+02  0.12887613702E+03  0.13593728818E+03  0.00000000000E+00 0. -1.
         22    1    3    3    0    0 -0.14404077349E+02 -0.21767820637E+02  0.12166053430E+03  0.12442910055E+03  0.00000000000E+00 0.  1.
         22    1    3    3    0    0  0.44945635819E+02  0.20713805915E+02 -0.43741683650E+01  0.49682041862E+02  0.00000000000E+00 0.  1.
</event>
<event>
 7    1  0.6557591E-006  0.1299149E+03  0.7818608E-02  0.1299037E+00
          2   -1    0    0  502    0  0.00000000000E+00  0.00000000000E+00  0.24078902223E+04  0.24078902223E+04  0.00000000000E+00 0. -1.
          1   -1    0    0  501    0 -0.00000000000E+00 -0.00000000000E+00 -0.33268286520E+02  0.33268286520E+02  0.00000000000E+00 0. -1.
         25    2    1    2    0    0  0.17745130043E+03 -0.20639085443E+02  0.91864882189E+03  0.94416974444E+03  0.12500364988E+03 0.  0.
          2    1    1    2  501    0 -0.62541059802E+02 -0.16086294302E+02  0.40160947764E+02  0.76046398671E+02  0.00000000000E+00 0. -1.
          1    1    1    2  502    0 -0.11491024063E+03  0.36725379745E+02  0.14158121661E+04  0.14209423657E+04  0.00000000000E+00 0. -1.
         22    1    3    3    0    0  0.72964178612E+02  0.51138822123E+02  0.31530216704E+03  0.32764982379E+03  0.00000000000E+00 0. -1.
         22    1    3    3    0    0  0.10448712182E+03 -0.71777907566E+02  0.60334665485E+03  0.61651992065E+03  0.00000000000E+00 0. -1.
</event>
<event>
 7    1  0.6557591E-006  0.5436990E+02  0.7818608E-02  0.1457063E+00
          2   -1    0    0  502    0  0.00000000000E+00  0.00000000000E+00  0.56214660102E+03  0.56214660102E+03  0.00000000000E+00 0. -1.
          1   -1    0    0  501    0 -0.00000000000E+00 -0.00000000000E+00 -0.48951032787E+03  0.48951032787E+03  0.00000000000E+00 0. -1.
         25    2    1    2    0    0  0.28538475026E+02  0.61966473654E+02  0.14769358818E+03  0.20516429494E+03  0.12499881405E+03 0.  0.
          2    1    1    2  501    0 -0.41188525719E+02 -0.91077389276E+01 -0.45788598970E+03  0.45982499402E+03  0.00000000000E+00 0. -1.
          1    1    1    2  502    0  0.12650050693E+02 -0.52858734727E+02  0.38282867468E+03  0.38666763994E+03  0.00000000000E+00 0. -1.
         22    1    3    3    0    0  0.43901491977E+02  0.61594340060E+02  0.16530653840E+03  0.18178959091E+03  0.00000000000E+00 0.  1.
         22    1    3    3    0    0 -0.15363016951E+02  0.37213359436E+00 -0.17612950218E+02  0.23374704033E+02  0.00000000000E+00 0.  1.
</event>
<event>
 7    1  0.6557591E-006  0.7859348E+02  0.7818608E-02  0.1461614E+00
          2   -1    0    0  502    0  0.00000000000E+00  0.00000000000E+00  0.19709520152E+04  0.19709520152E+04  0.00000000000E+00 0. -1.
          1   -1    0    0  501    0 -0.00000000000E+00 -0.00000000000E+00 -0.25645154888E+04  0.25645154888E+04  0.00000000000E+00 0. -1.
         25    2    1    2    0    0 -0.80751666028E+02 -0.67684753710E+02 -0.44919158324E+03  0.47801649644E+03  0.12499853985E+03 0.  0.
          2    1    1    2  501    0  0.60748213258E+02  0.47761945965E+02 -0.21000989421E+04  0.21015201915E+04  0.00000000000E+00 0. -1.
          1    1    1    2  502    0  0.20003452771E+02  0.19922807745E+02  0.19557270517E+04  0.19559308160E+04  0.00000000000E+00 0. -1.
         22    1    3    3    0    0  0.22274305367E+01 -0.79569608239E+02 -0.22506498615E+03  0.23872689834E+03  0.00000000000E+00 0. -1.
         22    1    3    3    0    0 -0.82979096565E+02  0.11884854529E+02 -0.22412659709E+03  0.23928959810E+03  0.00000000000E+00 0. -1.
</event>
<event>
 7    1  0.6557591E-006  0.4094251E+03  0.7818608E-02  0.1261513E+00
          2   -1    0    0  502    0  0.00000000000E+00  0.00000000000E+00  0.80241183598E+03  0.80241183598E+03  0.00000000000E+00 0. -1.
          1   -1    0    0  501    0 -0.00000000000E+00 -0.00000000000E+00 -0.36164670057E+03  0.36164670057E+03  0.00000000000E+00 0. -1.
         25    2    1    2    0    0  0.38813047628E+03 -0.24627135691E+02 -0.12128987438E+03  0.42613092595E+03  0.12499827996E+03 0.  0.
          2    1    1    2  501    0  0.24354924083E+02 -0.16255639585E+02 -0.10475484020E+02  0.31098937456E+02  0.00000000000E+00 0. -1.
          1    1    1    2  502    0 -0.41248540036E+03  0.40882775276E+02  0.57253049381E+03  0.70682867314E+03  0.00000000000E+00 0. -1.
         22    1    3    3    0    0  0.82003680779E+02  0.44277319668E+02 -0.43502798331E+02  0.10284735369E+03  0.00000000000E+00 0. -1.
         22    1    3    3    0    0  0.30612679550E+03 -0.68904455359E+02 -0.77787076053E+02  0.32328357226E+03  0.00000000000E+00 0. -1.
</event>
<event>
 7    1  0.6557591E-006  0.4520741E+02  0.7818608E-02  0.1535747E+00
          2   -1    0    0  502    0  0.00000000000E+00  0.00000000000E+00  0.13966642483E+04  0.13966642483E+04  0.00000000000E+00 0. -1.
          1   -1    0    0  501    0 -0.00000000000E+00 -0.00000000000E+00 -0.36303028191E+03  0.36303028191E+03  0.00000000000E+00 0. -1.
         25    2    1    2    0    0  0.14197485682E+02 -0.32446887382E+02  0.34301008119E+02  0.13437013567E+03  0.12499762039E+03 0.  0.
          2    1    1    2  501    0 -0.40915389315E+02  0.20047606427E+02 -0.31117120507E+03  0.31448925971E+03  0.00000000000E+00 0. -1.
          1    1    1    2  502    0  0.26717903633E+02  0.12399280955E+02  0.13105041634E+04  0.13108351349E+04  0.00000000000E+00 0. -1.
         22    1    3    3    0    0 -0.46942930146E+02  0.11919598068E+02 -0.59118200223E+01  0.48792060059E+02  0.00000000000E+00 0. -1.
         22    1    3    3    0    0  0.61140415828E+02 -0.44366485451E+02  0.40212828142E+02  0.85578075615E+02  0.00000000000E+00 0. -1.
</event>
<event>
 7    1  0.6557591E-006  0.6471251E+02  0.7818608E-02  0.1451933E+00
          2   -1    0    0  502    0  0.00000000000E+00  0.00000000000E+00  0.58817373116E+02  0.58817373116E+02  0.00000000000E+00 0. -1.
          1   -1    0    0  501    0 -0.00000000000E+00 -0.00000000000E+00 -0.14778679498E+04  0.14778679498E+04  0.00000000000E+00 0. -1.
         25    2    1    2    0    0 -0.26924543593E+02 -0.32595515568E+02 -0.10327620451E+03  0.16756317652E+03  0.12499618004E+03 0.  0.
          2    1    1    2  501    0  0.10516658601E+01 -0.36782639294E+02 -0.12902888932E+04  0.12908135018E+04  0.00000000000E+00 0. -1.
          1    1    1    2  502    0  0.25872877733E+02  0.69378154861E+02 -0.25485478943E+02  0.78308644549E+02  0.00000000000E+00 0. -1.
         22    1    3    3    0    0 -0.77010165445E+02 -0.14628267911E+02 -0.55440368585E+02  0.96011386162E+02  0.00000000000E+00 0.  1.
         22    1    3    3    0    0  0.50085621852E+02 -0.17967247656E+02 -0.47835835924E+02  0.71551790356E+02  0.00000000000E+00 0.  1.
</event>
<event>
 7    1  0.6557591E-006  0.7367950E+02  0.7818608E-02  0.1437164E+00
          2   -1    0    0  502    0  0.00000000000E+00  0.00000000000E+00  0.86857956819E+03  0.86857956819E+03  0.00000000000E+00 0. -1.
          1   -1    0    0  501    0 -0.00000000000E+00 -0.00000000000E+00 -0.36085424113E+03  0.36085424113E+03  0.00000000000E+00 0. -1.
         25    2    1    2    0    0 -0.23915144183E+02  0.44177960884E+02  0.46219784146E+03  0.48143045038E+03  0.12499923023E+03 0.  0.
          2    1    1    2  501    0 -0.27043831178E+02  0.23860239672E+02 -0.34573610037E+03  0.34761204084E+03  0.00000000000E+00 0. -1.
          1    1    1    2  502    0  0.50958975361E+02 -0.68038200556E+02  0.39126358596E+03  0.40039131809E+03  0.00000000000E+00 0. -1.
         22    1    3    3    0    0 -0.73388002981E+02  0.32793819241E+02  0.33424923668E+03  0.34377868721E+03  0.00000000000E+00 0. -1.
         22    1    3    3    0    0  0.49472858798E+02  0.11384141643E+02  0.12794860478E+03  0.13765176317E+03  0.00000000000E+00 0. -1.
</event>
<event>
 7    1  0.6557591E-006  0.3355529E+02  0.7818608E-02  0.1579508E+00
          2   -1    0    0  502    0  0.00000000000E+00  0.00000000000E+00  0.11449698504E+04  0.11449698504E+04  0.00000000000E+00 0. -1.
          1   -1    0    0  501    0 -0.00000000000E+00 -0.00000000000E+00 -0.53702314148E+03  0.53702314148E+03  0.00000000000E+00 0. -1.
         25    2    1    2    0    0 -0.38509655483E+02 -0.18278833989E+02 -0.22587514401E+02  0.13398978902E+03  0.12500383361E+03 0.  0.
          2    1    1    2  501    0  0.26967948724E+02 -0.13239972506E+02 -0.45798363795E+03  0.45896795069E+03  0.00000000000E+00 0. -1.
          1    1    1    2  502    0  0.11541706759E+02  0.31518806494E+02  0.10885178613E+04  0.10890352522E+04  0.00000000000E+00 0. -1.
         22    1    3    3    0    0  0.44139381531E+02 -0.19883091306E+02 -0.16320464784E+02  0.51087962306E+02  0.00000000000E+00 0. -1.
         22    1    3    3    0    0 -0.82649037014E+02  0.16042573175E+01 -0.62670496171E+01  0.82901826710E+02  0.00000000000E+00 0. -1.
</event>
<event>
 7    1  0.6557591E-006  0.1660676E+03  0.7818608E-02  0.1285741E+00
          2   -1    0    0  502    0  0.00000000000E+00  0.00000000000E+00  0.12067666069E+04  0.12067666069E+04  0.00000000000E+00 0. -1.
          1   -1    0    0  501    0 -0.00000000000E+00 -0.00000000000E+00 -0.71507800631E+02  0.71507800631E+02  0.00000000000E+00 0. -1.
         25    2    1    2    0    0 -0.66946411741E+02  0.15366677666E+03  0.98187782812E+03  0.10038944818E+04  0.12499904368E+03 0.  0.
          2    1    1    2  501    0  0.55461414991E+02  0.13954723271E+02  0.22714188699E+02  0.61535658139E+02  0.00000000000E+00 0. -1.
          1    1    1    2  502    0  0.11484996750E+02 -0.16762149994E+03  0.13066678948E+03  0.21284426763E+03  0.00000000000E+00 0. -1.
         22    1    3    3    0    0 -0.70648804235E+02  0.10867604738E+03  0.40464599374E+03  0.42490012599E+03  0.00000000000E+00 0. -1.
         22    1    3    3    0    0  0.37023924937E+01  0.44990729290E+02  0.57723183438E+03  0.57899435580E+03  0.00000000000E+00 0. -1.
</event>
<event>
 7    1  0.6557591E-006  0.1810828E+03  0.7818608E-02  0.1310540E+00
          2   -1    0    0  502    0  0.00000000000E+00  0.00000000000E+00  0.11305018108E+04  0.11305018108E+04  0.00000000000E+00 0. -1.
          1   -1    0    0  501    0 -0.00000000000E+00 -0.00000000000E+00 -0.38972393120E+03  0.38972393120E+03  0.00000000000E+00 0. -1.
         25    2    1    2    0    0 -0.29801484720E+01 -0.21653044712E+03  0.16247659585E+03  0.29819117612E+03  0.12500007001E+03 0.  0.
          2    1    1    2  501    0 -0.10473782454E+02  0.17705879444E+03 -0.29689721319E+03  0.34584313208E+03  0.00000000000E+00 0. -1.
          1    1    1    2  502    0  0.13453930926E+02  0.39471652681E+02  0.87519849696E+03  0.87619143382E+03  0.00000000000E+00 0. -1.
         22    1    3    3    0    0  0.36386100446E+02 -0.20508753249E+03  0.14402081070E+03  0.25323277474E+03  0.00000000000E+00 0. -1.
         22    1    3    3    0    0 -0.39366248918E+02 -0.11442914629E+02  0.18455785153E+02  0.44958401381E+02  0.00000000000E+00 0. -1.
</event>
<event>
 7    1  0.6557591E-006  0.1320093E+03  0.7818608E-02  0.1348039E+00
          2   -1    0    0  502    0  0.00000000000E+00  0.00000000000E+00  0.18795876648E+03  0.18795876648E+03  0.00000000000E+00 0. -1.
          1   -1    0    0  501    0 -0.00000000000E+00 -0.00000000000E+00 -0.53143569011E+03  0.53143569011E+03  0.00000000000E+00 0. -1.
         25    2    1    2    0    0  0.13495165582E+03  0.27961690809E+02 -0.11116509264E+03  0.21673618688E+03  0.12499236505E+03 0.  0.
          2    1    1    2  501    0 -0.37005733632E+01 -0.40946046738E+02 -0.33374814726E+03  0.33627087115E+03  0.00000000000E+00 0. -1.
          1    1    1    2  502    0 -0.13125108246E+03  0.12984355930E+02  0.10143631626E+03  0.16638739857E+03  0.00000000000E+00 0. -1.
         22    1    3    3    0    0  0.12394204369E+01 -0.19142445105E+02  0.16994079769E+02  0.25627487485E+02  0.00000000000E+00 0. -1.
         22    1    3    3    0    0  0.13371223538E+03  0.47104135913E+02 -0.12815917241E+03  0.19110869939E+03  0.00000000000E+00 0. -1.
</event>
<event>
 7    1  0.6557591E-006  0.7357735E+02  0.7818608E-02  0.1348646E+00
          2   -1    0    0  502    0  0.00000000000E+00  0.00000000000E+00  0.20221800955E+03  0.20221800955E+03  0.00000000000E+00 0. -1.
          1   -1    0    0  501    0 -0.00000000000E+00 -0.00000000000E+00 -0.23915462556E+03  0.23915462556E+03  0.00000000000E+00 0. -1.
         25    2    1    2    0    0 -0.33220825072E+02 -0.59788117300E+02 -0.57591079414E+02  0.15369803537E+03  0.12501244522E+03 0.  0.
          2    1    1    2  501    0  0.82236811882E+02  0.49150005057E+01 -0.11017765558E+03  0.13757240366E+03  0.00000000000E+00 0. -1.
          1    1    1    2  502    0 -0.49015986810E+02  0.54873116794E+02  0.13083211899E+03  0.15010219608E+03  0.00000000000E+00 0. -1.
         22    1    3    3    0    0  0.10665254553E+02  0.20753153608E+02 -0.57415981172E+02  0.61976091627E+02  0.00000000000E+00 0.  1.
         22    1    3    3    0    0 -0.43886079624E+02 -0.80541270908E+02 -0.17509824246E+00  0.91721943741E+02  0.00000000000E+00 0.  1.
</event>
<event>
 7    1  0.6557591E-006  0.8686744E+02  0.7818608E-02  0.1417747E+00
          2   -1    0    0  502    0  0.00000000000E+00  0.00000000000E+00  0.55067801924E+03  0.55067801924E+03  0.00000000000E+00 0. -1.
          1   -1    0    0  501    0 -0.00000000000E+00 -0.00000000000E+00 -0.22445467577E+03  0.22445467577E+03  0.00000000000E+00 0. -1.
         25    2    1    2    0    0  0.20077259051E+02  0.11636732438E+03  0.17301643707E+03  0.24393553216E+03  0.12500162335E+03 0.  0.
          2    1    1    2  501    0 -0.27705760993E+01 -0.85417884897E+02 -0.17833964586E+03  0.19775975434E+03  0.00000000000E+00 0. -1.
          1    1    1    2  502    0 -0.17306682952E+02 -0.30949439482E+02  0.33154655225E+03  0.33343740850E+03  0.00000000000E+00 0. -1.
         22    1    3    3    0    0 -0.11156877640E+02 -0.16400036075E+02  0.70706690800E+02  0.73436184717E+02  0.00000000000E+00 0. -1.
         22    1    3    3    0    0  0.31234136691E+02  0.13276736045E+03  0.10230974627E+03  0.17049934745E+03  0.00000000000E+00 0. -1.
</event>
<event>
 7    1  0.6557591E-006  0.1490770E+03  0.7818608E-02  0.1299523E+00
          2   -1    0    0  502    0  0.00000000000E+00  0.00000000000E+00  0.13790270616E+03  0.13790270616E+03  0.00000000000E+00 0. -1.
          1   -1    0    0  501    0 -0.00000000000E+00 -0.00000000000E+00 -0.30448016576E+03  0.30448016576E+03  0.00000000000E+00 0. -1.
         25    2    1    2    0    0 -0.12802819640E+03  0.96556296935E+02 -0.12477167776E+03  0.23855200105E+03  0.12499899233E+03 0.  0.
          2    1    1    2  501    0  0.76656116472E+02 -0.11890852961E+03 -0.16766805945E+02  0.14246587096E+03  0.00000000000E+00 0. -1.
          1    1    1    2  502    0  0.51372079924E+02  0.22352232672E+02 -0.25038975887E+02  0.61364999915E+02  0.00000000000E+00 0. -1.
         22    1    3    3    0    0 -0.11340098530E+03  0.11138026163E+03 -0.58975991755E+02  0.16953912160E+03  0.00000000000E+00 0.  1.
         22    1    3    3    0    0 -0.14627211092E+02 -0.14823964691E+02 -0.65795686006E+02  0.69012879454E+02  0.00000000000E+00 0.  1.
</event>
<event>
 7    1  0.6557591E-006  0.5564750E+02  0.7818608E-02  0.1463262E+00
          2   -1    0    0  502    0  0.00000000000E+00  0.00000000000E+00  0.14137433296E+04  0.14137433296E+04  0.00000000000E+00 0. -1.
          1   -1    0    0  501    0 -0.00000000000E+00 -0.00000000000E+00 -0.17976245904E+03  0.17976245904E+03  0.00000000000E+00 0. -1.
         25    2    1    2    0    0 -0.85022359008E+02 -0.40424358462E+02  0.19925794427E+03  0.25336326123E+03  0.12500513390E+03 0.  0.
          2    1    1    2  501    0  0.35373851564E+02  0.17352010288E+02 -0.14952540077E+03  0.15462938632E+03  0.00000000000E+00 0. -1.
          1    1    1    2  502    0  0.49648507443E+02  0.23072348174E+02  0.11842483271E+04  0.11855131411E+04  0.00000000000E+00 0. -1.
         22    1    3    3    0    0 -0.11096271338E+03 -0.51877954619E+02  0.13046771583E+03  0.17895773470E+03  0.00000000000E+00 0.  1.
         22    1    3    3    0    0  0.25940354372E+02  0.11453596157E+02  0.68790228442E+02  0.74405526535E+02  0.00000000000E+00 0.  1.
</event>
<event>
 7    1  0.6557591E-006  0.1130542E+03  0.7818608E-02  0.1408727E+00
          2   -1    0    0  502    0  0.00000000000E+00  0.00000000000E+00  0.12113223243E+04  0.12113223243E+04  0.00000000000E+00 0. -1.
          1   -1    0    0  501    0 -0.00000000000E+00 -0.00000000000E+00 -0.13743991441E+03  0.13743991441E+03  0.00000000000E+00 0. -1.
         25    2    1    2    0    0  0.12376903180E+03 -0.42133399218E+02  0.40893854774E+03  0.44715674107E+03  0.12499767476E+03 0.  0.
          2    1    1    2  501    0 -0.15342462136E+02  0.24871885123E+02 -0.11260918340E+03  0.11633928829E+03  0.00000000000E+00 0. -1.
          1    1    1    2  502    0 -0.10842656967E+03  0.17261514094E+02  0.77755304555E+03  0.78526620934E+03  0.00000000000E+00 0. -1.
         22    1    3    3    0    0  0.36250147163E+02 -0.66976399291E+02  0.27420272276E+03  0.28458222783E+03  0.00000000000E+00 0.  1.
         22    1    3    3    0    0  0.87518884639E+02  0.24843000073E+02  0.13473582499E+03  0.16257451324E+03  0.00000000000E+00 0.  1.
</event>
<event>
 7    1  0.6557591E-006  0.1747502E+03  0.7818608E-02  0.1335947E+00
          2   -1    0    0  502    0  0.00000000000E+00  0.00000000000E+00  0.62649851080E+03  0.62649851080E+03  0.00000000000E+00 0. -1.
          1   -1    0    0  501    0 -0.00000000000E+00 -0.00000000000E+00 -0.28438721226E+03  0.28438721226E+03  0.00000000000E+00 0. -1.
         25    2    1    2    0    0  0.10349286341E+03 -0.13360438471E+03  0.14420010318E+03  0.25491256815E+03  0.12500337298E+03 0.  0.
          2    1    1    2  501    0 -0.78758679836E+02  0.15762155206E+03 -0.19427243636E+03  0.26227707268E+03  0.00000000000E+00 0. -1.
          1    1    1    2  502    0 -0.24734183574E+02 -0.24017167349E+02  0.39218363173E+03  0.39369608223E+03  0.00000000000E+00 0. -1.
         22    1    3    3    0    0  0.71096592314E+01 -0.22922931432E+02 -0.22439663597E+02  0.32856453585E+02  0.00000000000E+00 0. -1.
         22    1    3    3    0    0  0.96383204179E+02 -0.11068145328E+03  0.16663976677E+03  0.22205611457E+03  0.00000000000E+00 0. -1.
</event>
<event>
 7    1  0.6557591E-006  0.2012646E+02  0.7818608E-02  0.1743796E+00
          2   -1    0    0  502    0  0.00000000000E+00  0.00000000000E+00  0.23288289098E+03  0.23288289098E+03  0.00000000000E+00 0. -1.
          1   -1    0    0  501    0 -0.00000000000E+00 -0.00000000000E+00 -0.76895657003E+03  0.76895657003E+03  0.00000000000E+00 0. -1.
         25    2    1    2    0    0  0.11241506140E+02 -0.36835203579E+02 -0.61943943949E+02  0.14472508459E+03  0.12500037694E+03 0.  0.
          2    1    1    2  501    0 -0.10956694414E+02  0.16809065269E+02 -0.66494662688E+03  0.66524928443E+03  0.00000000000E+00 0. -1.
          1    1    1    2  502    0 -0.28481172612E+00  0.20026138310E+02  0.19081689179E+03  0.19186509199E+03  0.00000000000E+00 0. -1.
         22    1    3    3    0    0  0.56787980215E+02 -0.54737268225E+02 -0.22931040248E+02  0.82139368371E+02  0.00000000000E+00 0. -1.
         22    1    3    3    0    0 -0.45546474075E+02  0.17902064646E+02 -0.39012903701E+02  0.62585716217E+02  0.00000000000E+00 0. -1.
</event>
<event>
 7    1  0.6557591E-006  0.1756667E+03  0.7818608E-02  0.1320589E+00
          2   -1    0    0  502    0  0.00000000000E+00  0.00000000000E+00  0.11948543118E+04  0.11948543118E+04  0.00000000000E+00 0. -1.
          1   -1    0    0  501    0 -0.00000000000E+00 -0.00000000000E+00 -0.30090490357E+03  0.30090490357E+03  0.00000000000E+00 0. -1.
         25    2    1    2    0    0  0.82685636145E+02 -0.18253287125E+03  0.40295099191E+01  0.23621158875E+03  0.12499805677E+03 0.  0.
          2    1    1    2  501    0 -0.87507790949E+02  0.14355820104E+03 -0.14612818065E+03  0.22275550665E+03  0.00000000000E+00 0. -1.
          1    1    1    2  502    0  0.48221548038E+01  0.38974670209E+02  0.10360480790E+04  0.10367921200E+04  0.00000000000E+00 0. -1.
         22    1    3    3    0    0  0.67487662810E+02 -0.13919548583E+03 -0.52517399314E+02  0.16336476100E+03  0.00000000000E+00 0.  1.
         22    1    3    3    0    0  0.15197973335E+02 -0.43337385419E+02  0.56546909233E+02  0.72846827743E+02  0.00000000000E+00 0.  1.
</event>
<event>
 7    1  0.6557591E-006  0.1466706E+03  0.7818608E-02  0.1269191E+00
          2   -1    0    0  502    0  0.00000000000E+00  0.00000000000E+00  0.62085773724E+03  0.62085773724E+03  0.00000000000E+00 0. -1.
          1   -1    0    0  501    0 -0.00000000000E+00 -0.00000000000E+00 -0.49710036542E+03  0.49710036542E+03  0.00000000000E+00 0. -1.
         25    2    1    2    0    0  0.16437990551E+02 -0.79429794645E+02 -0.31091210950E+02  0.15221814559E+03  0.12499760253E+03 0.  0.
          2    1    1    2  501    0  0.40360132791E+02 -0.64216807996E+02 -0.39108617762E+03  0.39837311289E+03  0.00000000000E+00 0. -1.
          1    1    1    2  502    0 -0.56798123343E+02  0.14364660264E+03  0.54593476039E+03  0.56736684418E+03  0.00000000000E+00 0. -1.
         22    1    3    3    0    0 -0.45746287492E+02 -0.55979738607E+02  0.11613985465E+02  0.73221162325E+02  0.00000000000E+00 0. -1.
         22    1    3    3    0    0  0.62184278044E+02 -0.23450056038E+02 -0.42705196415E+02  0.78996983264E+02  0.00000000000E+00 0. -1.
</event>
<event>
 7    1  0.6557591E-006  0.7597782E+02  0.7818608E-02  0.1424496E+00
          2   -1    0    0  502    0  0.00000000000E+00  0.00000000000E+00  0.15339219803E+04  0.15339219803E+04  0.00000000000E+00 0. -1.
          1   -1    0    0  501    0 -0.00000000000E+00 -0.00000000000E+00 -0.20447130629E+04  0.20447130629E+04  0.00000000000E+00 0. -1.
         25    2    1    2    0    0 -0.89682791151E+02  0.58335700602E+02 -0.96511794977E+02  0.19074737307E+03  0.12499590702E+03 0.  0.
          2    1    1    2  501    0  0.71479481110E+02 -0.24416961100E+02 -0.19000837927E+04  0.19015845823E+04  0.00000000000E+00 0. -1.
          1    1    1    2  502    0  0.18203310041E+02 -0.33918739502E+02  0.14858045051E+04  0.14863030878E+04  0.00000000000E+00 0. -1.
         22    1    3    3    0    0  0.32402031379E+01  0.39909751214E+02 -0.86710858959E+02  0.95509477120E+02  0.00000000000E+00 0. -1.
         22    1    3    3    0    0 -0.92922994289E+02  0.18425949387E+02 -0.98009360177E+01  0.95237895952E+02  0.00000000000E+00 0. -1.
</event>
<event>
 7    1  0.6557591E-006  0.3550448E+02  0.7818608E-02  0.1629549E+00
          2   -1    0    0  502    0  0.00000000000E+00  0.00000000000E+00  0.93281010424E+03  0.93281010424E+03  0.00000000000E+00 0. -1.
          1   -1    0    0  501    0 -0.00000000000E+00 -0.00000000000E+00 -0.25983300812E+02  0.25983300812E+02  0.00000000000E+00 0. -1.
         25    2    1    2    0    0  0.18557876275E+02 -0.25041912745E+01  0.56627482267E+03  0.58020985717E+03  0.12500255128E+03 0.  0.
          2    1    1    2  501    0  0.15858652173E+02 -0.13837904469E+02 -0.11832625358E+02  0.24145299164E+02  0.00000000000E+00 0. -1.
          1    1    1    2  502    0 -0.34416528448E+02  0.16342095743E+02  0.35238460612E+03  0.35443824872E+03  0.00000000000E+00 0. -1.
         22    1    3    3    0    0 -0.44577809610E+02 -0.33777127219E+02  0.25452845074E+03  0.26060085892E+03  0.00000000000E+00 0. -1.
         22    1    3    3    0    0  0.63135685885E+02  0.31272935945E+02  0.31174637193E+03  0.31960899825E+03  0.00000000000E+00 0. -1.
</event>
<event>
 7    1  0.6557591E-006  0.6456787E+02  0.7818608E-02  0.1451951E+00
          2   -1    0    0  502    0  0.00000000000E+00  0.00000000000E+00  0.70966777677E+03  0.70966777677E+03  0.00000000000E+00 0. -1.
          1   -1    0    0  501    0 -0.00000000000E+00 -0.00000000000E+00 -0.62576842193E+03  0.62576842193E+03  0.00000000000E+00 0. -1.
         25    2    1    2    0    0  0.59583529862E+02  0.50628108442E+02  0.16111835490E+03  0.21839764687E+03  0.12500002191E+03 0.  0.
          2    1    1    2  501    0  0.31033661705E+01 -0.36744616463E+02 -0.59457312450E+03  0.59571553455E+03  0.00000000000E+00 0. -1.
          1    1    1    2  502    0 -0.62686896033E+02 -0.13883491979E+02  0.51735412443E+03  0.52132301728E+03  0.00000000000E+00 0. -1.
         22    1    3    3    0    0 -0.16611583177E+02 -0.24139461372E+02  0.77314125682E+02  0.82680906628E+02  0.00000000000E+00 0.  1.
         22    1    3    3    0    0  0.76195113039E+02  0.74767569813E+02  0.83804229220E+02  0.13571674024E+03  0.00000000000E+00 0.  1.
</event>
<event>
 7    1  0.6557591E-006  0.7156188E+02  0.7818608E-02  0.1367642E+00
          2   -1    0    0  502    0  0.00000000000E+00  0.00000000000E+00  0.93301859672E+03  0.93301859672E+03  0.00000000000E+00 0. -1.
          1   -1    0    0  501    0 -0.00000000000E+00 -0.00000000000E+00 -0.36652651409E+03  0.36652651409E+03  0.00000000000E+00 0. -1.
         25    2    1    2    0    0 -0.25779372964E+02  0.97174950654E+02  0.82441347502E+02  0.18035972687E+03  0.12500203276E+03 0.  0.
          2    1    1    2  501    0 -0.32214853389E+02 -0.55632859833E+02 -0.31270379594E+03  0.31924359957E+03  0.00000000000E+00 0. -1.
          1    1    1    2  502    0  0.57994226353E+02 -0.41542090821E+02  0.79675453107E+03  0.79994178437E+03  0.00000000000E+00 0. -1.
         22    1    3    3    0    0 -0.42601551313E+02 -0.15813096578E+02  0.15808670090E+02  0.48112994583E+02  0.00000000000E+00 0.  1.
         22    1    3    3    0    0  0.16822178349E+02  0.11298804723E+03  0.66632677411E+02  0.13224673229E+03  0.00000000000E+00 0.  1.
</event>
<event>
 7    1  0.6557591E-006  0.1965160E+03  0.7818608E-02  0.1332343E+00
          2   -1    0    0  502    0  0.00000000000E+00  0.00000000000E+00  0.83904049167E+03  0.83904049167E+03  0.00000000000E+00 0. -1.
          1   -1    0    0  501    0 -0.00000000000E+00 -0.00000000000E+00 -0.28482190193E+03  0.28482190193E+03  0.00000000000E+00 0. -1.
         25    2    1    2    0    0 -0.10270393610E+03  0.18674690580E+03  0.32679982106E+03  0.40968975319E+03  0.12500026203E+03 0.  0.
          2    1    1    2  501    0  0.29095637197E+02 -0.12428463866E+02 -0.22320307112E+03  0.22543432253E+03  0.00000000000E+00 0. -1.
          1    1    1    2  502    0  0.73608298901E+02 -0.17431844194E+03  0.45062183979E+03  0.48873831788E+03  0.00000000000E+00 0. -1.
         22    1    3    3    0    0 -0.62446187136E+02  0.18168183630E+03  0.20337388125E+03  0.27976552951E+03  0.00000000000E+00 0.  1.
         22    1    3    3    0    0 -0.40257748962E+02  0.50650695071E+01  0.12342593981E+03  0.12992422368E+03  0.00000000000E+00 0.  1.
</event>
<event>
 7    1  0.6557591E-006  0.7765953E+02  0.7818608E-02  0.1383739E+00
          2   -1    0    0  502    0  0.00000000000E+00  0.00000000000E+00  0.25236873078E+04  0.25236873078E+04  0.00000000000E+00 0. -1.
          1   -1    0    0  501    0 -0.00000000000E+00 -0.00000000000E+00 -0.11350069403E+03  0.11350069403E+03  0.00000000000E+00 0. -1.
         25    2    1    2    0    0  0.47641378477E+02 -0.43896713799E+02  0.13787922250E+02  0.14146276489E+03  0.12499993850E+03 0.  0.
          2    1    1    2  501    0 -0.18530875854E+02  0.86873335312E+02 -0.94388088636E+01  0.89327828032E+02  0.00000000000E+00 0. -1.
          1    1    1    2  502    0 -0.29110502623E+02 -0.42976621512E+02  0.24058375004E+04  0.24063974089E+04  0.00000000000E+00 0. -1.
         22    1    3    3    0    0 -0.42283275834E+02 -0.24249206506E+02  0.47375749771E+01  0.48972890951E+02  0.00000000000E+00 0. -1.
         22    1    3    3    0    0  0.89924654311E+02 -0.19647507294E+02  0.90503472732E+01  0.92489873941E+02  0.00000000000E+00 0. -1.
</event>
<event>
 7    1  0.6557591E-006  0.2910469E+02  0.7818608E-02  0.1610041E+00
          2   -1    0    0  502    0  0.00000000000E+00  0.00000000000E+00  0.27872689352E+03  0.27872689352E+03  0.00000000000E+00 0. -1.
          1   -1    0    0  501    0 -0.00000000000E+00 -0.00000000000E+00 -0.10361254040E+03  0.10361254040E+03  0.00000000000E+00 0. -1.
         25    2    1    2    0    0 -0.32109324807E+02  0.16326344778E+02  0.20386227588E+03  0.24183099298E+03  0.12499937346E+03 0.  0.
          2    1    1    2  501    0  0.51583411104E+01 -0.28643926358E+02 -0.77875223940E+02  0.83136234603E+02  0.00000000000E+00 0. -1.
          1    1    1    2  502    0  0.26950983697E+02  0.12317581580E+02  0.49127301185E+02  0.57372206337E+02  0.00000000000E+00 0. -1.
         22    1    3    3    0    0 -0.53418502732E+02  0.48964347107E+02  0.18468059153E+03  0.19838841853E+03  0.00000000000E+00 0. -1.
         22    1    3    3    0    0  0.21309177925E+02 -0.32638002329E+02  0.19181684355E+02  0.43442574447E+02  0.00000000000E+00 0. -1.
</event>
<event>
 7    1  0.6557591E-006  0.2403358E+03  0.7818608E-02  0.1188928E+00
          2   -1    0    0  502    0  0.00000000000E+00  0.00000000000E+00  0.60606539374E+03  0.60606539374E+03  0.00000000000E+00 0. -1.
          1   -1    0    0  501    0 -0.00000000000E+00 -0.00000000000E+00 -0.79187090879E+03  0.79187090879E+03  0.00000000000E+00 0. -1.
         25    2    1    2    0    0 -0.13598897796E+02 -0.19818374507E+03  0.16603732900E+03  0.28749842561E+03  0.12500089310E+03 0.  0.
          2    1    1    2  501    0 -0.87929388036E+02  0.22949073122E+03 -0.70239019497E+03  0.74414350699E+03  0.00000000000E+00 0. -1.
          1    1    1    2  502    0  0.10152828583E+03 -0.31306986149E+02  0.35054735092E+03  0.36629436993E+03  0.00000000000E+00 0. -1.
         22    1    3    3    0    0  0.31852316875E+02 -0.12111004724E+03  0.37198525435E+02  0.13063668676E+03  0.00000000000E+00 0. -1.
         22    1    3    3    0    0 -0.45451214671E+02 -0.77073697835E+02  0.12883880357E+03  0.15686173886E+03  0.00000000000E+00 0. -1.
</event>
<event>
 7    1  0.6557591E-006  0.1267399E+03  0.7818608E-02  0.1401498E+00
          2   -1    0    0  502    0  0.00000000000E+00  0.00000000000E+00  0.84223867001E+03  0.84223867001E+03  0.00000000000E+00 0. -1.
          1   -1    0    0  501    0 -0.00000000000E+00 -0.00000000000E+00 -0.14368723229E+04  0.14368723229E+04  0.00000000000E+00 0. -1.
         25    2    1    2    0    0  0.42377465615E+02  0.14671385476E+03  0.41409778964E+03  0.45871789777E+03  0.12499730228E+03 0.  0.
          2    1    1    2  501    0 -0.27327809827E+02 -0.12358803088E+03 -0.14112576458E+04  0.14169223526E+04  0.00000000000E+00 0. -1.
          1    1    1    2  502    0 -0.15049655788E+02 -0.23125823878E+02  0.40252620318E+03  0.40347074258E+03  0.00000000000E+00 0. -1.
         22    1    3    3    0    0  0.14027542596E+02 -0.21523192145E+02  0.39807056607E+02  0.47377436688E+02  0.00000000000E+00 0.  1.
         22    1    3    3    0    0  0.28349923020E+02  0.16823704690E+03  0.37429073304E+03  0.41134046108E+03  0.00000000000E+00 0.  1.
</event>
<event>
 7    1  0.6557591E-006  0.1510521E+03  0.7818608E-02  0.1305308E+00
          2   -1    0    0  502    0  0.00000000000E+00  0.00000000000E+00  0.15913666959E+04  0.15913666959E+04  0.00000000000E+00 0. -1.
          1   -1    0    0  501    0 -0.00000000000E+00 -0.00000000000E+00 -0.27847143651E+03  0.27847143651E+03  0.00000000000E+00 0. -1.
         25    2    1    2    0    0  0.14477852260E+03 -0.58218021672E+01  0.25386271323E+03  0.31790939557E+03  0.12500157053E+03 0.  0.
          2    1    1    2  501    0 -0.14492689712E+03 -0.46609130595E+02 -0.22235048426E+03  0.26947347627E+03  0.00000000000E+00 0. -1.
          1    1    1    2  502    0  0.14837452318E+00  0.52430932763E+02  0.12813830304E+04  0.12824552605E+04  0.00000000000E+00 0. -1.
         22    1    3    3    0    0 -0.19349188593E+02  0.46654543430E+01  0.62460431223E+02  0.65555038189E+02  0.00000000000E+00 0.  1.
         22    1    3    3    0    0  0.16412771119E+03 -0.10487256510E+02  0.19140228201E+03  0.25235435738E+03  0.00000000000E+00 0.  1.
</event>
<event>
 7    1  0.6557591E-006  0.7994530E+02  0.7818608E-02  0.1402838E+00
          2   -1    0    0  502    0  0.00000000000E+00  0.00000000000E+00  0.40637495714E+03  0.40637495714E+03  0.00000000000E+00 0. -1.
          1   -1    0    0  501    0 -0.00000000000E+00 -0.00000000000E+00 -0.13328403502E+04  0.13328403502E+04  0.00000000000E+00 0. -1.
         25    2    1    2    0    0 -0.68193069964E+02 -0.78721452715E+02 -0.69180792309E+02  0.17679879470E+03  0.12499787948E+03 0.  0.
          2    1    1    2  501    0 -0.27493477868E+01  0.43194066021E+02 -0.12049933875E+04  0.12057704384E+04  0.00000000000E+00 0. -1.
          1    1    1    2  502    0  0.70942417750E+02  0.35527386694E+02  0.34770878678E+03  0.35664607420E+03  0.00000000000E+00 0. -1.
         22    1    3    3    0    0  0.15495851392E+01 -0.21065356772E+02 -0.82655802143E+02  0.85311969254E+02  0.00000000000E+00 0. -1.
         22    1    3    3    0    0 -0.69742655103E+02 -0.57656095944E+02  0.13475009835E+02  0.91486825447E+02  0.00000000000E+00 0. -1.
</event>
<event>
 7    1  0.6557591E-006  0.1084693E+03  0.7818608E-02  0.1458758E+00
          2   -1    0    0  502    0  0.00000000000E+00  0.00000000000E+00  0.34240422202E+03  0.34240422202E+03  0.00000000000E+00 0. -1.
          1   -1    0    0  501    0 -0.00000000000E+00 -0.00000000000E+00 -0.17821423748E+03  0.17821423748E+03  0.00000000000E+00 0. -1.
         25    2    1    2    0    0  0.79891277684E+02  0.87691879396E+02  0.17547143476E+03  0.24594330900E+03  0.12500161945E+03 0.  0.
          2    1    1    2  501    0 -0.84035650846E+02 -0.67222484814E+02 -0.12160962796E+03  0.16238766791E+03  0.00000000000E+00 0. -1.
          1    1    1    2  502    0  0.41443731617E+01 -0.20469394582E+02  0.11032817774E+03  0.11228748260E+03  0.00000000000E+00 0. -1.
         22    1    3    3    0    0  0.27156199997E+02 -0.21329030043E+02  0.22750478052E+01  0.34605816901E+02  0.00000000000E+00 0.  1.
         22    1    3    3    0    0  0.52735077687E+02  0.10902090944E+03  0.17319638695E+03  0.21133749210E+03  0.00000000000E+00 0.  1.
</event>
<event>
 7    1  0.7434352E-006  0.4352662E+02  0.7818608E-02  0.1535210E+00
          2   -1    0    0  502    0  0.00000000000E+00  0.00000000000E+00  0.17888605341E+04  0.17888605341E+04  0.00000000000E+00 0. -1.
          1   -1    0    0  501    0 -0.00000000000E+00 -0.00000000000E+00 -0.89503937683E+03  0.89503937683E+03  0.00000000000E+00 0. -1.
         25    2    1    2    0    0 -0.27813863276E+02 -0.54754891666E+02 -0.18950721118E+03  0.23517709323E+03  0.12499429164E+03 0.  0.
          2    1    1    2  501    0 -0.62457038462E+00  0.43190117656E+02 -0.68188038282E+03  0.68324712427E+03  0.00000000000E+00 0. -1.
          1    1    1    2  502    0  0.28438433660E+02  0.11564774010E+02  0.17652087513E+04  0.17654756934E+04  0.00000000000E+00 0. -1.
         22    1    3    3    0    0 -0.72275698535E+02 -0.28778572988E+02 -0.68443562842E+02  0.10361710359E+03  0.00000000000E+00 0.  1.
         22    1    3    3    0    0  0.44461835260E+02 -0.25976318678E+02 -0.12106364833E+03  0.13155998964E+03  0.00000000000E+00 0.  1.
</event>
<event>
 7    1  0.6557591E-006  0.6042365E+02  0.7818608E-02  0.1543871E+00
          2   -1    0    0  502    0  0.00000000000E+00  0.00000000000E+00  0.23347926927E+04  0.23347926927E+04  0.00000000000E+00 0. -1.
          1   -1    0    0  501    0 -0.00000000000E+00 -0.00000000000E+00 -0.14873285588E+03  0.14873285588E+03  0.00000000000E+00 0. -1.
         25    2    1    2    0    0  0.34404331202E+02  0.20449430743E+02  0.96372517337E+02  0.16284726765E+03  0.12501893160E+03 0.  0.
          2    1    1    2  501    0  0.15646964121E+02  0.13858796742E+02 -0.11412872767E+03  0.11602698054E+03  0.00000000000E+00 0. -1.
          1    1    1    2  502    0 -0.50051295324E+02 -0.34308227485E+02  0.22038160471E+04  0.22046513004E+04  0.00000000000E+00 0. -1.
         22    1    3    3    0    0 -0.40575023927E+02  0.29630617742E+02  0.62147380420E+02  0.79916224683E+02  0.00000000000E+00 0. -1.
         22    1    3    3    0    0  0.74979355130E+02 -0.91811869996E+01  0.34225136917E+02  0.82931042966E+02  0.00000000000E+00 0. -1.
</event>
<event>
 7    1  0.6557591E-006  0.5602448E+02  0.7818608E-02  0.1417115E+00
          2   -1    0    0  502    0  0.00000000000E+00  0.00000000000E+00  0.80840961798E+03  0.80840961798E+03  0.00000000000E+00 0. -1.
          1   -1    0    0  501    0 -0.00000000000E+00 -0.00000000000E+00 -0.18622763040E+03  0.18622763040E+03  0.00000000000E+00 0. -1.
         25    2    1    2    0    0 -0.23733746788E+02 -0.60969175189E+02  0.32331680894E+03  0.35276022297E+03  0.12500193963E+03 0.  0.
          2    1    1    2  501    0  0.53972140641E+02  0.11813940146E+02 -0.16522213868E+03  0.17421514359E+03  0.00000000000E+00 0. -1.
          1    1    1    2  502    0 -0.30238393854E+02  0.49155235043E+02  0.46408731732E+03  0.46766188181E+03  0.00000000000E+00 0. -1.
         22    1    3    3    0    0  0.27880647134E+01  0.35614238436E+02  0.48319177676E+02  0.60090683267E+02  0.00000000000E+00 0.  1.
         22    1    3    3    0    0 -0.26521811501E+02 -0.96583413625E+02  0.27499763126E+03  0.29266953971E+03  0.00000000000E+00 0.  1.
</event>
<event>
 7    1  0.6557591E-006  0.6455388E+02  0.7818608E-02  0.1513208E+00
          2   -1    0    0  502    0  0.00000000000E+00  0.00000000000E+00  0.25486245085E+03  0.25486245085E+03  0.00000000000E+00 0. -1.
          1   -1    0    0  501    0 -0.00000000000E+00 -0.00000000000E+00 -0.16472464138E+04  0.16472464138E+04  0.00000000000E+00 0. -1.
         25    2    1    2    0    0  0.56153173535E+02  0.50780508550E+02 -0.58625060818E+02  0.15746081018E+03  0.12500068016E+03 0.  0.
          2    1    1    2  501    0 -0.23534345260E+02  0.45010313206E+01 -0.15340940769E+04  0.15342811872E+04  0.00000000000E+00 0. -1.
          1    1    1    2  502    0 -0.32618828275E+02 -0.55281539871E+02  0.20033517474E+03  0.21036686728E+03  0.00000000000E+00 0. -1.
         22    1    3    3    0    0 -0.11110922697E+02  0.57928603397E+02 -0.67042166120E+02  0.89296291819E+02  0.00000000000E+00 0. -1.
         22    1    3    3    0    0  0.67264096232E+02 -0.71480948462E+01  0.84171053015E+01  0.68164518362E+02  0.00000000000E+00 0. -1.
</event>
<event>
 7    1  0.6557591E-006  0.4991967E+02  0.7818608E-02  0.1488590E+00
          2   -1    0    0  502    0  0.00000000000E+00  0.00000000000E+00  0.24504073642E+03  0.24504073642E+03  0.00000000000E+00 0. -1.
          1   -1    0    0  501    0 -0.00000000000E+00 -0.00000000000E+00 -0.71316550236E+03  0.71316550236E+03  0.00000000000E+00 0. -1.
         25    2    1    2    0    0 -0.62557269177E+02  0.59065597328E+02 -0.24458650323E+03  0.28783614776E+03  0.12499973473E+03 0.  0.
          2    1    1    2  501    0  0.24600482905E+02 -0.27218942663E+02 -0.44344021727E+03  0.44495536955E+03  0.00000000000E+00 0. -1.
          1    1    1    2  502    0  0.37956786272E+02 -0.31846654665E+02  0.21990195455E+03  0.22541472147E+03  0.00000000000E+00 0. -1.
         22    1    3    3    0    0 -0.44025552190E+01  0.32050078892E+02  0.26119035287E+01  0.32456310472E+02  0.00000000000E+00 0. -1.
         22    1    3    3    0    0 -0.58154713958E+02  0.27015518436E+02 -0.24719840675E+03  0.25537983729E+03  0.00000000000E+00 0. -1.
</event>
<event>
 7    1  0.6557591E-006  0.5066026E+02  0.7818608E-02  0.1522002E+00
          2   -1    0    0  502    0  0.00000000000E+00  0.00000000000E+00  0.45761022141E+03  0.45761022141E+03  0.00000000000E+00 0. -1.
          1   -1    0    0  501    0 -0.00000000000E+00 -0.00000000000E+00 -0.31323031318E+03  0.31323031318E+03  0.00000000000E+00 0. -1.
         25    2    1    2    0    0 -0.65119455280E+01  0.76668276544E+02  0.26762033990E+02  0.14920315121E+03  0.12499977522E+03 0.  0.
          2    1    1    2  501    0  0.10355274935E+02 -0.26855869331E+02 -0.24949033185E+03  0.25114516743E+03  0.00000000000E+00 0. -1.
          1    1    1    2  502    0 -0.38433294074E+01 -0.49812407212E+02  0.36710820610E+03  0.37049221595E+03  0.00000000000E+00 0. -1.
         22    1    3    3    0    0 -0.59225613878E+02  0.72911844795E+02  0.16869911570E+02  0.95437960829E+02  0.00000000000E+00 0.  1.
         22    1    3    3    0    0  0.52713668350E+02  0.37564317480E+01  0.98921224194E+01  0.53765190378E+02  0.00000000000E+00 0.  1.
</event>
<event>
 7    1  0.6557591E-006  0.1372668E+03  0.7818608E-02  0.1243264E+00
          2   -1    0    0  502    0  0.00000000000E+00  0.00000000000E+00  0.65514619847E+03  0.65514619847E+03  0.00000000000E+00 0. -1.
          1   -1    0    0  501    0 -0.00000000000E+00 -0.00000000000E+00 -0.15915130239E+03  0.15915130239E+03  0.00000000000E+00 0. -1.
         25    2    1    2    0    0 -0.34450550422E+02  0.11483981721E+03  0.94295080010E+02  0.19722031736E+03  0.12501706853E+03 0.  0.
          2    1    1    2  501    0 -0.67542886279E+02 -0.13861565234E+03 -0.43106850288E+02  0.16010790456E+03  0.00000000000E+00 0. -1.
          1    1    1    2  502    0  0.10199343670E+03  0.23775835127E+02  0.44480666636E+03  0.45696927895E+03  0.00000000000E+00 0. -1.
         22    1    3    3    0    0  0.20361547482E+02  0.79961991576E+01  0.71787107904E+02  0.75046123671E+02  0.00000000000E+00 0.  1.
         22    1    3    3    0    0 -0.54812097903E+02  0.10684361805E+03  0.22507972106E+02  0.12217419369E+03  0.00000000000E+00 0.  1.
</event>
<event>
 7    1  0.6557591E-006  0.5068322E+02  0.7818608E-02  0.1504806E+00
          2   -1    0    0  502    0  0.00000000000E+00  0.00000000000E+00  0.58491834424E+03  0.58491834424E+03  0.00000000000E+00 0. -1.
          1   -1    0    0  501    0 -0.00000000000E+00 -0.00000000000E+00 -0.31046136866E+03  0.31046136866E+03  0.00000000000E+00 0. -1.
         25    2    1    2    0    0  0.37139290431E+02 -0.21019073470E+02  0.95294439625E+02  0.16287396503E+03  0.12500307964E+03 0.  0.
          2    1    1    2  501    0 -0.50289197150E+02 -0.84931195245E+01 -0.27374083468E+03  0.27845139791E+03  0.00000000000E+00 0. -1.
          1    1    1    2  502    0  0.13149906719E+02  0.29512192994E+02  0.45290337064E+03  0.45405434996E+03  0.00000000000E+00 0. -1.
         22    1    3    3    0    0 -0.93703214541E+01 -0.34154286791E+02 -0.17981094324E+02  0.39719491228E+02  0.00000000000E+00 0.  1.
         22    1    3    3    0    0  0.46509611885E+02  0.13135213321E+02  0.11327553395E+03  0.12315447380E+03  0.00000000000E+00 0.  1.
</event>
<event>
 7    1  0.6557591E-006  0.4759862E+02  0.7818608E-02  0.1472116E+00
          2   -1    0    0  502    0  0.00000000000E+00  0.00000000000E+00  0.58892183932E+03  0.58892183932E+03  0.00000000000E+00 0. -1.
          1   -1    0    0  501    0 -0.00000000000E+00 -0.00000000000E+00 -0.78756793851E+03  0.78756793851E+03  0.00000000000E+00 0. -1.
         25    2    1    2    0    0 -0.99963245298E+01  0.40830121669E+02 -0.38892862343E+02  0.13748736695E+03  0.12499238373E+03 0.  0.
          2    1    1    2  501    0 -0.35224518417E+02 -0.25050611875E+02 -0.69764490610E+03  0.69898262844E+03  0.00000000000E+00 0. -1.
          1    1    1    2  502    0  0.45220842947E+02 -0.15779509794E+02  0.53789166926E+03  0.54001978244E+03  0.00000000000E+00 0. -1.
         22    1    3    3    0    0  0.21452286894E+02 -0.39608928823E+02 -0.79361364855E+01  0.45738934376E+02  0.00000000000E+00 0. -1.
         22    1    3    3    0    0 -0.31448611424E+02  0.80439050493E+02 -0.30956725858E+02  0.91748432578E+02  0.00000000000E+00 0. -1.
</event>
<event>
 7    1  0.6557591E-006  0.7242936E+02  0.7818608E-02  0.1518567E+00
          2   -1    0    0  502    0  0.00000000000E+00  0.00000000000E+00  0.89124715345E+03  0.89124715345E+03  0.00000000000E+00 0. -1.
          1   -1    0    0  501    0 -0.00000000000E+00 -0.00000000000E+00 -0.21933400811E+03  0.21933400811E+03  0.00000000000E+00 0. -1.
         25    2    1    2    0    0  0.57929492820E+02 -0.83451944404E+01  0.43622640040E+03  0.45754144335E+03  0.12500092629E+03 0.  0.
          2    1    1    2  501    0  0.18987475373E+02  0.79890159682E+01 -0.20482742770E+03  0.20586069012E+03  0.00000000000E+00 0. -1.
          1    1    1    2  502    0 -0.76916968193E+02  0.35617847220E+00  0.44051417264E+03  0.44717902808E+03  0.00000000000E+00 0. -1.
         22    1    3    3    0    0  0.28014420755E+02 -0.42477536130E+02  0.38797876941E+03  0.39130125780E+03  0.00000000000E+00 0. -1.
         22    1    3    3    0    0  0.29915072065E+02  0.34132341689E+02  0.48247630988E+02  0.66240185551E+02  0.00000000000E+00 0. -1.
</event>
<event>
 7    1  0.6557591E-006  0.8799921E+02  0.7818608E-02  0.1380924E+00
          2   -1    0    0  502    0  0.00000000000E+00  0.00000000000E+00  0.19608716265E+04  0.19608716265E+04  0.00000000000E+00 0. -1.
          1   -1    0    0  501    0 -0.00000000000E+00 -0.00000000000E+00 -0.86468325840E+03  0.86468325840E+03  0.00000000000E+00 0. -1.
         25    2    1    2    0    0 -0.23525616748E+02 -0.84897154211E+02  0.22343190629E+02  0.15454787592E+03  0.12499938539E+03 0.  0.
          2    1    1    2  501    0 -0.23342122382E+02  0.85191483687E+02 -0.79584374533E+03  0.80073073536E+03  0.00000000000E+00 0. -1.
          1    1    1    2  502    0  0.46867739130E+02 -0.29432947634E+00  0.18696889228E+04  0.18702762736E+04  0.00000000000E+00 0. -1.
         22    1    3    3    0    0 -0.50716435328E+01  0.31393051306E+02 -0.83297540496E+01  0.32872937821E+02  0.00000000000E+00 0. -1.
         22    1    3    3    0    0 -0.18453973215E+02 -0.11629020552E+03  0.30672944678E+02  0.12167493810E+03  0.00000000000E+00 0. -1.
</event>
<event>
 7    1  0.6557591E-006  0.5889407E+02  0.7818608E-02  0.1434292E+00
          2   -1    0    0  502    0  0.00000000000E+00  0.00000000000E+00  0.13288655568E+04  0.13288655568E+04  0.00000000000E+00 0. -1.
          1   -1    0    0  501    0 -0.00000000000E+00 -0.00000000000E+00 -0.93751998423E+02  0.93751998423E+02  0.00000000000E+00 0. -1.
         25    2    1    2    0    0  0.62151969090E+02  0.23260752721E+02  0.61929273045E+03  0.63525748831E+03  0.12499864232E+03 0.  0.
          2    1    1    2  501    0 -0.26664298299E+02 -0.52691824732E+02 -0.74743993343E+02  0.95257953675E+02  0.00000000000E+00 0. -1.
          1    1    1    2  502    0 -0.35487670791E+02  0.29431072012E+02  0.69056482132E+03  0.69210211329E+03  0.00000000000E+00 0. -1.
         22    1    3    3    0    0 -0.13975826696E+02 -0.19523330087E+02  0.25298301618E+02  0.34878191098E+02  0.00000000000E+00 0. -1.
         22    1    3    3    0    0  0.76127795787E+02  0.42784082807E+02  0.59399442883E+03  0.60037929721E+03  0.00000000000E+00 0. -1.
</event>
<event>
 7    1  0.6557591E-006  0.1280209E+03  0.7818608E-02  0.1308331E+00
          2   -1    0    0  502    0  0.00000000000E+00  0.00000000000E+00  0.12589965159E+04  0.12589965159E+04  0.00000000000E+00 0. -1.
          1   -1    0    0  501    0 -0.00000000000E+00 -0.00000000000E+00 -0.29857264214E+03  0.29857264214E+03  0.00000000000E+00 0. -1.
         25    2    1    2    0    0  0.95250290168E+02 -0.13030084768E+03  0.85191252670E+03  0.87603202369E+03  0.12500489873E+03 0.  0.
          2    1    1    2  501    0 -0.35567699036E+02  0.12256882741E+03 -0.26980306999E+03  0.29846586948E+03  0.00000000000E+00 0. -1.
          1    1    1    2  502    0 -0.59682591132E+02  0.77320202679E+01  0.37831441707E+03  0.38307126489E+03  0.00000000000E+00 0. -1.
         22    1    3    3    0    0 -0.16938601396E+01 -0.25675200225E+02  0.42787397400E+03  0.42864696744E+03  0.00000000000E+00 0. -1.
         22    1    3    3    0    0  0.96944150308E+02 -0.10462564745E+03  0.42403855270E+03  0.44738505625E+03  0.00000000000E+00 0. -1.
</event>
<event>
 7    1  0.6557591E-006  0.4232748E+02  0.7818608E-02  0.1514494E+00
          2   -1    0    0  502    0  0.00000000000E+00  0.00000000000E+00  0.91003532186E+03  0.91003532186E+03  0.00000000000E+00 0. -1.
          1   -1    0    0  501    0 -0.00000000000E+00 -0.00000000000E+00 -0.37389861738E+03  0.37389861738E+03  0.00000000000E+00 0. -1.
         25    2    1    2    0    0  0.49377546218E+02 -0.50500739218E+02  0.11245178575E+03  0.18237372963E+03  0.12500522552E+03 0.  0.
          2    1    1    2  501    0 -0.34418733145E+02  0.11304347895E+02 -0.33739020881E+03  0.33932961921E+03  0.00000000000E+00 0. -1.
          1    1    1    2  502    0 -0.14958813072E+02  0.39196391323E+02  0.76107512754E+03  0.76223059040E+03  0.00000000000E+00 0. -1.
         22    1    3    3    0    0 -0.42336084560E+02 -0.16754935030E+02  0.41522784229E+02  0.61621534498E+02  0.00000000000E+00 0. -1.
         22    1    3    3    0    0  0.91713630778E+02 -0.33745804189E+02  0.70929001526E+02  0.12075219513E+03  0.00000000000E+00 0. -1.
</event>
<event>
 7    1  0.6557591E-006  0.5363957E+02  0.7818608E-02  0.1434979E+00
          2   -1    0    0  502    0  0.00000000000E+00  0.00000000000E+00  0.40894275541E+03  0.40894275541E+03  0.00000000000E+00 0. -1.
          1   -1    0    0  501    0 -0.00000000000E+00 -0.00000000000E+00 -0.12713556412E+04  0.12713556412E+04  0.00000000000E+00 0. -1.
         25    2    1    2    0    0 -0.71561225713E+02  0.60802716683E+02 -0.22594415353E+03  0.27475711808E+03  0.12499093583E+03 0.  0.
          2    1    1    2  501    0  0.20216066057E+02 -0.46123342465E+02 -0.10185258425E+04  0.10197700446E+04  0.00000000000E+00 0. -1.
          1    1    1    2  502    0  0.51345159656E+02 -0.14679374217E+02  0.38205711023E+03  0.38577123393E+03  0.00000000000E+00 0. -1.
         22    1    3    3    0    0  0.20652346899E+02  0.49206263711E+02 -0.13304830939E+03  0.14335141595E+03  0.00000000000E+00 0. -1.
         22    1    3    3    0    0 -0.92213572612E+02  0.11596452972E+02 -0.92895844134E+02  0.13140570213E+03  0.00000000000E+00 0. -1.
</event>
<event>
 7    1  0.6557591E-006  0.1276326E+03  0.7818608E-02  0.1365443E+00
          2   -1    0    0  502    0  0.00000000000E+00  0.00000000000E+00  0.15568866165E+04  0.15568866165E+04  0.00000000000E+00 0. -1.
          1   -1    0    0  501    0 -0.00000000000E+00 -0.00000000000E+00 -0.33487631072E+03  0.33487631072E+03  0.00000000000E+00 0. -1.
         25    2    1    2    0    0 -0.12389903419E+01  0.96255508804E+02  0.17434430537E+03  0.23513196359E+03  0.12499778163E+03 0.  0.
          2    1    1    2  501    0  0.13525440774E+02  0.34128235802E+02 -0.30019063186E+03  0.30242699861E+03  0.00000000000E+00 0. -1.
          1    1    1    2  502    0 -0.12286450432E+02 -0.13038374461E+03  0.13478566323E+04  0.13542039650E+04  0.00000000000E+00 0. -1.
         22    1    3    3    0    0 -0.59223881756E+02  0.27145329594E+02  0.53335760997E+02  0.84196439890E+02  0.00000000000E+00 0.  1.
         22    1    3    3    0    0  0.57984891414E+02  0.69110179209E+02  0.12100854437E+03  0.15093552370E+03  0.00000000000E+00 0.  1.
</event>
<event>
 7    1  0.6557591E-006  0.1340558E+03  0.7818608E-02  0.1361985E+00
          2   -1    0    0  502    0  0.00000000000E+00  0.00000000000E+00  0.13524837325E+04  0.13524837325E+04  0.00000000000E+00 0. -1.
          1   -1    0    0  501    0 -0.00000000000E+00 -0.00000000000E+00 -0.62632658366E+02  0.62632658366E+02  0.00000000000E+00 0. -1.
         25    2    1    2    0    0 -0.13620637182E+03  0.33176677282E+02  0.67011744803E+03  0.69594662039E+03  0.12502574387E+03 0.  0.
          2    1    1    2  501    0  0.13375965811E+03  0.27162632551E+01  0.41868123729E+02  0.14018546290E+03  0.00000000000E+00 0. -1.
          1    1    1    2  502    0  0.24467137023E+01 -0.35892940537E+02  0.57786550233E+03  0.57898430754E+03  0.00000000000E+00 0. -1.
         22    1    3    3    0    0 -0.11441822642E+03  0.17194491741E+02  0.65468162198E+03  0.66482720104E+03  0.00000000000E+00 0.  1.
         22    1    3    3    0    0 -0.21788145401E+02  0.15982185541E+02  0.15435826056E+02  0.31119419350E+02  0.00000000000E+00 0.  1.
</event>
<event>
 7    1  0.6557591E-006  0.1144648E+03  0.7818608E-02  0.1272546E+00
          2   -1    0    0  502    0  0.00000000000E+00  0.00000000000E+00  0.14063913919E+04  0.14063913919E+04  0.00000000000E+00 0. -1.
          1   -1    0    0  501    0 -0.00000000000E+00 -0.00000000000E+00 -0.11398745254E+04  0.11398745254E+04  0.00000000000E+00 0. -1.
         25    2    1    2    0    0  0.16039529445E+03 -0.86985731509E+02 -0.65499517456E+02  0.23067492288E+03  0.12501026074E+03 0.  0.
          2    1    1    2  501    0 -0.46889790582E+02  0.81572918822E+02 -0.98710756384E+03  0.99158163362E+03  0.00000000000E+00 0. -1.
          1    1    1    2  502    0 -0.11350550386E+03  0.54128126869E+01  0.13191239478E+04  0.13240093609E+04  0.00000000000E+00 0. -1.
         22    1    3    3    0    0  0.11671866385E+03 -0.81624861487E+00 -0.52893407906E+01  0.11684130211E+03  0.00000000000E+00 0. -1.
         22    1    3    3    0    0  0.43676630593E+02 -0.86169482894E+02 -0.60210176665E+02  0.11383362076E+03  0.00000000000E+00 0. -1.
</event>
<event>
 7    1  0.6557591E-006  0.5634216E+02  0.7818608E-02  0.1428420E+00
          2   -1    0    0  502    0  0.00000000000E+00  0.00000000000E+00  0.86911832350E+03  0.86911832350E+03  0.00000000000E+00 0. -1.
          1   -1    0    0  501    0 -0.00000000000E+00 -0.00000000000E+00 -0.29303967512E+02  0.29303967512E+02  0.00000000000E+00 0. -1.
         25    2    1    2    0    0 -0.17364306948E+01  0.31242108395E+02  0.22530274721E+03  0.25955103425E+03  0.12500530769E+03 0.  0.
          2    1    1    2  501    0 -0.41033078909E+02 -0.57870032010E+02  0.10406971482E+03  0.12594903617E+03  0.00000000000E+00 0. -1.
          1    1    1    2  502    0  0.42769509604E+02  0.26627923615E+02  0.51044189396E+03  0.51292222060E+03  0.00000000000E+00 0. -1.
         22    1    3    3    0    0  0.15920156834E+02  0.85644287649E+01 -0.11227887605E+02  0.21280655389E+02  0.00000000000E+00 0. -1.
         22    1    3    3    0    0 -0.17656587529E+02  0.22677679630E+02  0.23653063482E+03  0.23827037886E+03  0.00000000000E+00 0. -1.
</event>
<event>
 7    1  0.6557591E-006  0.1440487E+03  0.7818608E-02  0.1394001E+00
          2   -1    0    0  502    0  0.00000000000E+00  0.00000000000E+00  0.16600599554E+04  0.16600599554E+04  0.00000000000E+00 0. -1.
          1   -1    0    0  501    0 -0.00000000000E+00 -0.00000000000E+00 -0.44584722262E+03  0.44584722262E+03  0.00000000000E+00 0. -1.
         25    2    1    2    0    0 -0.47500764636E+02 -0.11203620488E+03 -0.20669175584E+03  0.27047150225E+03  0.12499967100E+03 0.  0.
          2    1    1    2  501    0  0.36672999196E+01 -0.25503482920E+02 -0.20325098944E+03  0.20487762552E+03  0.00000000000E+00 0. -1.
          1    1    1    2  502    0  0.43833464717E+02  0.13753968780E+03  0.16241554780E+04  0.16305580502E+04  0.00000000000E+00 0. -1.
         22    1    3    3    0    0 -0.74295083723E+02 -0.20869761112E+02 -0.11448414376E+03  0.13806493243E+03  0.00000000000E+00 0.  1.
         22    1    3    3    0    0  0.26794319087E+02 -0.91166443772E+02 -0.92207612073E+02  0.13240656981E+03  0.00000000000E+00 0.  1.
</event>
<event>
 7    1  0.6557591E-006  0.6076730E+02  0.7818608E-02  0.1529110E+00
          2   -1    0    0  502    0  0.00000000000E+00  0.00000000000E+00  0.79751062935E+03  0.79751062935E+03  0.00000000000E+00 0. -1.
          1   -1    0    0  501    0 -0.00000000000E+00 -0.00000000000E+00 -0.22813329300E+03  0.22813329300E+03  0.00000000000E+00 0. -1.
         25    2    1    2    0    0  0.21767240796E+02  0.32919883063E+02  0.16257589864E+03  0.20883760521E+03  0.12499876423E+03 0.  0.
          2    1    1    2  501    0  0.99968903694E+01  0.20591869457E+02 -0.20277442757E+03  0.20406232229E+03  0.00000000000E+00 0. -1.
          1    1    1    2  502    0 -0.31764131165E+02 -0.53511752520E+02  0.60957586528E+03  0.61274399484E+03  0.00000000000E+00 0. -1.
         22    1    3    3    0    0 -0.50170427564E+02  0.21108463680E+02  0.45611116217E+02  0.71014174384E+02  0.00000000000E+00 0.  1.
         22    1    3    3    0    0  0.71937668360E+02  0.11811419383E+02  0.11696478243E+03  0.13782343083E+03  0.00000000000E+00 0.  1.
</event>
<event>
 7    1  0.6557591E-006  0.1600428E+03  0.7818608E-02  0.1202813E+00
          2   -1    0    0  502    0  0.00000000000E+00  0.00000000000E+00  0.84615644799E+03  0.84615644799E+03  0.00000000000E+00 0. -1.
          1   -1    0    0  501    0 -0.00000000000E+00 -0.00000000000E+00 -0.52860476953E+03  0.52860476953E+03  0.00000000000E+00 0. -1.
         25    2    1    2    0    0  0.22761029378E+02 -0.18597772009E+02  0.27636483215E+03  0.30473947131E+03  0.12499873335E+03 0.  0.
          2    1    1    2  501    0 -0.11480707362E+03  0.12016341844E+03 -0.49209766465E+03  0.51940352601E+03  0.00000000000E+00 0. -1.
          1    1    1    2  502    0  0.92046044243E+02 -0.10156564643E+03  0.53328451095E+03  0.55061822020E+03  0.00000000000E+00 0. -1.
         22    1    3    3    0    0  0.19602218432E+01  0.36244234204E+02  0.22140226908E+03  0.22435786534E+03  0.00000000000E+00 0.  1.
         22    1    3    3    0    0  0.20800807535E+02 -0.54842006213E+02  0.54962563071E+02  0.80381605974E+02  0.00000000000E+00 0.  1.
</event>
<event>
 7    1  0.6557591E-006  0.1848217E+03  0.7818608E-02  0.1275277E+00
          2   -1    0    0  502    0  0.00000000000E+00  0.00000000000E+00  0.23200272450E+04  0.23200272450E+04  0.00000000000E+00 0. -1.
          1   -1    0    0  501    0 -0.00000000000E+00 -0.00000000000E+00 -0.51713112553E+03  0.51713112553E+03  0.00000000000E+00 0. -1.
         25    2    1    2    0    0 -0.15443759393E+03  0.68705584981E+02 -0.10039807643E+03  0.23297405930E+03  0.12500284289E+03 0.  0.
          2    1    1    2  501    0  0.14731092954E+03 -0.12501905799E+03 -0.32342524211E+03  0.37674150563E+03  0.00000000000E+00 0. -1.
          1    1    1    2  502    0  0.71266643823E+01  0.56313473011E+02  0.22267194380E+04  0.22274428056E+04  0.00000000000E+00 0. -1.
         22    1    3    3    0    0 -0.55822682618E+02  0.38042308641E+02 -0.11017947317E+03  0.12923972087E+03  0.00000000000E+00 0. -1.
         22    1    3    3    0    0 -0.98614911307E+02  0.30663276339E+02  0.97813967378E+01  0.10373433843E+03  0.00000000000E+00 0. -1.
</event>
<event>
 7    1  0.6557591E-006  0.8377230E+02  0.7818608E-02  0.1334167E+00
          2   -1    0    0  502    0  0.00000000000E+00  0.00000000000E+00  0.82437497182E+03  0.82437497182E+03  0.00000000000E+00 0. -1.
          1   -1    0    0  501    0 -0.00000000000E+00 -0.00000000000E+00 -0.44189041288E+03  0.44189041288E+03  0.00000000000E+00 0. -1.
         25    2    1    2    0    0  0.10502883364E+02  0.39358103931E+02  0.36860866418E+03  0.39135009607E+03  0.12499271772E+03 0.  0.
          2    1    1    2  501    0 -0.13928818811E+02  0.71703481821E+02 -0.42037509637E+03  0.42667390704E+03  0.00000000000E+00 0. -1.
          1    1    1    2  502    0  0.34259354473E+01 -0.11106158575E+03  0.43425099113E+03  0.44824138158E+03  0.00000000000E+00 0. -1.
         22    1    3    3    0    0  0.21326564338E+02 -0.15605720590E+02  0.97850191075E+01  0.28179912358E+02  0.00000000000E+00 0. -1.
         22    1    3    3    0    0 -0.10823680974E+02  0.54963824521E+02  0.35882364507E+03  0.36317018371E+03  0.00000000000E+00 0. -1.
</event>
<event>
 7    1  0.6557591E-006  0.9210336E+02  0.7818608E-02  0.1448473E+00
          2   -1    0    0  502    0  0.00000000000E+00  0.00000000000E+00  0.16510704789E+04  0.16510704789E+04  0.00000000000E+00 0. -1.
          1   -1    0    0  501    0 -0.00000000000E+00 -0.00000000000E+00 -0.51517069002E+03  0.51517069002E+03  0.00000000000E+00 0. -1.
         25    2    1    2    0    0  0.60414370974E+00 -0.78609632212E+02 -0.57700044068E+02  0.15854316163E+03  0.12500719879E+03 0.  0.
          2    1    1    2  501    0  0.24472499457E+02 -0.10222222506E+02 -0.40528459908E+03  0.40615145367E+03  0.00000000000E+00 0. -1.
          1    1    1    2  502    0 -0.25076643167E+02  0.88831854718E+02  0.15988844320E+04  0.16015465536E+04  0.00000000000E+00 0. -1.
         22    1    3    3    0    0 -0.65756275546E+01 -0.51091949838E+02 -0.97119713555E+02  0.10993573112E+03  0.00000000000E+00 0. -1.
         22    1    3    3    0    0  0.71797712643E+01 -0.27517682374E+02  0.39419669488E+02  0.48607430514E+02  0.00000000000E+00 0. -1.
</event>
<event>
 7    1  0.6557591E-006  0.1162759E+03  0.7818608E-02  0.1265979E+00
          2   -1    0    0  502    0  0.00000000000E+00  0.00000000000E+00  0.19097853657E+04  0.19097853657E+04  0.00000000000E+00 0. -1.
          1   -1    0    0  501    0 -0.00000000000E+00 -0.00000000000E+00 -0.15520317574E+04  0.15520317574E+04  0.00000000000E+00 0. -1.
         25    2    1    2    0    0 -0.17254192970E+03  0.10009071484E+03  0.53973315905E+03  0.58883353118E+03  0.12499670298E+03 0.  0.
          2    1    1    2  501    0  0.96271308823E+02 -0.21776427513E+02 -0.15236616695E+04  0.15268553503E+04  0.00000000000E+00 0. -1.
          1    1    1    2  502    0  0.76270620874E+02 -0.78314287323E+02  0.13416821187E+04  0.13461282416E+04  0.00000000000E+00 0. -1.
         22    1    3    3    0    0 -0.44433722504E+02  0.66258596934E+02  0.33937556110E+03  0.34862634559E+03  0.00000000000E+00 0.  1.
         22    1    3    3    0    0 -0.12810820719E+03  0.33832117902E+02  0.20035759795E+03  0.24020718559E+03  0.00000000000E+00 0.  1.
</event>
<event>
 7    1  0.6557591E-006  0.5645721E+02  0.7818608E-02  0.1440623E+00
          2   -1    0    0  502    0  0.00000000000E+00  0.00000000000E+00  0.15178406019E+03  0.15178406019E+03  0.00000000000E+00 0. -1.
          1   -1    0    0  501    0 -0.00000000000E+00 -0.00000000000E+00 -0.76952783599E+03  0.76952783599E+03  0.00000000000E+00 0. -1.
         25    2    1    2    0    0  0.39023298267E+02  0.81045939938E+02 -0.34328261305E+03  0.37624266159E+03  0.12499730312E+03 0.  0.
          2    1    1    2  501    0 -0.38449706008E+02 -0.25002020244E+02 -0.40260278232E+03  0.40520671420E+03  0.00000000000E+00 0. -1.
          1    1    1    2  502    0 -0.57359225836E+00 -0.56043919695E+02  0.12814161957E+03  0.13986252038E+03  0.00000000000E+00 0. -1.
         22    1    3    3    0    0  0.17856772880E+02  0.10864053134E+03 -0.19498146292E+03  0.22391828927E+03  0.00000000000E+00 0.  1.
         22    1    3    3    0    0  0.21166525386E+02 -0.27594591401E+02 -0.14830115013E+03  0.15232437232E+03  0.00000000000E+00 0.  1.
</event>
<event>
 7    1  0.7201138E-006  0.7465094E+02  0.7818608E-02  0.1494760E+00
          2   -1    0    0  502    0  0.00000000000E+00  0.00000000000E+00  0.92919952358E+03  0.92919952358E+03  0.00000000000E+00 0. -1.
          1   -1    0    0  501    0 -0.00000000000E+00 -0.00000000000E+00 -0.90985872709E+03  0.90985872709E+03  0.00000000000E+00 0. -1.
         25    2    1    2    0    0  0.49030716192E+02 -0.37319385667E+02 -0.34053503694E+03  0.36795068704E+03  0.12500739591E+03 0.  0.
          2    1    1    2  501    0 -0.49147680310E+01 -0.22984507247E+02 -0.55384166415E+03  0.55434017667E+03  0.00000000000E+00 0. -1.
          1    1    1    2  502    0 -0.44115948161E+02  0.60303892914E+02  0.91371749759E+03  0.91676738696E+03  0.00000000000E+00 0. -1.
         22    1    3    3    0    0  0.15194625567E+02 -0.81682218516E+02 -0.18835373810E+03  0.20586401367E+03  0.00000000000E+00 0.  1.
         22    1    3    3    0    0  0.33836090625E+02  0.44362832850E+02 -0.15218129884E+03  0.16208667337E+03  0.00000000000E+00 0.  1.
</event>
<event>
 7    1  0.6557591E-006  0.5928977E+02  0.7818608E-02  0.1429756E+00
          2   -1    0    0  502    0  0.00000000000E+00  0.00000000000E+00  0.87045642103E+03  0.87045642103E+03  0.00000000000E+00 0. -1.
          1   -1    0    0  501    0 -0.00000000000E+00 -0.00000000000E+00 -0.47057837229E+03  0.47057837229E+03  0.00000000000E+00 0. -1.
         25    2    1    2    0    0  0.21448064472E+02 -0.10296926478E+03 -0.27373048731E+02  0.16564218324E+03  0.12500144045E+03 0.  0.
          2    1    1    2  501    0 -0.10799394759E+02  0.56787409507E+02 -0.37113066639E+03  0.37560538913E+03  0.00000000000E+00 0. -1.
          1    1    1    2  502    0 -0.10648669712E+02  0.46181855269E+02  0.79838176387E+03  0.79978722095E+03  0.00000000000E+00 0. -1.
         22    1    3    3    0    0 -0.15938150984E+02 -0.42851283156E+02  0.45176949971E+02  0.64274520096E+02  0.00000000000E+00 0.  1.
         22    1    3    3    0    0  0.37386215456E+02 -0.60117981619E+02 -0.72549998703E+02  0.10136766315E+03  0.00000000000E+00 0.  1.
</event>
<event>
 7    1  0.6557591E-006  0.5644936E+02  0.7818608E-02  0.1456928E+00
          2   -1    0    0  502    0  0.00000000000E+00  0.00000000000E+00  0.17984079641E+04  0.17984079641E+04  0.00000000000E+00 0. -1.
          1   -1    0    0  501    0 -0.00000000000E+00 -0.00000000000E+00 -0.35210845972E+03  0.35210845972E+03  0.00000000000E+00 0. -1.
         25    2    1    2    0    0  0.33396952912E+02 -0.42461845318E+02  0.51129547592E+03  0.52911873725E+03  0.12500083858E+03 0.  0.
          2    1    1    2  501    0  0.23462832402E+02  0.33219022220E+02 -0.34134002669E+03  0.34375430436E+03  0.00000000000E+00 0. -1.
          1    1    1    2  502    0 -0.56859785314E+02  0.92428230983E+01  0.12763440551E+04  0.12776433822E+04  0.00000000000E+00 0. -1.
         22    1    3    3    0    0  0.26848999274E+01  0.15413963616E+02  0.21713339700E+01  0.15796001177E+02  0.00000000000E+00 0. -1.
         22    1    3    3    0    0  0.30712052984E+02 -0.57875808934E+02  0.50912414195E+03  0.51332273608E+03  0.00000000000E+00 0. -1.
</event>
<event>
 7    1  0.6557591E-006  0.4769893E+02  0.7818608E-02  0.1495433E+00
          2   -1    0    0  502    0  0.00000000000E+00  0.00000000000E+00  0.14837473171E+03  0.14837473171E+03  0.00000000000E+00 0. -1.
          1   -1    0    0  501    0 -0.00000000000E+00 -0.00000000000E+00 -0.10741951608E+04  0.10741951608E+04  0.00000000000E+00 0. -1.
         25    2    1    2    0    0  0.31989989239E+01 -0.60967200380E+02 -0.17303542203E+03  0.22201896826E+03  0.12499572742E+03 0.  0.
          2    1    1    2  501    0 -0.29730861985E+02  0.21369937055E+02 -0.87168464617E+03  0.87245327711E+03  0.00000000000E+00 0. -1.
          1    1    1    2  502    0  0.26531863061E+02  0.39597263325E+02  0.11889963912E+03  0.12809764714E+03  0.00000000000E+00 0. -1.
         22    1    3    3    0    0  0.41872562593E+02 -0.53562302157E+02 -0.16933007257E+03  0.18246891568E+03  0.00000000000E+00 0.  1.
         22    1    3    3    0    0 -0.38673563670E+02 -0.74048982235E+01 -0.37053494574E+01  0.39550052582E+02  0.00000000000E+00 0.  1.
</event>
<event>
 7    1  0.6557591E-006  0.5972792E+02  0.7818608E-02  0.1399709E+00
          2   -1    0    0  502    0  0.00000000000E+00  0.00000000000E+00  0.20651224116E+04  0.20651224116E+04  0.00000000000E+00 0. -1.
          1   -1    0    0  501    0 -0.00000000000E+00 -0.00000000000E+00 -0.70194873469E+03  0.70194873469E+03  0.00000000000E+00 0. -1.
         25    2    1    2    0    0 -0.67473003033E+02  0.83832014850E+02  0.42482923044E+02  0.17032291910E+03  0.12499874066E+03 0.  0.
          2    1    1    2  501    0  0.53352472373E+02 -0.26072489660E+02 -0.63619447968E+03  0.63895983990E+03  0.00000000000E+00 0. -1.
          1    1    1    2  502    0  0.14120530660E+02 -0.57759525191E+02  0.19568852336E+04  0.19577883873E+04  0.00000000000E+00 0. -1.
         22    1    3    3    0    0 -0.22050840278E+01 -0.83522893086E+01 -0.33236182448E+02  0.34340456549E+02  0.00000000000E+00 0.  1.
         22    1    3    3    0    0 -0.65267919006E+02  0.92184304159E+02  0.75719105492E+02  0.13598246255E+03  0.00000000000E+00 0.  1.
</event>
<event>
 7    1  0.6557591E-006  0.7565090E+02  0.7818608E-02  0.1406593E+00
          2   -1    0    0  502    0  0.00000000000E+00  0.00000000000E+00  0.57160249265E+03  0.57160249265E+03  0.00000000000E+00 0. -1.
          1   -1    0    0  501    0 -0.00000000000E+00 -0.00000000000E+00 -0.42635210641E+03  0.42635210641E+03  0.00000000000E+00 0. -1.
         25    2    1    2    0    0  0.78827048809E+02  0.47153264827E+00  0.53392430049E+02  0.15713122111E+03  0.12500217235E+03 0.  0.
          2    1    1    2  501    0 -0.63783461266E+02  0.41310603450E+02 -0.36955042077E+03  0.37728293015E+03  0.00000000000E+00 0. -1.
          1    1    1    2  502    0 -0.15043587543E+02 -0.41782136098E+02  0.46140837697E+03  0.46354044781E+03  0.00000000000E+00 0. -1.
         22    1    3    3    0    0  0.15676984347E+02  0.24672527583E+02  0.79449469237E+02  0.84656480068E+02  0.00000000000E+00 0.  1.
         22    1    3    3    0    0  0.63150064462E+02 -0.24200994934E+02 -0.26057039188E+02  0.72474741039E+02  0.00000000000E+00 0.  1.
</event>
<event>
 7    1  0.6557591E-006  0.1419076E+03  0.7818608E-02  0.1238030E+00
          2   -1    0    0  502    0  0.00000000000E+00  0.00000000000E+00  0.15959397220E+04  0.15959397220E+04  0.00000000000E+00 0. -1.
          1   -1    0    0  501    0 -0.00000000000E+00 -0.00000000000E+00 -0.36737155931E+02  0.36737155931E+02  0.00000000000E+00 0. -1.
         25    2    1    2    0    0  0.11883236198E+03 -0.50857023068E+02  0.42203556861E+03  0.45874416995E+03  0.12499850095E+03 0.  0.
          2    1    1    2  501    0 -0.87788847567E+02  0.15307476232E+03  0.56630353631E+03  0.59315972541E+03  0.00000000000E+00 0. -1.
          1    1    1    2  502    0 -0.31043514412E+02 -0.10221773925E+03  0.57086346119E+03  0.58077298261E+03  0.00000000000E+00 0. -1.
         22    1    3    3    0    0  0.12560972474E+03 -0.74711032150E+02  0.39889725782E+03  0.42482768691E+03  0.00000000000E+00 0. -1.
         22    1    3    3    0    0 -0.67773627579E+01  0.23854009082E+02  0.23138310797E+02  0.33916483039E+02  0.00000000000E+00 0. -1.
</event>
<event>
 7    1  0.6557591E-006  0.1375183E+03  0.7818608E-02  0.1315292E+00
          2   -1    0    0  502    0  0.00000000000E+00  0.00000000000E+00  0.30606827763E+04  0.30606827763E+04  0.00000000000E+00 0. -1.
          1   -1    0    0  501    0 -0.00000000000E+00 -0.00000000000E+00 -0.21076326290E+03  0.21076326290E+03  0.00000000000E+00 0. -1.
         25    2    1    2    0    0  0.83534405588E+02  0.11106839185E+03  0.22173955921E+04  0.22252600298E+04  0.12499921639E+03 0.  0.
          2    1    1    2  501    0 -0.35674426926E+02 -0.13290140319E+03 -0.18300188007E+03  0.22896535942E+03  0.00000000000E+00 0. -1.
          1    1    1    2  502    0 -0.47859978662E+02  0.21833011343E+02  0.81552580141E+03  0.81722064995E+03  0.00000000000E+00 0. -1.
         22    1    3    3    0    0  0.72749547279E+02  0.43307826692E+02  0.55232252649E+03  0.55877386996E+03  0.00000000000E+00 0.  1.
         22    1    3    3    0    0  0.10784858309E+02  0.67760565158E+02  0.16650730656E+04  0.16664861599E+04  0.00000000000E+00 0.  1.
</event>
<event>
 7    1  0.6557591E-006  0.8785791E+02  0.7818608E-02  0.1465950E+00
          2   -1    0    0  502    0  0.00000000000E+00  0.00000000000E+00  0.24829048970E+04  0.24829048970E+04  0.00000000000E+00 0. -1.
          1   -1    0    0  501    0 -0.00000000000E+00 -0.00000000000E+00 -0.43242687042E+02  0.43242687042E+02  0.00000000000E+00 0. -1.
         25    2    1    2    0    0 -0.58907724902E+02  0.30268789008E+02  0.89263889080E+03  0.90377833179E+03  0.12499905603E+03 0.  0.
          2    1    1    2  501    0  0.74265720183E+02 -0.49326933590E+02  0.15309056063E+02  0.90459442676E+02  0.00000000000E+00 0. -1.
          1    1    1    2  502    0 -0.15357995281E+02  0.19058144582E+02  0.15317142631E+04  0.15319098096E+04  0.00000000000E+00 0. -1.
         22    1    3    3    0    0 -0.63974603931E+02  0.69951775986E+02  0.48470857271E+03  0.49389108250E+03  0.00000000000E+00 0.  1.
         22    1    3    3    0    0  0.50668790285E+01 -0.39682986978E+02  0.40793031809E+03  0.40988724929E+03  0.00000000000E+00 0.  1.
</event>
<event>
 7    1  0.6557591E-006  0.8317195E+02  0.7818608E-02  0.1323365E+00
          2   -1    0    0  502    0  0.00000000000E+00  0.00000000000E+00  0.45389962874E+04  0.45389962874E+04  0.00000000000E+00 0. -1.
          1   -1    0    0  501    0 -0.00000000000E+00 -0.00000000000E+00 -0.19379681756E+03  0.19379681756E+03  0.00000000000E+00 0. -1.
         25    2    1    2    0    0  0.81162626941E+02 -0.15591301349E+02 -0.67411492997E+02  0.16431543220E+03  0.12499916473E+03 0.  0.
          2    1    1    2  501    0 -0.67450060022E+02 -0.66442459677E+02 -0.48646311225E+02  0.10644517199E+03  0.00000000000E+00 0. -1.
          1    1    1    2  502    0 -0.13712566919E+02  0.82033761026E+02  0.44612572741E+04  0.44620325008E+04  0.00000000000E+00 0. -1.
         22    1    3    3    0    0  0.20804372076E+02  0.25715030339E+02  0.28525766256E+02  0.43678415989E+02  0.00000000000E+00 0.  1.
         22    1    3    3    0    0  0.60358254865E+02 -0.41306331688E+02 -0.95937259253E+02  0.12063701621E+03  0.00000000000E+00 0.  1.
</event>
<event>
 7    1  0.6557591E-006  0.5281679E+02  0.7818608E-02  0.1538000E+00
          2   -1    0    0  502    0  0.00000000000E+00  0.00000000000E+00  0.17536388249E+03  0.17536388249E+03  0.00000000000E+00 0. -1.
          1   -1    0    0  501    0 -0.00000000000E+00 -0.00000000000E+00 -0.17931782756E+03  0.17931782756E+03  0.00000000000E+00 0. -1.
         25    2    1    2    0    0  0.47605957294E+01  0.38764314729E+02 -0.51191422162E+02  0.14060980089E+03  0.12500087614E+03 0.  0.
          2    1    1    2  501    0  0.23890536586E+02  0.68118170852E+01 -0.75802943724E+02  0.79769949653E+02  0.00000000000E+00 0. -1.
          1    1    1    2  502    0 -0.28651132315E+02 -0.45576131815E+02  0.12304042081E+03  0.13430195951E+03  0.00000000000E+00 0. -1.
         22    1    3    3    0    0  0.16189646712E+02  0.37419329403E+02  0.34951180827E+02  0.53701917236E+02  0.00000000000E+00 0. -1.
         22    1    3    3    0    0 -0.11429050983E+02  0.13449853265E+01 -0.86142602989E+02  0.86907883656E+02  0.00000000000E+00 0. -1.
</event>
<event>
 7    1  0.6557591E-006  0.5420616E+02  0.7818608E-02  0.1446792E+00
          2   -1    0    0  502    0  0.00000000000E+00  0.00000000000E+00  0.12622263883E+04  0.12622263883E+04  0.00000000000E+00 0. -1.
          1   -1    0    0  501    0 -0.00000000000E+00 -0.00000000000E+00 -0.40992466301E+02  0.40992466301E+02  0.00000000000E+00 0. -1.
         25    2    1    2    0    0  0.87074169591E+02  0.35022270762E+02  0.29925254314E+03  0.33761665133E+03  0.12499779287E+03 0.  0.
          2    1    1    2  501    0 -0.49887583943E+02 -0.85835810430E+01  0.89188355615E+01  0.51400335825E+02  0.00000000000E+00 0. -1.
          1    1    1    2  502    0 -0.37186585648E+02 -0.26438689719E+02  0.91306254328E+03  0.91420186743E+03  0.00000000000E+00 0. -1.
         22    1    3    3    0    0 -0.31143525840E+02  0.17830006722E+01  0.39785921924E+02  0.50557075434E+02  0.00000000000E+00 0. -1.
         22    1    3    3    0    0  0.11821769543E+03  0.33239270090E+02  0.25946662121E+03  0.28705957589E+03  0.00000000000E+00 0. -1.
</event>
<event>
 7    1  0.6557591E-006  0.5268593E+02  0.7818608E-02  0.1527969E+00
          2   -1    0    0  502    0  0.00000000000E+00  0.00000000000E+00  0.64863500975E+03  0.64863500975E+03  0.00000000000E+00 0. -1.
          1   -1    0    0  501    0 -0.00000000000E+00 -0.00000000000E+00 -0.42055725625E+03  0.42055725625E+03  0.00000000000E+00 0. -1.
         25    2    1    2    0    0 -0.52232351024E+02 -0.29013260155E+02  0.12054887417E+03  0.18365594791E+03  0.12500995313E+03 0.  0.
          2    1    1    2  501    0  0.29855616099E+02  0.43397436388E+02 -0.38686130516E+03  0.39043099868E+03  0.00000000000E+00 0. -1.
          1    1    1    2  502    0  0.22376734926E+02 -0.14384176233E+02  0.49439018449E+03  0.49510531941E+03  0.00000000000E+00 0. -1.
         22    1    3    3    0    0 -0.81393238967E+02  0.12734169272E+02  0.97821741935E+02  0.12789101459E+03  0.00000000000E+00 0. -1.
         22    1    3    3    0    0  0.29160887942E+02 -0.41747429427E+02  0.22727132238E+02  0.55764933329E+02  0.00000000000E+00 0. -1.
</event>
<event>
 7    1  0.6557591E-006  0.4970923E+02  0.7818608E-02  0.1510876E+00
          2   -1    0    0  502    0  0.00000000000E+00  0.00000000000E+00  0.34729333400E+04  0.34729333400E+04  0.00000000000E+00 0. -1.
          1   -1    0    0  501    0 -0.00000000000E+00 -0.00000000000E+00 -0.89589376818E+02  0.89589376818E+02  0.00000000000E+00 0. -1.
         25    2    1    2    0    0  0.45521555399E+02 -0.48741973809E+02  0.18304282590E+04  0.18359033214E+04  0.12500160916E+03 0.  0.
          2    1    1    2  501    0 -0.13928791990E+02  0.47677950993E+02 -0.79584560592E+02  0.93813114977E+02  0.00000000000E+00 0. -1.
          1    1    1    2  502    0 -0.31592763409E+02  0.10640228159E+01  0.16325002648E+04  0.16328062804E+04  0.00000000000E+00 0. -1.
         22    1    3    3    0    0  0.44370026092E+02 -0.71123655366E+02  0.17599995792E+04  0.17619948332E+04  0.00000000000E+00 0.  1.
         22    1    3    3    0    0  0.11515293071E+01  0.22381681558E+02  0.70428679765E+02  0.73908488163E+02  0.00000000000E+00 0.  1.
</event>
<event>
 7    1  0.6557591E-006  0.7267197E+02  0.7818608E-02  0.1407605E+00
          2   -1    0    0  502    0  0.00000000000E+00  0.00000000000E+00  0.42768657025E+02  0.42768657025E+02  0.00000000000E+00 0. -1.
          1   -1    0    0  501    0 -0.00000000000E+00 -0.00000000000E+00 -0.71292753234E+03  0.71292753234E+03  0.00000000000E+00 0. -1.
         25    2    1    2    0    0  0.32654262480E+02 -0.10498873042E+03 -0.53670921904E+03  0.56193447070E+03  0.12499851671E+03 0.  0.
          2    1    1    2  501    0  0.40079440467E+01  0.45687434887E+02 -0.11166793941E+03  0.12071923631E+03  0.00000000000E+00 0. -1.
          1    1    1    2  502    0 -0.36662206527E+02  0.59301295538E+02 -0.21781716860E+02  0.73042482359E+02  0.00000000000E+00 0. -1.
         22    1    3    3    0    0 -0.18738461505E+02 -0.20798143035E+02 -0.34688474352E+03  0.34801252561E+03  0.00000000000E+00 0. -1.
         22    1    3    3    0    0  0.51392723985E+02 -0.84190587390E+02 -0.18982447552E+03  0.21392194509E+03  0.00000000000E+00 0. -1.
</event>
<event>
 7    1  0.6557591E-006  0.9504495E+02  0.7818608E-02  0.1313543E+00
          2   -1    0    0  502    0  0.00000000000E+00  0.00000000000E+00  0.12360052731E+04  0.12360052731E+04  0.00000000000E+00 0. -1.
          1   -1    0    0  501    0 -0.00000000000E+00 -0.00000000000E+00 -0.39263991154E+03  0.39263991154E+03  0.00000000000E+00 0. -1.
         25    2    1    2    0    0 -0.58591624847E+02 -0.27574578277E+02 -0.55317144120E+02  0.15124488896E+03  0.12498677583E+03 0.  0.
          2    1    1    2  501    0  0.97102070559E+02 -0.39474944447E+02 -0.27855621930E+03  0.29762501686E+03  0.00000000000E+00 0. -1.
          1    1    1    2  502    0 -0.38510445711E+02  0.67049522724E+02  0.11772387250E+04  0.11797752788E+04  0.00000000000E+00 0. -1.
         22    1    3    3    0    0 -0.46588090200E+01 -0.63914640330E+02 -0.57607940009E+02  0.86171111761E+02  0.00000000000E+00 0. -1.
         22    1    3    3    0    0 -0.53932815827E+02  0.36340062053E+02  0.22907958894E+01  0.65073777199E+02  0.00000000000E+00 0. -1.
</event>
<event>
 7    1  0.6557591E-006  0.4820730E+02  0.7818608E-02  0.1538526E+00
          2   -1    0    0  502    0  0.00000000000E+00  0.00000000000E+00  0.40274926478E+03  0.40274926478E+03  0.00000000000E+00 0. -1.
          1   -1    0    0  501    0 -0.00000000000E+00 -0.00000000000E+00 -0.46320874329E+02  0.46320874329E+02  0.00000000000E+00 0. -1.
         25    2    1    2    0    0  0.27049806609E+02 -0.13393664206E+02  0.22861717784E+03  0.26230223630E+03  0.12500226751E+03 0.  0.
          2    1    1    2  501    0 -0.29713449929E+02  0.40387402456E+02 -0.57604182785E+01  0.50469929687E+02  0.00000000000E+00 0. -1.
          1    1    1    2  502    0  0.26636433191E+01 -0.26993738250E+02  0.13357163088E+03  0.13629797312E+03  0.00000000000E+00 0. -1.
         22    1    3    3    0    0  0.33727552522E+02  0.15132327043E+01  0.24001920298E+03  0.24238204445E+03  0.00000000000E+00 0.  1.
         22    1    3    3    0    0 -0.66777459126E+01 -0.14906896910E+02 -0.11402025137E+02  0.19920191847E+02  0.00000000000E+00 0.  1.
</event>
<event>
 7    1  0.6557591E-006  0.7819930E+02  0.7818608E-02  0.1430912E+00
          2   -1    0    0  502    0  0.00000000000E+00  0.00000000000E+00  0.13563014299E+04  0.13563014299E+04  0.00000000000E+00 0. -1.
          1   -1    0    0  501    0 -0.00000000000E+00 -0.00000000000E+00 -0.77282582319E+02  0.77282582319E+02  0.00000000000E+00 0. -1.
         25    2    1    2    0    0  0.89827336585E+02 -0.45970559612E+02  0.16779927401E+03  0.23230227672E+03  0.12500203464E+03 0.  0.
          2    1    1    2  501    0 -0.34623515054E+02 -0.83654418868E+01 -0.36471476766E+02  0.50979770794E+02  0.00000000000E+00 0. -1.
          1    1    1    2  502    0 -0.55203821531E+02  0.54336001498E+02  0.11476910503E+04  0.11503019647E+04  0.00000000000E+00 0. -1.
         22    1    3    3    0    0  0.81745727984E+02  0.27861180585E+02  0.91625693820E+02  0.12591218049E+03  0.00000000000E+00 0.  1.
         22    1    3    3    0    0  0.80816086010E+01 -0.73831740197E+02  0.76173580187E+02  0.10639009623E+03  0.00000000000E+00 0.  1.
</event>
<event>
 7    1  0.6557591E-006  0.7286633E+02  0.7818608E-02  0.1507909E+00
          2   -1    0    0  502    0  0.00000000000E+00  0.00000000000E+00  0.83920951403E+02  0.83920951403E+02  0.00000000000E+00 0. -1.
          1   -1    0    0  501    0 -0.00000000000E+00 -0.00000000000E+00 -0.10827949160E+04  0.10827949160E+04  0.00000000000E+00 0. -1.
         25    2    1    2    0    0 -0.26266749800E+02 -0.57089320714E+02 -0.70259486401E+03  0.71638872241E+03  0.12499650383E+03 0.  0.
          2    1    1    2  501    0  0.47103796887E+02  0.64157455699E+02 -0.36737821019E+03  0.37590117867E+03  0.00000000000E+00 0. -1.
          1    1    1    2  502    0 -0.20837047086E+02 -0.70681349851E+01  0.71099109652E+02  0.74425966280E+02  0.00000000000E+00 0. -1.
         22    1    3    3    0    0 -0.41307266167E+02 -0.91680227899E+02 -0.45854882888E+03  0.46944497323E+03  0.00000000000E+00 0. -1.
         22    1    3    3    0    0  0.15040516367E+02  0.34590907184E+02 -0.24404603513E+03  0.24694374917E+03  0.00000000000E+00 0. -1.
</event>
<event>
 7    1  0.6557591E-006  0.4688814E+02  0.7818608E-02  0.1492370E+00
          2   -1    0    0  502    0  0.00000000000E+00  0.00000000000E+00  0.30478028267E+04  0.30478028267E+04  0.00000000000E+00 0. -1.
          1   -1    0    0  501    0 -0.00000000000E+00 -0.00000000000E+00 -0.16682185079E+04  0.16682185079E+04  0.00000000000E+00 0. -1.
         25    2    1    2    0    0 -0.67842451096E+02  0.31299188502E+02  0.92460668830E+02  0.17250004568E+03  0.12500021243E+03 0.  0.
          2    1    1    2  501    0  0.21053252685E+02 -0.31690366385E+02 -0.16277887740E+04  0.16282333407E+04  0.00000000000E+00 0. -1.
          1    1    1    2  502    0  0.46789198411E+02  0.39117788311E+00  0.29149124240E+04  0.29152879483E+04  0.00000000000E+00 0. -1.
         22    1    3    3    0    0 -0.76025384957E+02 -0.31439815429E+02  0.49302318919E+02  0.95911624962E+02  0.00000000000E+00 0.  1.
         22    1    3    3    0    0  0.81829338608E+01  0.62739003931E+02  0.43158349912E+02  0.76588420717E+02  0.00000000000E+00 0.  1.
</event>
<event>
 7    1  0.6557592E-006  0.4335735E+02  0.7818608E-02  0.1597255E+00
          2   -1    0    0  502    0  0.00000000000E+00  0.00000000000E+00  0.10771485695E+04  0.10771485695E+04  0.00000000000E+00 0. -1.
          1   -1    0    0  501    0 -0.00000000000E+00 -0.00000000000E+00 -0.65275137570E+03  0.65275137570E+03  0.00000000000E+00 0. -1.
         25    2    1    2    0    0  0.40796211045E+02 -0.37242673495E+02 -0.31923989205E+03  0.34726121511E+03  0.12499958109E+03 0.  0.
          2    1    1    2  501    0 -0.20826135328E+02 -0.12291124716E+01 -0.31871782249E+03  0.31939988886E+03  0.00000000000E+00 0. -1.
          1    1    1    2  502    0 -0.19970075716E+02  0.38471785967E+02  0.10623549083E+04  0.10632388412E+04  0.00000000000E+00 0. -1.
         22    1    3    3    0    0  0.52795674629E+02 -0.29573899718E+02 -0.52420012952E+02  0.80061579812E+02  0.00000000000E+00 0. -1.
         22    1    3    3    0    0 -0.11999463584E+02 -0.76687737776E+01 -0.26681987910E+03  0.26719963530E+03  0.00000000000E+00 0. -1.
</event>
<event>
 7    1  0.6557591E-006  0.1338178E+03  0.7818608E-02  0.1332094E+00
          2   -1    0    0  502    0  0.00000000000E+00  0.00000000000E+00  0.84419363287E+03  0.84419363287E+03  0.00000000000E+00 0. -1.
          1   -1    0    0  501    0 -0.00000000000E+00 -0.00000000000E+00 -0.43380723233E+02  0.43380723233E+02  0.00000000000E+00 0. -1.
         25    2    1    2    0    0  0.15170242408E+03 -0.27336915886E+02  0.39797143105E+03  0.44470591766E+03  0.12498464237E+03 0.  0.
          2    1    1    2  501    0 -0.12422793020E+03 -0.10257950561E+02  0.20757168110E+03  0.24212353662E+03  0.00000000000E+00 0. -1.
          1    1    1    2  502    0 -0.27474493883E+02  0.37594866447E+02  0.19526979749E+03  0.20074490183E+03  0.00000000000E+00 0. -1.
         22    1    3    3    0    0  0.13393337591E+03  0.27797477925E+02  0.31596992631E+03  0.34430777409E+03  0.00000000000E+00 0.  1.
         22    1    3    3    0    0  0.17769048171E+02 -0.55134393812E+02  0.82001504732E+02  0.10039814357E+03  0.00000000000E+00 0.  1.
</event>
<event>
 7    1  0.6557591E-006  0.9565666E+02  0.7818608E-02  0.1372036E+00
          2   -1    0    0  502    0  0.00000000000E+00  0.00000000000E+00  0.86945226018E+03  0.86945226018E+03  0.00000000000E+00 0. -1.
          1   -1    0    0  501    0 -0.00000000000E+00 -0.00000000000E+00 -0.29639726073E+03  0.29639726073E+03  0.00000000000E+00 0. -1.
         25    2    1    2    0    0 -0.12037782036E+03 -0.32345831291E+02  0.63948076443E+03  0.66339842284E+03  0.12499898762E+03 0.  0.
          2    1    1    2  501    0  0.45480053960E+02  0.90695105041E+01 -0.27538230731E+03  0.27925992643E+03  0.00000000000E+00 0. -1.
          1    1    1    2  502    0  0.74897766395E+02  0.23276320787E+02  0.20895654233E+03  0.22319117165E+03  0.00000000000E+00 0. -1.
         22    1    3    3    0    0 -0.22178279211E+01  0.18338432430E+02  0.29708481705E+03  0.29765853823E+03  0.00000000000E+00 0. -1.
         22    1    3    3    0    0 -0.11815999243E+03 -0.50684263721E+02  0.34239594739E+03  0.36573988460E+03  0.00000000000E+00 0. -1.
</event>
<event>
 7    1  0.6557591E-006  0.1189437E+03  0.7818608E-02  0.1300579E+00
          2   -1    0    0  502    0  0.00000000000E+00  0.00000000000E+00  0.85714802832E+03  0.85714802832E+03  0.00000000000E+00 0. -1.
          1   -1    0    0  501    0 -0.00000000000E+00 -0.00000000000E+00 -0.30528324345E+03  0.30528324345E+03  0.00000000000E+00 0. -1.
         25    2    1    2    0    0  0.47161676776E+02 -0.76607296184E+02  0.13025799828E+03  0.20171300774E+03  0.12501235855E+03 0.  0.
          2    1    1    2  501    0  0.50629350763E+01  0.12251998244E+03 -0.25373160216E+03  0.28180934219E+03  0.00000000000E+00 0. -1.
          1    1    1    2  502    0 -0.52224611852E+02 -0.45912686253E+02  0.67533838875E+03  0.67890892184E+03  0.00000000000E+00 0. -1.
         22    1    3    3    0    0  0.99162919881E+01 -0.63046138449E+02 -0.17878889525E+01  0.63846260400E+02  0.00000000000E+00 0. -1.
         22    1    3    3    0    0  0.37245384788E+02 -0.13561157735E+02  0.13204588723E+03  0.13786674734E+03  0.00000000000E+00 0. -1.
</event>
<event>
 7    1  0.6557591E-006  0.5008081E+02  0.7818608E-02  0.1488076E+00
          2   -1    0    0  502    0  0.00000000000E+00  0.00000000000E+00  0.43340526884E+03  0.43340526884E+03  0.00000000000E+00 0. -1.
          1   -1    0    0  501    0 -0.00000000000E+00 -0.00000000000E+00 -0.11250667093E+04  0.11250667093E+04  0.00000000000E+00 0. -1.
         25    2    1    2    0    0  0.32951551739E+02  0.50629283552E+01  0.61660696336E+02  0.14331211534E+03  0.12499953170E+03 0.  0.
          2    1    1    2  501    0  0.82364510805E+01 -0.35766135805E+02 -0.10819341560E+04  0.10825564990E+04  0.00000000000E+00 0. -1.
          1    1    1    2  502    0 -0.41188002820E+02  0.30703207450E+02  0.32861201914E+03  0.33260336386E+03  0.00000000000E+00 0. -1.
         22    1    3    3    0    0  0.78531648200E+02  0.45825329239E+01  0.19104546167E+02  0.80951856441E+02  0.00000000000E+00 0. -1.
         22    1    3    3    0    0 -0.45580096460E+02  0.48039543127E+00  0.42556150168E+02  0.62360258901E+02  0.00000000000E+00 0. -1.
</event>
<event>
 7    1  0.6557591E-006  0.8157626E+02  0.7818608E-02  0.1498346E+00
          2   -1    0    0  502    0  0.00000000000E+00  0.00000000000E+00  0.18470586350E+04  0.18470586350E+04  0.00000000000E+00 0. -1.
          1   -1    0    0  501    0 -0.00000000000E+00 -0.00000000000E+00 -0.67475955929E+02  0.67475955929E+02  0.00000000000E+00 0. -1.
         25    2    1    2    0    0 -0.36831506553E+02  0.68354718291E+02  0.72879941702E+02  0.16421103680E+03  0.12499940526E+03 0.  0.
          2    1    1    2  501    0 -0.19069319030E+02 -0.87543573839E+01 -0.15560512442E+02  0.26122925734E+02  0.00000000000E+00 0. -1.
          1    1    1    2  502    0  0.55900825582E+02 -0.59600360908E+02  0.17222632498E+04  0.17242006284E+04  0.00000000000E+00 0. -1.
         22    1    3    3    0    0 -0.28815727330E+02  0.10344707039E+03  0.37516840193E+02  0.11375041016E+03  0.00000000000E+00 0. -1.
         22    1    3    3    0    0 -0.80157792227E+01 -0.35092352097E+02  0.35363101510E+02  0.50460626637E+02  0.00000000000E+00 0. -1.
</event>
<event>
 7    1  0.6557591E-006  0.6390202E+02  0.7818608E-02  0.1431114E+00
          2   -1    0    0  502    0  0.00000000000E+00  0.00000000000E+00  0.18918723292E+04  0.18918723292E+04  0.00000000000E+00 0. -1.
          1   -1    0    0  501    0 -0.00000000000E+00 -0.00000000000E+00 -0.77410851919E+03  0.77410851919E+03  0.00000000000E+00 0. -1.
         25    2    1    2    0    0  0.33796414529E+02 -0.40026776299E+02  0.52958129182E+03  0.54664886564E+03  0.12499718879E+03 0.  0.
          2    1    1    2  501    0  0.31570237594E+02  0.29959459235E+02 -0.76414735841E+03  0.76538580760E+03  0.00000000000E+00 0. -1.
          1    1    1    2  502    0 -0.65366652122E+02  0.10067317064E+02  0.13523298766E+04  0.13539461752E+04  0.00000000000E+00 0. -1.
         22    1    3    3    0    0  0.38238035324E+02  0.34456873086E+02  0.12396265441E+03  0.13422430159E+03  0.00000000000E+00 0.  1.
         22    1    3    3    0    0 -0.44416207957E+01 -0.74483649385E+02  0.40561863740E+03  0.41242456405E+03  0.00000000000E+00 0.  1.
</event>
<event>
 7    1  0.6557591E-006  0.1137859E+03  0.7818608E-02  0.1311662E+00
          2   -1    0    0  502    0  0.00000000000E+00  0.00000000000E+00  0.15216412759E+04  0.15216412759E+04  0.00000000000E+00 0. -1.
          1   -1    0    0  501    0 -0.00000000000E+00 -0.00000000000E+00 -0.22853863290E+02  0.22853863290E+02  0.00000000000E+00 0. -1.
         25    2    1    2    0    0 -0.14072874212E+02  0.77349061307E+01  0.60927514664E+03  0.62217416699E+03  0.12500646058E+03 0.  0.
          2    1    1    2  501    0 -0.89628930304E+02  0.70099160685E+02  0.39072324698E+03  0.40695441170E+03  0.00000000000E+00 0. -1.
          1    1    1    2  502    0  0.10370180452E+03 -0.77834066816E+02  0.49878901900E+03  0.51536656051E+03  0.00000000000E+00 0. -1.
         22    1    3    3    0    0  0.12812092873E+01 -0.42589353410E+02  0.48951669509E+03  0.49136757045E+03  0.00000000000E+00 0.  1.
         22    1    3    3    0    0 -0.15354083499E+02  0.50324259541E+02  0.11975845155E+03  0.13080659654E+03  0.00000000000E+00 0.  1.
</event>
<event>
 7    1  0.6557591E-006  0.7440522E+02  0.7818608E-02  0.1402668E+00
          2   -1    0    0  502    0  0.00000000000E+00  0.00000000000E+00  0.13588050838E+03  0.13588050838E+03  0.00000000000E+00 0. -1.
          1   -1    0    0  501    0 -0.00000000000E+00 -0.00000000000E+00 -0.29967815550E+03  0.29967815550E+03  0.00000000000E+00 0. -1.
         25    2    1    2    0    0  0.73129184917E+02  0.47736447134E+02 -0.14539187334E+03  0.21068802101E+03  0.12499599710E+03 0.  0.
          2    1    1    2  501    0 -0.73218274310E+02 -0.11698896291E+01 -0.10413874694E+03  0.12730735623E+03  0.00000000000E+00 0. -1.
          1    1    1    2  502    0  0.89089393506E-01 -0.46566557505E+02  0.85732973157E+02  0.97563286646E+02  0.00000000000E+00 0. -1.
         22    1    3    3    0    0  0.10019376210E+03  0.59855464742E+02 -0.13678559455E+03  0.17981035982E+03  0.00000000000E+00 0. -1.
         22    1    3    3    0    0 -0.27064577182E+02 -0.12119017609E+02 -0.86062787924E+01  0.30877661189E+02  0.00000000000E+00 0. -1.
</event>
<event>
 7    1  0.6557591E-006  0.1555217E+03  0.7818608E-02  0.1284832E+00
          2   -1    0    0  502    0  0.00000000000E+00  0.00000000000E+00  0.10500456790E+03  0.10500456790E+03  0.00000000000E+00 0. -1.
          1   -1    0    0  501    0 -0.00000000000E+00 -0.00000000000E+00 -0.10419999376E+04  0.10419999376E+04  0.00000000000E+00 0. -1.
         25    2    1    2    0    0 -0.21198831866E+02  0.11941764595E+03 -0.22041792269E+03  0.28092128476E+03  0.12499097146E+03 0.  0.
          2    1    1    2  501    0 -0.50743792245E+02  0.34913292828E+02 -0.69118577683E+03  0.69392481477E+03  0.00000000000E+00 0. -1.
          1    1    1    2  502    0  0.71942624111E+02 -0.15433093878E+03 -0.25391670160E+02  0.17215840595E+03  0.00000000000E+00 0. -1.
         22    1    3    3    0    0  0.49481805912E+02  0.29729998510E+02 -0.96206793829E+02  0.11219656459E+03  0.00000000000E+00 0. -1.
         22    1    3    3    0    0 -0.70680637779E+02  0.89687647437E+02 -0.12421112887E+03  0.16872472016E+03  0.00000000000E+00 0. -1.
</event>
<event>
 7    1  0.6557591E-006  0.1075341E+03  0.7818608E-02  0.1384251E+00
          2   -1    0    0  502    0  0.00000000000E+00  0.00000000000E+00  0.11456700457E+04  0.11456700457E+04  0.00000000000E+00 0. -1.
          1   -1    0    0  501    0 -0.00000000000E+00 -0.00000000000E+00 -0.68125123781E+03  0.68125123781E+03  0.00000000000E+00 0. -1.
         25    2    1    2    0    0 -0.75237856639E+02  0.31492527343E+02 -0.19384584893E+02  0.15050818336E+03  0.12499774709E+03 0.  0.
          2    1    1    2  501    0 -0.32441556461E+02 -0.18471437332E+02 -0.59299343713E+03  0.59416737125E+03  0.00000000000E+00 0. -1.
          1    1    1    2  502    0  0.10767941310E+03 -0.13021090011E+02  0.10767968299E+04  0.10822457289E+04  0.00000000000E+00 0. -1.
         22    1    3    3    0    0 -0.19167650043E+01  0.21576163081E+01 -0.61118903320E+02  0.61187005477E+02  0.00000000000E+00 0.  1.
         22    1    3    3    0    0 -0.73321091635E+02  0.29334911035E+02  0.41734318427E+02  0.89321177884E+02  0.00000000000E+00 0.  1.
</event>
<event>
 7    1  0.6557591E-006  0.6471616E+02  0.7818608E-02  0.1482883E+00
          2   -1    0    0  502    0  0.00000000000E+00  0.00000000000E+00  0.29605693571E+03  0.29605693571E+03  0.00000000000E+00 0. -1.
          1   -1    0    0  501    0 -0.00000000000E+00 -0.00000000000E+00 -0.20987743444E+03  0.20987743444E+03  0.00000000000E+00 0. -1.
         25    2    1    2    0    0 -0.29978114621E+02 -0.34945166749E+02  0.14282503888E+03  0.19530314304E+03  0.12499789563E+03 0.  0.
          2    1    1    2  501    0 -0.38601257579E+01 -0.29200987063E+02 -0.17192836780E+03  0.17443325907E+03  0.00000000000E+00 0. -1.
          1    1    1    2  502    0  0.33838240379E+02  0.64146153812E+02  0.11528283020E+03  0.13619796804E+03  0.00000000000E+00 0. -1.
         22    1    3    3    0    0  0.17519753937E+02 -0.66261080737E+02  0.11004402905E+03  0.12964243491E+03  0.00000000000E+00 0. -1.
         22    1    3    3    0    0 -0.47497868558E+02  0.31315913988E+02  0.32781009827E+02  0.65660708127E+02  0.00000000000E+00 0. -1.
</event>
<event>
 7    1  0.6557591E-006  0.9516958E+02  0.7818608E-02  0.1342806E+00
          2   -1    0    0  502    0  0.00000000000E+00  0.00000000000E+00  0.22347077706E+03  0.22347077706E+03  0.00000000000E+00 0. -1.
          1   -1    0    0  501    0 -0.00000000000E+00 -0.00000000000E+00 -0.73028510825E+03  0.73028510825E+03  0.00000000000E+00 0. -1.
         25    2    1    2    0    0 -0.12560024436E+03  0.87996139935E+02 -0.61397987130E+03  0.64506971689E+03  0.12499966106E+03 0.  0.
          2    1    1    2  501    0  0.51856829753E+02 -0.29479126034E+02 -0.79639024186E+02  0.99501376056E+02  0.00000000000E+00 0. -1.
          1    1    1    2  502    0  0.73743414606E+02 -0.58517013901E+02  0.18680456429E+03  0.20918479236E+03  0.00000000000E+00 0. -1.
         22    1    3    3    0    0 -0.62386163166E+02 -0.25903433568E+02 -0.20420898454E+03  0.21509144704E+03  0.00000000000E+00 0.  1.
         22    1    3    3    0    0 -0.63214081193E+02  0.11389957350E+03 -0.40977088676E+03  0.42997826985E+03  0.00000000000E+00 0.  1.
</event>
<event>
 7    1  0.6557591E-006  0.8327692E+02  0.7818608E-02  0.1361949E+00
          2   -1    0    0  502    0  0.00000000000E+00  0.00000000000E+00  0.18394604041E+04  0.18394604041E+04  0.00000000000E+00 0. -1.
          1   -1    0    0  501    0 -0.00000000000E+00 -0.00000000000E+00 -0.55580820986E+02  0.55580820986E+02  0.00000000000E+00 0. -1.
         25    2    1    2    0    0 -0.93980237319E+02  0.64059098745E+02  0.23542326229E+03  0.28980573726E+03  0.12500959877E+03 0.  0.
          2    1    1    2  501    0  0.78592616483E+02 -0.82094887821E+01  0.28238495826E+02  0.83914287926E+02  0.00000000000E+00 0. -1.
          1    1    1    2  502    0  0.15387620836E+02 -0.55849609963E+02  0.15202178250E+04  0.15213211999E+04  0.00000000000E+00 0. -1.
         22    1    3    3    0    0 -0.28643268248E+02 -0.73677638402E+01  0.17096932671E+03  0.17350859182E+03  0.00000000000E+00 0.  1.
         22    1    3    3    0    0 -0.65336969071E+02  0.71426862585E+02  0.64453935575E+02  0.11629714544E+03  0.00000000000E+00 0.  1.
</event>
<event>
 7    1  0.6557591E-006  0.8853977E+02  0.7818608E-02  0.1419802E+00
          2   -1    0    0  502    0  0.00000000000E+00  0.00000000000E+00  0.25329466857E+03  0.25329466857E+03  0.00000000000E+00 0. -1.
          1   -1    0    0  501    0 -0.00000000000E+00 -0.00000000000E+00 -0.15043935011E+03  0.15043935011E+03  0.00000000000E+00 0. -1.
         25    2    1    2    0    0  0.20606527195E+02  0.11787734219E+03 -0.33574244618E+02  0.17627252934E+03  0.12500031173E+03 0.  0.
          2    1    1    2  501    0 -0.57113099511E+01 -0.33763982062E+02 -0.26631497439E+02  0.43380435704E+02  0.00000000000E+00 0. -1.
          1    1    1    2  502    0 -0.14895217244E+02 -0.84113360128E+02  0.16306106053E+03  0.18408105364E+03  0.00000000000E+00 0. -1.
         22    1    3    3    0    0 -0.44960414068E+01  0.10106589318E+02 -0.61223581253E+02  0.62214824900E+02  0.00000000000E+00 0.  1.
         22    1    3    3    0    0  0.25102568602E+02  0.10777075287E+03  0.27649336635E+02  0.11405770444E+03  0.00000000000E+00 0.  1.
</event>
<event>
 7    1  0.6557591E-006  0.5624757E+02  0.7818608E-02  0.1545133E+00
          2   -1    0    0  502    0  0.00000000000E+00  0.00000000000E+00  0.44568139076E+03  0.44568139076E+03  0.00000000000E+00 0. -1.
          1   -1    0    0  501    0 -0.00000000000E+00 -0.00000000000E+00 -0.26096936110E+03  0.26096936110E+03  0.00000000000E+00 0. -1.
         25    2    1    2    0    0  0.53357171367E+02 -0.50940583479E+02  0.26770467676E+02  0.14759396202E+03  0.12500155561E+03 0.  0.
          2    1    1    2  501    0 -0.46989780790E+02  0.29598966557E+02 -0.19635679729E+03  0.20405913398E+03  0.00000000000E+00 0. -1.
          1    1    1    2  502    0 -0.63673905769E+01  0.21341616922E+02  0.35429835928E+03  0.35499765585E+03  0.00000000000E+00 0. -1.
         22    1    3    3    0    0  0.55298012723E+02 -0.65039290086E+02 -0.28903445200E+02  0.90129843062E+02  0.00000000000E+00 0. -1.
         22    1    3    3    0    0 -0.19408413556E+01  0.14098706607E+02  0.55673912876E+02  0.57464118962E+02  0.00000000000E+00 0. -1.
</event>
<event>
 7    1  0.6557591E-006  0.7086462E+02  0.7818608E-02  0.1505476E+00
          2   -1    0    0  502    0  0.00000000000E+00  0.00000000000E+00  0.77625225227E+03  0.77625225227E+03  0.00000000000E+00 0. -1.
          1   -1    0    0  501    0 -0.00000000000E+00 -0.00000000000E+00 -0.11881630234E+04  0.11881630234E+04  0.00000000000E+00 0. -1.
         25    2    1    2    0    0  0.18971798783E+02 -0.48032433206E+02  0.32560509120E+03  0.35257527713E+03  0.12499442722E+03 0.  0.
          2    1    1    2  501    0 -0.39090004569E+02  0.59185046036E+02 -0.11733036238E+04  0.11754455715E+04  0.00000000000E+00 0. -1.
          1    1    1    2  502    0  0.20118205785E+02 -0.11152612831E+02  0.43578776139E+03  0.43639442704E+03  0.00000000000E+00 0. -1.
         22    1    3    3    0    0  0.65558992817E+02 -0.94957876972E+01  0.10773091523E+03  0.12646778886E+03  0.00000000000E+00 0.  1.
         22    1    3    3    0    0 -0.46587194034E+02 -0.38536645508E+02  0.21787417597E+03  0.22610748826E+03  0.00000000000E+00 0.  1.
</event>
<event>
 7    1  0.6557591E-006  0.1226545E+03  0.7818608E-02  0.1422389E+00
          2   -1    0    0  502    0  0.00000000000E+00  0.00000000000E+00  0.12330178961E+04  0.12330178961E+04  0.00000000000E+00 0. -1.
          1   -1    0    0  501    0 -0.00000000000E+00 -0.00000000000E+00 -0.45889913780E+03  0.45889913780E+03  0.00000000000E+00 0. -1.
         25    2    1    2    0    0  0.54219233899E+02 -0.85736281167E+02  0.17249366517E+03  0.23593013324E+03  0.12497410939E+03 0.  0.
          2    1    1    2  501    0  0.17066652906E+02 -0.17203673695E+02 -0.42302302356E+03  0.42371655088E+03  0.00000000000E+00 0. -1.
          1    1    1    2  502    0 -0.71285886805E+02  0.10293995486E+03  0.10246481167E+04  0.10322703497E+04  0.00000000000E+00 0. -1.
         22    1    3    3    0    0  0.16689064391E+01  0.30220584425E+02  0.16137978710E+02  0.34300194293E+02  0.00000000000E+00 0. -1.
         22    1    3    3    0    0  0.52550327460E+02 -0.11595686559E+03  0.15635568646E+03  0.20162993895E+03  0.00000000000E+00 0. -1.
</event>
<event>
 7    1  0.6557591E-006  0.1109501E+03  0.7818608E-02  0.1288019E+00
          2   -1    0    0  502    0  0.00000000000E+00  0.00000000000E+00  0.24260726274E+03  0.24260726274E+03  0.00000000000E+00 0. -1.
          1   -1    0    0  501    0 -0.00000000000E+00 -0.00000000000E+00 -0.19120961051E+03  0.19120961051E+03  0.00000000000E+00 0. -1.
         25    2    1    2    0    0 -0.20349185535E+02  0.53776386778E+02  0.77245693878E+02  0.15778845170E+03  0.12499723653E+03 0.  0.
          2    1    1    2  501    0 -0.24827222281E+02 -0.12433853487E+03 -0.10206079521E+03  0.16276629914E+03  0.00000000000E+00 0. -1.
          1    1    1    2  502    0  0.45176407816E+02  0.70562148088E+02  0.76212753564E+02  0.11326212241E+03  0.00000000000E+00 0. -1.
         22    1    3    3    0    0  0.32795031667E+00 -0.40442597339E+02  0.15808475249E+02  0.43423716108E+02  0.00000000000E+00 0.  1.
         22    1    3    3    0    0 -0.20677135852E+02  0.94218984116E+02  0.61437218629E+02  0.11436473560E+03  0.00000000000E+00 0.  1.
</event>
<event>
 7    1  0.6557591E-006  0.5418896E+02  0.7818608E-02  0.1441296E+00
          2   -1    0    0  502    0  0.00000000000E+00  0.00000000000E+00  0.31234499030E+03  0.31234499030E+03  0.00000000000E+00 0. -1.
          1   -1    0    0  501    0 -0.00000000000E+00 -0.00000000000E+00 -0.17722579104E+04  0.17722579104E+04  0.00000000000E+00 0. -1.
         25    2    1    2    0    0 -0.66351402381E+02  0.75811949773E+02 -0.89257081816E+03  0.90689434431E+03  0.12499890395E+03 0.  0.
          2    1    1    2  501    0  0.26045140513E+02 -0.39775550678E+02 -0.86947612239E+03  0.87077504052E+03  0.00000000000E+00 0. -1.
          1    1    1    2  502    0  0.40306261868E+02 -0.36036399096E+02  0.30213402049E+03  0.30693351584E+03  0.00000000000E+00 0. -1.
         22    1    3    3    0    0 -0.37080310382E+02 -0.10521392786E+02 -0.75653558115E+02  0.84906477843E+02  0.00000000000E+00 0. -1.
         22    1    3    3    0    0 -0.29271091999E+02  0.86333342559E+02 -0.81691726004E+03  0.82198786647E+03  0.00000000000E+00 0. -1.
</event>
<event>
 7    1  0.6557591E-006  0.1060577E+03  0.7818608E-02  0.1335377E+00
          2   -1    0    0  502    0  0.00000000000E+00  0.00000000000E+00  0.71414311376E+03  0.71414311376E+03  0.00000000000E+00 0. -1.
          1   -1    0    0  501    0 -0.00000000000E+00 -0.00000000000E+00 -0.16074292009E+04  0.16074292009E+04  0.00000000000E+00 0. -1.
         25    2    1    2    0    0 -0.48549846621E+02  0.32418767779E+02  0.86181767846E+02  0.16266454390E+03  0.12499757047E+03 0.  0.
          2    1    1    2  501    0  0.10460734033E+03 -0.21613618425E+02 -0.15659824653E+04  0.15696212683E+04  0.00000000000E+00 0. -1.
          1    1    1    2  502    0 -0.56057493706E+02 -0.10805149354E+02  0.58651461034E+03  0.58928650247E+03  0.00000000000E+00 0. -1.
         22    1    3    3    0    0 -0.45353186086E+02  0.76317539832E+02  0.77405220790E+02  0.11778304878E+03  0.00000000000E+00 0.  1.
         22    1    3    3    0    0 -0.31966605341E+01 -0.43898772053E+02  0.87765470556E+01  0.44881495124E+02  0.00000000000E+00 0.  1.
</event>
<event>
 7    1  0.6557591E-006  0.8440865E+02  0.7818608E-02  0.1497851E+00
          2   -1    0    0  502    0  0.00000000000E+00  0.00000000000E+00  0.47221565194E+03  0.47221565194E+03  0.00000000000E+00 0. -1.
          1   -1    0    0  501    0 -0.00000000000E+00 -0.00000000000E+00 -0.58643427842E+03  0.58643427842E+03  0.00000000000E+00 0. -1.
         25    2    1    2    0    0  0.92783621777E+02 -0.37107524233E+02 -0.41165826293E+03  0.44167093690E+03  0.12499968895E+03 0.  0.
          2    1    1    2  501    0 -0.19741303962E+02 -0.49317595618E+01 -0.15521638808E+03  0.15654446162E+03  0.00000000000E+00 0. -1.
          1    1    1    2  502    0 -0.73042317814E+02  0.42039283795E+02  0.45265602453E+03  0.46043453184E+03  0.00000000000E+00 0. -1.
         22    1    3    3    0    0 -0.67897309422E+01 -0.50657035897E+02 -0.21295028406E+03  0.21899785207E+03  0.00000000000E+00 0.  1.
         22    1    3    3    0    0  0.99573352719E+02  0.13549511664E+02 -0.19870797888E+03  0.22267308483E+03  0.00000000000E+00 0.  1.
</event>
<event>
 7    1  0.6557591E-006  0.1566745E+03  0.7818608E-02  0.1302692E+00
          2   -1    0    0  502    0  0.00000000000E+00  0.00000000000E+00  0.15375048166E+04  0.15375048166E+04  0.00000000000E+00 0. -1.
          1   -1    0    0  501    0 -0.00000000000E+00 -0.00000000000E+00 -0.45217119171E+03  0.45217119171E+03  0.00000000000E+00 0. -1.
         25    2    1    2    0    0 -0.11828220321E+03 -0.16472221028E+03  0.62990826421E+02  0.24640713507E+03  0.12499818336E+03 0.  0.
          2    1    1    2  501    0  0.41961208270E+02  0.30330830914E+02 -0.35425698828E+03  0.35802055255E+03  0.00000000000E+00 0. -1.
          1    1    1    2  502    0  0.76320994940E+02  0.13439137937E+03  0.13765997867E+04  0.13852483207E+04  0.00000000000E+00 0. -1.
         22    1    3    3    0    0 -0.70308978823E+02 -0.84344931316E+02 -0.30650500526E+02  0.11400382943E+03  0.00000000000E+00 0.  1.
         22    1    3    3    0    0 -0.47973224387E+02 -0.80377278967E+02  0.93641326947E+02  0.13240330564E+03  0.00000000000E+00 0.  1.
</event>
<event>
 7    1  0.6557591E-006  0.1630260E+03  0.7818608E-02  0.1245245E+00
          2   -1    0    0  502    0  0.00000000000E+00  0.00000000000E+00  0.12924428796E+04  0.12924428796E+04  0.00000000000E+00 0. -1.
          1   -1    0    0  501    0 -0.00000000000E+00 -0.00000000000E+00 -0.33197192822E+03  0.33197192822E+03  0.00000000000E+00 0. -1.
         25    2    1    2    0    0 -0.17623580226E+03 -0.16065638009E+03  0.26506483865E+03  0.37782630208E+03  0.12499526149E+03 0.  0.
          2    1    1    2  501    0  0.50682973622E+02  0.70018439168E+02 -0.26243903584E+03  0.27630706319E+03  0.00000000000E+00 0. -1.
          1    1    1    2  502    0  0.12555282863E+03  0.90637940920E+02  0.95784514853E+03  0.97028144250E+03  0.00000000000E+00 0. -1.
         22    1    3    3    0    0 -0.16732952561E+03 -0.17139394981E+03  0.20229720626E+03  0.31352705758E+03  0.00000000000E+00 0. -1.
         22    1    3    3    0    0 -0.89062766459E+01  0.10737569726E+02  0.62767632393E+02  0.64299244502E+02  0.00000000000E+00 0. -1.
</event>
<event>
 7    1  0.6557591E-006  0.5082355E+02  0.7818608E-02  0.1452008E+00
          2   -1    0    0  502    0  0.00000000000E+00  0.00000000000E+00  0.25125606102E+04  0.25125606102E+04  0.00000000000E+00 0. -1.
          1   -1    0    0  501    0 -0.00000000000E+00 -0.00000000000E+00 -0.69801988996E+03  0.69801988996E+03  0.00000000000E+00 0. -1.
         25    2    1    2    0    0  0.43167375618E+02  0.20585119951E+02  0.14308791619E+02  0.13460316972E+03  0.12500440912E+03 0.  0.
          2    1    1    2  501    0  0.48410653685E+00 -0.46825327986E+02 -0.63674682605E+03  0.63846641742E+03  0.00000000000E+00 0. -1.
          1    1    1    2  502    0 -0.43651482155E+02  0.26240208035E+02  0.24369787547E+04  0.24375109130E+04  0.00000000000E+00 0. -1.
         22    1    3    3    0    0 -0.33960157727E+02 -0.26769820859E+02  0.69765847449E+01  0.43801693534E+02  0.00000000000E+00 0.  1.
         22    1    3    3    0    0  0.77127533346E+02  0.47354940810E+02  0.73322068742E+01  0.90801476182E+02  0.00000000000E+00 0.  1.
</event>
<event>
 7    1  0.6557591E-006  0.1234230E+03  0.7818608E-02  0.1281848E+00
          2   -1    0    0  502    0  0.00000000000E+00  0.00000000000E+00  0.30843800438E+03  0.30843800438E+03  0.00000000000E+00 0. -1.
          1   -1    0    0  501    0 -0.00000000000E+00 -0.00000000000E+00 -0.34273204155E+03  0.34273204155E+03  0.00000000000E+00 0. -1.
         25    2    1    2    0    0 -0.65342418787E+02  0.17687758456E+02  0.17839446404E+03  0.22810621559E+03  0.12500148918E+03 0.  0.
          2    1    1    2  501    0  0.21254075244E+02  0.12157918516E+03 -0.24420601322E+03  0.27362348377E+03  0.00000000000E+00 0. -1.
          1    1    1    2  502    0  0.44088343543E+02 -0.13926694362E+03  0.31517512003E+02  0.14944034657E+03  0.00000000000E+00 0. -1.
         22    1    3    3    0    0  0.20771604401E+02 -0.19336110291E+02  0.10581942184E+03  0.10955863612E+03  0.00000000000E+00 0. -1.
         22    1    3    3    0    0 -0.86114023188E+02  0.37023868747E+02  0.72575042202E+02  0.11854757947E+03  0.00000000000E+00 0. -1.
</event>
<event>
 7    1  0.6557591E-006  0.9995738E+02  0.7818608E-02  0.1384141E+00
          2   -1    0    0  502    0  0.00000000000E+00  0.00000000000E+00  0.11964684137E+04  0.11964684137E+04  0.00000000000E+00 0. -1.
          1   -1    0    0  501    0 -0.00000000000E+00 -0.00000000000E+00 -0.94634040931E+03  0.94634040931E+03  0.00000000000E+00 0. -1.
         25    2    1    2    0    0 -0.39926157515E+02  0.12658820212E+03 -0.15363965905E+03  0.23843274888E+03  0.12500543962E+03 0.  0.
          2    1    1    2  501    0 -0.81923946949E+01 -0.39353298354E+02 -0.74761320410E+03  0.74869306152E+03  0.00000000000E+00 0. -1.
          1    1    1    2  502    0  0.48118552210E+02 -0.87234903767E+02  0.11513808675E+04  0.11556830126E+04  0.00000000000E+00 0. -1.
         22    1    3    3    0    0 -0.55112294357E+02  0.62600808292E+01 -0.22638121926E+02  0.59908581737E+02  0.00000000000E+00 0. -1.
         22    1    3    3    0    0  0.15186136843E+02  0.12032812129E+03 -0.13100153712E+03  0.17852416714E+03  0.00000000000E+00 0. -1.
</event>
<event>
 7    1  0.6557591E-006  0.2051478E+03  0.7818608E-02  0.1195737E+00
          2   -1    0    0  502    0  0.00000000000E+00  0.00000000000E+00  0.68912180050E+03  0.68912180050E+03  0.00000000000E+00 0. -1.
          1   -1    0    0  501    0 -0.00000000000E+00 -0.00000000000E+00 -0.27064150032E+04  0.27064150032E+04  0.00000000000E+00 0. -1.
         25    2    1    2    0    0  0.23685935408E+02 -0.31212325202E+03 -0.43037568255E+03  0.54665480788E+03  0.12500521134E+03 0.  0.
          2    1    1    2  501    0  0.15876942334E+02  0.11438795952E+03 -0.22002350963E+04  0.22032637522E+04  0.00000000000E+00 0. -1.
          1    1    1    2  502    0 -0.39562877742E+02  0.19773529250E+03  0.61331757620E+03  0.64561824361E+03  0.00000000000E+00 0. -1.
         22    1    3    3    0    0 -0.36479720679E+02 -0.49096553213E+02 -0.12493901176E+03  0.13910786540E+03  0.00000000000E+00 0.  1.
         22    1    3    3    0    0  0.60165656087E+02 -0.26302669881E+03 -0.30543667079E+03  0.40754694248E+03  0.00000000000E+00 0.  1.
</event>
<event>
 7    1  0.6557591E-006  0.4819590E+02  0.7818608E-02  0.1513480E+00
          2   -1    0    0  502    0  0.00000000000E+00  0.00000000000E+00  0.44414256764E+03  0.44414256764E+03  0.00000000000E+00 0. -1.
          1   -1    0    0  501    0 -0.00000000000E+00 -0.00000000000E+00 -0.51839122283E+03  0.51839122283E+03  0.00000000000E+00 0. -1.
         25    2    1    2    0    0  0.18175582668E+02 -0.30795269244E+01 -0.11035757105E+03  0.16775843469E+03  0.12499705448E+03 0.  0.
          2    1    1    2  501    0  0.23467984429E+02 -0.21805192258E+02 -0.37723581295E+03  0.37859354363E+03  0.00000000000E+00 0. -1.
          1    1    1    2  502    0 -0.41643567098E+02  0.24884719182E+02  0.41334472882E+03  0.41618181216E+03  0.00000000000E+00 0. -1.
         22    1    3    3    0    0  0.27407798363E+01 -0.19097258506E+02 -0.13395048003E+03  0.13533273165E+03  0.00000000000E+00 0.  1.
         22    1    3    3    0    0  0.15434802832E+02  0.16017731581E+02  0.23592908975E+02  0.32425703036E+02  0.00000000000E+00 0.  1.
</event>
<event>
 7    1  0.6557591E-006  0.1241433E+03  0.7818608E-02  0.1305856E+00
          2   -1    0    0  502    0  0.00000000000E+00  0.00000000000E+00  0.12378513458E+04  0.12378513458E+04  0.00000000000E+00 0. -1.
          1   -1    0    0  501    0 -0.00000000000E+00 -0.00000000000E+00 -0.25348223685E+04  0.25348223685E+04  0.00000000000E+00 0. -1.
         25    2    1    2    0    0  0.38404156921E+02 -0.17913020981E+03 -0.18244951253E+03  0.28718587791E+03  0.12500157005E+03 0.  0.
          2    1    1    2  501    0 -0.29750409370E+02  0.56073825995E+02 -0.22963557107E+04  0.22972328813E+04  0.00000000000E+00 0. -1.
          1    1    1    2  502    0 -0.86537475510E+01  0.12305638382E+03  0.11818342005E+04  0.11882549551E+04  0.00000000000E+00 0. -1.
         22    1    3    3    0    0  0.57170536869E+02 -0.16776835475E+03 -0.10350741690E+03  0.20525222653E+03  0.00000000000E+00 0.  1.
         22    1    3    3    0    0 -0.18766379949E+02 -0.11361855064E+02 -0.78942095630E+02  0.81933651385E+02  0.00000000000E+00 0.  1.
</event>
<event>
 7    1  0.6557591E-006  0.1391286E+03  0.7818608E-02  0.1358052E+00
          2   -1    0    0  502    0  0.00000000000E+00  0.00000000000E+00  0.44492059197E+03  0.44492059197E+03  0.00000000000E+00 0. -1.
          1   -1    0    0  501    0 -0.00000000000E+00 -0.00000000000E+00 -0.11119935986E+04  0.11119935986E+04  0.00000000000E+00 0. -1.
         25    2    1    2    0    0 -0.10996953237E+03  0.16602241022E+02 -0.33126516172E+03  0.37112034798E+03  0.12499909143E+03 0.  0.
          2    1    1    2  501    0 -0.23021694539E+02  0.27454191604E+02 -0.74881499440E+03  0.74967167940E+03  0.00000000000E+00 0. -1.
          1    1    1    2  502    0  0.13299122691E+03 -0.44056432626E+02  0.41300714950E+03  0.43612216319E+03  0.00000000000E+00 0. -1.
         22    1    3    3    0    0 -0.10623722486E+03 -0.16075965837E+02 -0.13709050684E+03  0.17417976831E+03  0.00000000000E+00 0.  1.
         22    1    3    3    0    0 -0.37323075180E+01  0.32678206859E+02 -0.19417465488E+03  0.19694057967E+03  0.00000000000E+00 0.  1.
</event>
<event>
 7    1  0.6557591E-006  0.7115629E+02  0.7818608E-02  0.1460885E+00
          2   -1    0    0  502    0  0.00000000000E+00  0.00000000000E+00  0.62961102107E+03  0.62961102107E+03  0.00000000000E+00 0. -1.
          1   -1    0    0  501    0 -0.00000000000E+00 -0.00000000000E+00 -0.17039909323E+04  0.17039909323E+04  0.00000000000E+00 0. -1.
         25    2    1    2    0    0  0.47258268214E+02 -0.84765952486E+02  0.54094688724E+02  0.16723940153E+03  0.12499668580E+03 0.  0.
          2    1    1    2  501    0 -0.18619851403E+01  0.31292716199E+02 -0.16448982523E+04  0.16451969370E+04  0.00000000000E+00 0. -1.
          1    1    1    2  502    0 -0.45396283073E+02  0.53473236286E+02  0.51642365228E+03  0.52116561490E+03  0.00000000000E+00 0. -1.
         22    1    3    3    0    0  0.20403156955E+02 -0.69587005098E+02 -0.29383851837E+02  0.78243535458E+02  0.00000000000E+00 0.  1.
         22    1    3    3    0    0  0.26855111258E+02 -0.15178947388E+02  0.83478540561E+02  0.88995866076E+02  0.00000000000E+00 0.  1.
</event>
<event>
 7    1  0.6557591E-006  0.1701969E+03  0.7818608E-02  0.1314208E+00
          2   -1    0    0  502    0  0.00000000000E+00  0.00000000000E+00  0.12642389578E+04  0.12642389578E+04  0.00000000000E+00 0. -1.
          1   -1    0    0  501    0 -0.00000000000E+00 -0.00000000000E+00 -0.58634606485E+03  0.58634606485E+03  0.00000000000E+00 0. -1.
         25    2    1    2    0    0  0.10176875899E+03  0.15534388311E+03  0.10538237591E+03  0.24742786265E+03  0.12500599882E+03 0.  0.
          2    1    1    2  501    0 -0.58979052179E+02 -0.15870579014E+03 -0.50097604209E+03  0.52881286971E+03  0.00000000000E+00 0. -1.
          1    1    1    2  502    0 -0.42789706807E+02  0.33619070291E+01  0.10734865592E+04  0.10743442903E+04  0.00000000000E+00 0. -1.
         22    1    3    3    0    0  0.86776574212E+02  0.14169448332E+03  0.13323544216E+03  0.21297695529E+03  0.00000000000E+00 0.  1.
         22    1    3    3    0    0  0.14992184774E+02  0.13649399786E+02 -0.27853066249E+02  0.34450907366E+02  0.00000000000E+00 0.  1.
</event>
<event>
 7    1  0.6557591E-006  0.1129287E+03  0.7818608E-02  0.1348190E+00
          2   -1    0    0  502    0  0.00000000000E+00  0.00000000000E+00  0.19011721070E+03  0.19011721070E+03  0.00000000000E+00 0. -1.
          1   -1    0    0  501    0 -0.00000000000E+00 -0.00000000000E+00 -0.89130950728E+03  0.89130950728E+03  0.00000000000E+00 0. -1.
         25    2    1    2    0    0  0.61189478258E+02  0.31168721446E+02 -0.24928698061E+03  0.28720159040E+03  0.12500045351E+03 0.  0.
          2    1    1    2  501    0  0.45966201383E+02  0.13815587556E+02 -0.60227273668E+03  0.60418226677E+03  0.00000000000E+00 0. -1.
          1    1    1    2  502    0 -0.10715567964E+03 -0.44984309002E+02  0.15036742071E+03  0.19004286081E+03  0.00000000000E+00 0. -1.
         22    1    3    3    0    0  0.41477994895E+02  0.64274616376E+02 -0.69568618643E+02  0.10339943458E+03  0.00000000000E+00 0.  1.
         22    1    3    3    0    0  0.19711483363E+02 -0.33105894930E+02 -0.17971836197E+03  0.18380215582E+03  0.00000000000E+00 0.  1.
</event>
<event>
 7    1  0.6557591E-006  0.4660654E+02  0.7818608E-02  0.1475498E+00
          2   -1    0    0  502    0  0.00000000000E+00  0.00000000000E+00  0.63997201398E+03  0.63997201398E+03  0.00000000000E+00 0. -1.
          1   -1    0    0  501    0 -0.00000000000E+00 -0.00000000000E+00 -0.24678711884E+03  0.24678711884E+03  0.00000000000E+00 0. -1.
         25    2    1    2    0    0  0.96401705104E+01  0.73607148923E+02 -0.11649827417E+03  0.18630081916E+03  0.12500080830E+03 0.  0.
          2    1    1    2  501    0 -0.29403023907E+02 -0.31503539087E+02 -0.89573007958E+02  0.99399871954E+02  0.00000000000E+00 0. -1.
          1    1    1    2  502    0  0.19762853396E+02 -0.42103609836E+02  0.59925617728E+03  0.60105844170E+03  0.00000000000E+00 0. -1.
         22    1    3    3    0    0  0.12723642321E+02  0.10211390026E+03 -0.51099526352E+02  0.11489256413E+03  0.00000000000E+00 0. -1.
         22    1    3    3    0    0 -0.30834718107E+01 -0.28506751333E+02 -0.65398747822E+02  0.71408255031E+02  0.00000000000E+00 0. -1.
</event>
<event>
 7    1  0.6557591E-006  0.1380039E+03  0.7818608E-02  0.1326997E+00
          2   -1    0    0  502    0  0.00000000000E+00  0.00000000000E+00  0.15016974289E+04  0.15016974289E+04  0.00000000000E+00 0. -1.
          1   -1    0    0  501    0 -0.00000000000E+00 -0.00000000000E+00 -0.13299929641E+04  0.13299929641E+04  0.00000000000E+00 0. -1.
         25    2    1    2    0    0 -0.36602192946E+02  0.12178348303E+03 -0.14066446266E+03  0.22711704672E+03  0.12499889836E+03 0.  0.
          2    1    1    2  501    0  0.82903953678E+02 -0.11249645309E+03 -0.11414576289E+04  0.11499800155E+04  0.00000000000E+00 0. -1.
          1    1    1    2  502    0 -0.46301760733E+02 -0.92870299388E+01  0.14538265564E+04  0.14545933308E+04  0.00000000000E+00 0. -1.
         22    1    3    3    0    0 -0.56099779792E+02  0.14048444916E+03 -0.11795635133E+03  0.19182483303E+03  0.00000000000E+00 0.  1.
         22    1    3    3    0    0  0.19497586846E+02 -0.18700966133E+02 -0.22708111328E+02  0.35292213691E+02  0.00000000000E+00 0.  1.
</event>
<event>
 7    1  0.6557591E-006  0.6271978E+02  0.7818608E-02  0.1452162E+00
          2   -1    0    0  502    0  0.00000000000E+00  0.00000000000E+00  0.97322142280E+03  0.97322142280E+03  0.00000000000E+00 0. -1.
          1   -1    0    0  501    0 -0.00000000000E+00 -0.00000000000E+00 -0.34127830948E+03  0.34127830948E+03  0.00000000000E+00 0. -1.
         25    2    1    2    0    0  0.90655986383E+02  0.36207503138E+02  0.32609912617E+03  0.36262362335E+03  0.12500304385E+03 0.  0.
          2    1    1    2  501    0 -0.33713431459E+02 -0.17321693180E+02 -0.32046585231E+03  0.32269954914E+03  0.00000000000E+00 0. -1.
          1    1    1    2  502    0 -0.56942554924E+02 -0.18885809959E+02  0.62630983946E+03  0.62917655979E+03  0.00000000000E+00 0. -1.
         22    1    3    3    0    0  0.87589689776E+02  0.23001923889E+02  0.95441500386E+02  0.13156793779E+03  0.00000000000E+00 0. -1.
         22    1    3    3    0    0  0.30662966074E+01  0.13205579249E+02  0.23065762578E+03  0.23105568556E+03  0.00000000000E+00 0. -1.
</event>
<event>
 7    1  0.6557591E-006  0.2236760E+03  0.7818608E-02  0.1302009E+00
          2   -1    0    0  502    0  0.00000000000E+00  0.00000000000E+00  0.38851892880E+03  0.38851892880E+03  0.00000000000E+00 0. -1.
          1   -1    0    0  501    0 -0.00000000000E+00 -0.00000000000E+00 -0.63629158683E+03  0.63629158683E+03  0.00000000000E+00 0. -1.
         25    2    1    2    0    0 -0.25045148233E+03  0.31888217109E+01  0.12626307817E+02  0.28021556005E+03  0.12500089144E+03 0.  0.
          2    1    1    2  501    0  0.36371478656E+02  0.29932078996E+01 -0.45425595196E+03  0.45571955592E+03  0.00000000000E+00 0. -1.
          1    1    1    2  502    0  0.21408000367E+03 -0.61820296106E+01  0.19385698611E+03  0.28887539966E+03  0.00000000000E+00 0. -1.
         22    1    3    3    0    0 -0.21137379826E+03  0.26171131730E+02  0.53028610483E+02  0.21948996391E+03  0.00000000000E+00 0.  1.
         22    1    3    3    0    0 -0.39077684067E+02 -0.22982310019E+02 -0.40402302666E+02  0.60725596140E+02  0.00000000000E+00 0.  1.
</event>
<event>
 7    1  0.6557591E-006  0.4437061E+02  0.7818608E-02  0.1534208E+00
          2   -1    0    0  502    0  0.00000000000E+00  0.00000000000E+00  0.11213964430E+04  0.11213964430E+04  0.00000000000E+00 0. -1.
          1   -1    0    0  501    0 -0.00000000000E+00 -0.00000000000E+00 -0.75725013023E+02  0.75725013023E+02  0.00000000000E+00 0. -1.
         25    2    1    2    0    0 -0.34890305094E+01 -0.49473308254E+02  0.92994806173E+02  0.16350126852E+03  0.12499939707E+03 0.  0.
          2    1    1    2  501    0 -0.24372789729E+02  0.37527966595E+02 -0.27796511511E+02  0.52678527012E+02  0.00000000000E+00 0. -1.
          1    1    1    2  502    0  0.27861820238E+02  0.11945341659E+02  0.98047313536E+03  0.98094166053E+03  0.00000000000E+00 0. -1.
         22    1    3    3    0    0 -0.40069868850E+00 -0.89125224725E+02  0.84534209389E+02  0.12283932106E+03  0.00000000000E+00 0. -1.
         22    1    3    3    0    0 -0.30883318209E+01  0.39651916470E+02  0.84605967840E+01  0.40661947459E+02  0.00000000000E+00 0. -1.
</event>
<event>
 7    1  0.6557591E-006  0.1713104E+03  0.7818608E-02  0.1280696E+00
          2   -1    0    0  502    0  0.00000000000E+00  0.00000000000E+00  0.70714751762E+03  0.70714751762E+03  0.00000000000E+00 0. -1.
          1   -1    0    0  501    0 -0.00000000000E+00 -0.00000000000E+00 -0.37628314486E+03  0.37628314486E+03  0.00000000000E+00 0. -1.
         25    2    1    2    0    0  0.56148519977E+02 -0.14581860263E+03 -0.13495357323E+03  0.24135688652E+03  0.12499983429E+03 0.  0.
          2    1    1    2  501    0  0.56275030362E+02  0.14654172272E+02 -0.17184874066E+03  0.18142109435E+03  0.00000000000E+00 0. -1.
          1    1    1    2  502    0 -0.11242355034E+03  0.13116443036E+03  0.63766668665E+03  0.66065268161E+03  0.00000000000E+00 0. -1.
         22    1    3    3    0    0 -0.19876292985E+02 -0.32757115918E+02  0.12778700485E+02  0.40390479722E+02  0.00000000000E+00 0. -1.
         22    1    3    3    0    0  0.76024812962E+02 -0.11306148671E+03 -0.14773227372E+03  0.20096640679E+03  0.00000000000E+00 0. -1.
</event>
<event>
 7    1  0.6557591E-006  0.1031503E+03  0.7818608E-02  0.1295438E+00
          2   -1    0    0  502    0  0.00000000000E+00  0.00000000000E+00  0.16010278614E+04  0.16010278614E+04  0.00000000000E+00 0. -1.
          1   -1    0    0  501    0 -0.00000000000E+00 -0.00000000000E+00 -0.55259497867E+03  0.55259497867E+03  0.00000000000E+00 0. -1.
         25    2    1    2    0    0  0.46870109711E+02 -0.69808504787E+02 -0.12592629536E+03  0.19634560887E+03  0.12499652688E+03 0.  0.
          2    1    1    2  501    0 -0.79009085135E+02 -0.28781464808E+02 -0.38520159622E+03  0.39427284713E+03  0.00000000000E+00 0. -1.
          1    1    1    2  502    0  0.32138975424E+02  0.98589969595E+02  0.15595607743E+04  0.15630043841E+04  0.00000000000E+00 0. -1.
         22    1    3    3    0    0  0.80889313137E+02 -0.80887019307E+02 -0.10236262788E+03  0.15350536948E+03  0.00000000000E+00 0.  1.
         22    1    3    3    0    0 -0.34019203426E+02  0.11078514520E+02 -0.23563667488E+02  0.42840239392E+02  0.00000000000E+00 0.  1.
</event>
<event>
 7    1  0.6557591E-006  0.6433852E+02  0.7818608E-02  0.1413640E+00
          2   -1    0    0  502    0  0.00000000000E+00  0.00000000000E+00  0.15748278385E+04  0.15748278385E+04  0.00000000000E+00 0. -1.
          1   -1    0    0  501    0 -0.00000000000E+00 -0.00000000000E+00 -0.15216164224E+03  0.15216164224E+03  0.00000000000E+00 0. -1.
         25    2    1    2    0    0  0.20870151145E+02 -0.14899179490E+02  0.10019517163E+03  0.16223738682E+03  0.12499739400E+03 0.  0.
          2    1    1    2  501    0 -0.67460526212E+02 -0.15907556931E+01 -0.11128456333E+03  0.13014494664E+03  0.00000000000E+00 0. -1.
          1    1    1    2  502    0  0.46590375067E+02  0.16489935183E+02  0.14337555880E+04  0.14346071473E+04  0.00000000000E+00 0. -1.
         22    1    3    3    0    0  0.30508024042E+02 -0.12414325766E+02  0.12828004505E+03  0.13244102451E+03  0.00000000000E+00 0. -1.
         22    1    3    3    0    0 -0.96378728976E+01 -0.24848537242E+01 -0.28084873420E+02  0.29796362313E+02  0.00000000000E+00 0. -1.
</event>
<event>
 7    1  0.6557591E-006  0.1039950E+03  0.7818608E-02  0.1299235E+00
          2   -1    0    0  502    0  0.00000000000E+00  0.00000000000E+00  0.16462340898E+04  0.16462340898E+04  0.00000000000E+00 0. -1.
          1   -1    0    0  501    0 -0.00000000000E+00 -0.00000000000E+00 -0.62021965026E+03  0.62021965026E+03  0.00000000000E+00 0. -1.
         25    2    1    2    0    0  0.89679809962E+02 -0.41739153042E+02  0.21305092352E+03  0.26608386259E+03  0.12500120281E+03 0.  0.
          2    1    1    2  501    0  0.97914140697E+01  0.79927155608E+02 -0.58894181388E+03  0.59442130020E+03  0.00000000000E+00 0. -1.
          1    1    1    2  502    0 -0.99471224031E+02 -0.38188002566E+02  0.14019053299E+04  0.14059485773E+04  0.00000000000E+00 0. -1.
         22    1    3    3    0    0  0.15047115614E+01 -0.66574866346E+02  0.73796912784E+02  0.99400509668E+02  0.00000000000E+00 0. -1.
         22    1    3    3    0    0  0.88175098400E+02  0.24835713304E+02  0.13925401074E+03  0.16668335292E+03  0.00000000000E+00 0. -1.
</event>
<event>
 7    1  0.6557591E-006  0.7667003E+02  0.7818608E-02  0.1348694E+00
          2   -1    0    0  502    0  0.00000000000E+00  0.00000000000E+00  0.20828603604E+03  0.20828603604E+03  0.00000000000E+00 0. -1.
          1   -1    0    0  501    0 -0.00000000000E+00 -0.00000000000E+00 -0.90427060958E+03  0.90427060958E+03  0.00000000000E+00 0. -1.
         25    2    1    2    0    0 -0.86398889875E+01  0.17271162350E+02 -0.20992477646E+03  0.24508380762E+03  0.12499888101E+03 0.  0.
          2    1    1    2  501    0  0.48494683349E+02  0.51023260405E+02 -0.66663625346E+03  0.67034245117E+03  0.00000000000E+00 0. -1.
          1    1    1    2  502    0 -0.39854794361E+02 -0.68294422755E+02  0.18057645638E+03  0.19713038683E+03  0.00000000000E+00 0. -1.
         22    1    3    3    0    0 -0.61010611529E+02  0.25473760412E+02 -0.15616945539E+03  0.16958804788E+03  0.00000000000E+00 0. -1.
         22    1    3    3    0    0  0.52370722542E+02 -0.82025980620E+01 -0.53755321074E+02  0.75495759737E+02  0.00000000000E+00 0. -1.
</event>
<event>
 7    1  0.6557591E-006  0.1963346E+03  0.7818608E-02  0.1344508E+00
          2   -1    0    0  502    0  0.00000000000E+00  0.00000000000E+00  0.70912077738E+03  0.70912077738E+03  0.00000000000E+00 0. -1.
          1   -1    0    0  501    0 -0.00000000000E+00 -0.00000000000E+00 -0.58826765464E+03  0.58826765464E+03  0.00000000000E+00 0. -1.
         25    2    1    2    0    0  0.20723547834E+03 -0.60744617901E+02  0.75716640434E+02  0.26075729127E+03  0.12499961290E+03 0.  0.
          2    1    1    2  501    0 -0.18070464732E+03  0.71136624734E+02 -0.47632439515E+03  0.51439237782E+03  0.00000000000E+00 0. -1.
          1    1    1    2  502    0 -0.26530831015E+02 -0.10392006833E+02  0.52146087746E+03  0.52223876294E+03  0.00000000000E+00 0. -1.
         22    1    3    3    0    0  0.25290504636E+02  0.34410453608E+02  0.24131403486E+02  0.49051132265E+02  0.00000000000E+00 0. -1.
         22    1    3    3    0    0  0.18194497370E+03 -0.95155071509E+02  0.51585236948E+02  0.21170615901E+03  0.00000000000E+00 0. -1.
</event>
<event>
 7    1  0.6557591E-006  0.1146922E+03  0.7818608E-02  0.1361845E+00
          2   -1    0    0  502    0  0.00000000000E+00  0.00000000000E+00  0.19425061285E+03  0.19425061285E+03  0.00000000000E+00 0. -1.
          1   -1    0    0  501    0 -0.00000000000E+00 -0.00000000000E+00 -0.38285140476E+03  0.38285140476E+03  0.00000000000E+00 0. -1.
         25    2    1    2    0    0 -0.67971155373E+02  0.35029293363E+02  0.89111856350E+02  0.17149727162E+03  0.12499304731E+03 0.  0.
          2    1    1    2  501    0  0.10893585861E+03 -0.44737790891E+02 -0.32298399242E+03  0.34378358103E+03  0.00000000000E+00 0. -1.
          1    1    1    2  502    0 -0.40964703241E+02  0.97084975285E+01  0.45271344151E+02  0.61821164961E+02  0.00000000000E+00 0. -1.
         22    1    3    3    0    0 -0.85887974829E+01  0.59972807997E+02 -0.11691195840E+01  0.60595973314E+02  0.00000000000E+00 0. -1.
         22    1    3    3    0    0 -0.59382357890E+02 -0.24943514634E+02  0.90280975934E+02  0.11090129831E+03  0.00000000000E+00 0. -1.
</event>
<event>
 7    1  0.6557591E-006  0.5073923E+02  0.7818608E-02  0.1504567E+00
          2   -1    0    0  502    0  0.00000000000E+00  0.00000000000E+00  0.53441238680E+03  0.53441238680E+03  0.00000000000E+00 0. -1.
          1   -1    0    0  501    0 -0.00000000000E+00 -0.00000000000E+00 -0.59725849327E+03  0.59725849327E+03  0.00000000000E+00 0. -1.
         25    2    1    2    0    0 -0.17659570252E+01 -0.41646881557E+02 -0.10946295604E+03  0.17130263300E+03  0.12499948793E+03 0.  0.
          2    1    1    2  501    0  0.33968651996E+02  0.38821438709E+02 -0.45489758703E+03  0.45781304929E+03  0.00000000000E+00 0. -1.
          1    1    1    2  502    0 -0.32202694971E+02  0.28254428483E+01  0.50151443660E+03  0.50255519777E+03  0.00000000000E+00 0. -1.
         22    1    3    3    0    0 -0.16987826784E+02  0.27090772288E+02 -0.93906570470E+02  0.99201512990E+02  0.00000000000E+00 0.  1.
         22    1    3    3    0    0  0.15221869759E+02 -0.68737653845E+02 -0.15556385566E+02  0.72101120012E+02  0.00000000000E+00 0.  1.
</event>
<event>
 7    1  0.6557591E-006  0.1332641E+03  0.7818608E-02  0.1423380E+00
          2   -1    0    0  502    0  0.00000000000E+00  0.00000000000E+00  0.10313681867E+03  0.10313681867E+03  0.00000000000E+00 0. -1.
          1   -1    0    0  501    0 -0.00000000000E+00 -0.00000000000E+00 -0.89935506017E+03  0.89935506017E+03  0.00000000000E+00 0. -1.
         25    2    1    2    0    0  0.12607300318E+02  0.13607668854E+03 -0.61664057311E+03  0.64385282010E+03  0.12500019344E+03 0.  0.
          2    1    1    2  501    0  0.86556820231E+01 -0.12992479269E+03 -0.25159658790E+03  0.28329527992E+03  0.00000000000E+00 0. -1.
          1    1    1    2  502    0 -0.21262982341E+02 -0.61518958551E+01  0.72018919507E+02  0.75343778824E+02  0.00000000000E+00 0. -1.
         22    1    3    3    0    0 -0.22078374184E+02  0.14229717090E+03 -0.41794325757E+03  0.44205486763E+03  0.00000000000E+00 0.  1.
         22    1    3    3    0    0  0.34685674502E+02 -0.62204823550E+01 -0.19869731554E+03  0.20179795247E+03  0.00000000000E+00 0.  1.
</event>
<event>
 7    1  0.6557591E-006  0.1486553E+03  0.7818608E-02  0.1328065E+00
          2   -1    0    0  502    0  0.00000000000E+00  0.00000000000E+00  0.44293777496E+03  0.44293777496E+03  0.00000000000E+00 0. -1.
          1   -1    0    0  501    0 -0.00000000000E+00 -0.00000000000E+00 -0.13842099454E+04  0.13842099454E+04  0.00000000000E+00 0. -1.
         25    2    1    2    0    0  0.11917551905E+03 -0.56928706457E+02 -0.32939070734E+03  0.37625457455E+03  0.12500233929E+03 0.  0.
          2    1    1    2  501    0 -0.15115572149E+03  0.27546215034E+02 -0.10245193251E+04  0.10359762032E+04  0.00000000000E+00 0. -1.
          1    1    1    2  502    0  0.31980202437E+02  0.29382491423E+02  0.41263786197E+03  0.41491694263E+03  0.00000000000E+00 0. -1.
         22    1    3    3    0    0 -0.19534416475E+02 -0.22144536969E+02 -0.20741108454E+02  0.36085558392E+02  0.00000000000E+00 0. -1.
         22    1    3    3    0    0  0.13870993552E+03 -0.34784169488E+02 -0.30864959888E+03  0.34016901615E+03  0.00000000000E+00 0. -1.
</event>
<event>
 7    1  0.6557591E-006  0.8927020E+02  0.7818608E-02  0.1327488E+00
          2   -1    0    0  502    0  0.00000000000E+00  0.00000000000E+00  0.62053492681E+03  0.62053492681E+03  0.00000000000E+00 0. -1.
          1   -1    0    0  501    0 -0.00000000000E+00 -0.00000000000E+00 -0.26155581518E+03  0.26155581518E+03  0.00000000000E+00 0. -1.
         25    2    1    2    0    0  0.85565986417E+02  0.12792917187E+03  0.33096460797E+01  0.19829917590E+03  0.12499679338E+03 0.  0.
          2    1    1    2  501    0 -0.56252680290E+02 -0.46034228556E+02 -0.15212623027E+03  0.16859983445E+03  0.00000000000E+00 0. -1.
          1    1    1    2  502    0 -0.29313306127E+02 -0.81894943315E+02  0.50779569583E+03  0.51519173165E+03  0.00000000000E+00 0. -1.
         22    1    3    3    0    0  0.82597941652E+02  0.13372923645E+03  0.39058537814E+02  0.16196140905E+03  0.00000000000E+00 0.  1.
         22    1    3    3    0    0  0.29680447648E+01 -0.58000645779E+01 -0.35748891734E+02  0.36337766842E+02  0.00000000000E+00 0.  1.
</event>
<event>
 7    1  0.6557591E-006  0.1141518E+03  0.7818608E-02  0.1331859E+00
          2   -1    0    0  502    0  0.00000000000E+00  0.00000000000E+00  0.50041446361E+03  0.50041446361E+03  0.00000000000E+00 0. -1.
          1   -1    0    0  501    0 -0.00000000000E+00 -0.00000000000E+00 -0.11722416466E+04  0.11722416466E+04  0.00000000000E+00 0. -1.
         25    2    1    2    0    0  0.55712896582E+02 -0.13846870319E+03 -0.11215426989E+03  0.22467884694E+03  0.12499798157E+03 0.  0.
          2    1    1    2  501    0 -0.48251681129E+02  0.25763009730E+02 -0.99588118150E+03  0.99738221613E+03  0.00000000000E+00 0. -1.
          1    1    1    2  502    0 -0.74612154521E+01  0.11270569346E+03  0.43620826841E+03  0.45059504713E+03  0.00000000000E+00 0. -1.
         22    1    3    3    0    0  0.15870854643E+02 -0.56975536409E+02  0.21685742885E+02  0.62994977742E+02  0.00000000000E+00 0. -1.
         22    1    3    3    0    0  0.39842041938E+02 -0.81493166783E+02 -0.13384001277E+03  0.16168386919E+03  0.00000000000E+00 0. -1.
</event>
<event>
 7    1  0.6557591E-006  0.1008001E+03  0.7818608E-02  0.1379405E+00
          2   -1    0    0  502    0  0.00000000000E+00  0.00000000000E+00  0.22213057074E+03  0.22213057074E+03  0.00000000000E+00 0. -1.
          1   -1    0    0  501    0 -0.00000000000E+00 -0.00000000000E+00 -0.48600849115E+03  0.48600849115E+03  0.00000000000E+00 0. -1.
         25    2    1    2    0    0 -0.31599385331E+01 -0.12735866406E+03 -0.33103613561E+02  0.18152504129E+03  0.12500110744E+03 0.  0.
          2    1    1    2  501    0  0.28541759386E+02  0.94618267950E+02 -0.36916028807E+03  0.38216039426E+03  0.00000000000E+00 0. -1.
          1    1    1    2  502    0 -0.25381820853E+02  0.32740396109E+02  0.13838598121E+03  0.14445362634E+03  0.00000000000E+00 0. -1.
         22    1    3    3    0    0  0.29845250877E+02 -0.18423341901E+02 -0.55368333904E+02  0.65542436070E+02  0.00000000000E+00 0.  1.
         22    1    3    3    0    0 -0.33005189410E+02 -0.10893532216E+03  0.22264720343E+02  0.11598260522E+03  0.00000000000E+00 0.  1.
</event>
<event>
 7    1  0.6557591E-006  0.8097476E+02  0.7818608E-02  0.1474472E+00
          2   -1    0    0  502    0  0.00000000000E+00  0.00000000000E+00  0.77173701793E+03  0.77173701793E+03  0.00000000000E+00 0. -1.
          1   -1    0    0  501    0 -0.00000000000E+00 -0.00000000000E+00 -0.48080281433E+02  0.48080281433E+02  0.00000000000E+00 0. -1.
         25    2    1    2    0    0  0.10267455011E+03 -0.16184121401E+02  0.52584327811E+03  0.55039949138E+03  0.12499783182E+03 0.  0.
          2    1    1    2  501    0 -0.78400664942E+02  0.10267132554E+02  0.97119950418E+01  0.79664302683E+02  0.00000000000E+00 0. -1.
          1    1    1    2  502    0 -0.24273885169E+02  0.59169888478E+01  0.18810146335E+03  0.18975350530E+03  0.00000000000E+00 0. -1.
         22    1    3    3    0    0  0.11944413620E+03 -0.31659516232E+02  0.50357998863E+03  0.51851907544E+03  0.00000000000E+00 0.  1.
         22    1    3    3    0    0 -0.16769586089E+02  0.15475394830E+02  0.22263289473E+02  0.31880415946E+02  0.00000000000E+00 0.  1.
</event>
<event>
 7    1  0.6557591E-006  0.1653189E+03  0.7818608E-02  0.1252268E+00
          2   -1    0    0  502    0  0.00000000000E+00  0.00000000000E+00  0.30620798756E+03  0.30620798756E+03  0.00000000000E+00 0. -1.
          1   -1    0    0  501    0 -0.00000000000E+00 -0.00000000000E+00 -0.16975234131E+04  0.16975234131E+04  0.00000000000E+00 0. -1.
         25    2    1    2    0    0 -0.21889765271E+03  0.93276476215E+02 -0.24948776079E+03  0.36672440826E+03  0.12500386173E+03 0.  0.
          2    1    1    2  501    0  0.76190157096E+02 -0.22529542840E+02 -0.13625222230E+04  0.13648367406E+04  0.00000000000E+00 0. -1.
          1    1    1    2  502    0  0.14270749562E+03 -0.70746933375E+02  0.22069455829E+03  0.27217025176E+03  0.00000000000E+00 0. -1.
         22    1    3    3    0    0 -0.16922685071E+03  0.10690124074E+03 -0.13571153978E+03  0.24183305048E+03  0.00000000000E+00 0.  1.
         22    1    3    3    0    0 -0.49670802002E+02 -0.13624764527E+02 -0.11377622101E+03  0.12489135778E+03  0.00000000000E+00 0.  1.
</event>
<event>
 7    1  0.6557591E-006  0.1248082E+03  0.7818608E-02  0.1347251E+00
          2   -1    0    0  502    0  0.00000000000E+00  0.00000000000E+00  0.62216591772E+03  0.62216591772E+03  0.00000000000E+00 0. -1.
          1   -1    0    0  501    0 -0.00000000000E+00 -0.00000000000E+00 -0.25074940922E+03  0.25074940922E+03  0.00000000000E+00 0. -1.
         25    2    1    2    0    0 -0.34027301431E+02  0.81680082155E+02  0.89769498640E+02  0.17751757544E+03  0.12499773455E+03 0.  0.
          2    1    1    2  501    0 -0.17735677817E+02  0.40026073699E+02 -0.19545792603E+03  0.20030087791E+03  0.00000000000E+00 0. -1.
          1    1    1    2  502    0  0.51762979248E+02 -0.12170615585E+03  0.47710493589E+03  0.49509687360E+03  0.00000000000E+00 0. -1.
         22    1    3    3    0    0 -0.63306837905E+02  0.90284688492E+02  0.96195522572E+02  0.14633065046E+03  0.00000000000E+00 0. -1.
         22    1    3    3    0    0  0.29279536474E+02 -0.86046063364E+01 -0.64260239319E+01  0.31186924983E+02  0.00000000000E+00 0. -1.
</event>
<event>
 7    1  0.6557591E-006  0.1145633E+03  0.7818608E-02  0.1266441E+00
          2   -1    0    0  502    0  0.00000000000E+00  0.00000000000E+00  0.22393920091E+04  0.22393920091E+04  0.00000000000E+00 0. -1.
          1   -1    0    0  501    0 -0.00000000000E+00 -0.00000000000E+00 -0.68389720823E+03  0.68389720823E+03  0.00000000000E+00 0. -1.
         25    2    1    2    0    0 -0.13404519680E+03 -0.11453079472E+03 -0.11884326118E+03  0.24665099622E+03  0.12501030151E+03 0.  0.
          2    1    1    2  501    0  0.10931874736E+03  0.17915537013E+02 -0.49386816617E+03  0.50613962554E+03  0.00000000000E+00 0. -1.
          1    1    1    2  502    0  0.24726449442E+02  0.96615257710E+02  0.21682062283E+04  0.21704985956E+04  0.00000000000E+00 0. -1.
         22    1    3    3    0    0 -0.58701320545E+02 -0.85739450541E+02 -0.10807590673E+01  0.10391470759E+03  0.00000000000E+00 0.  1.
         22    1    3    3    0    0 -0.75343876256E+02 -0.28791344182E+02 -0.11776250211E+03  0.14273628863E+03  0.00000000000E+00 0.  1.
</event>
<event>
 7    1  0.6557591E-006  0.3024145E+02  0.7818608E-02  0.1651293E+00
          2   -1    0    0  502    0  0.00000000000E+00  0.00000000000E+00  0.50467114184E+03  0.50467114184E+03  0.00000000000E+00 0. -1.
          1   -1    0    0  501    0 -0.00000000000E+00 -0.00000000000E+00 -0.10259283965E+03  0.10259283965E+03  0.00000000000E+00 0. -1.
         25    2    1    2    0    0  0.12731489853E+02  0.19370246780E+02  0.52255285870E+02  0.13744395393E+03  0.12499171283E+03 0.  0.
          2    1    1    2  501    0 -0.19206348949E+02  0.10360385681E+02 -0.57427697295E+02  0.61434207474E+02  0.00000000000E+00 0. -1.
          1    1    1    2  502    0  0.64748590961E+01 -0.29730632461E+02  0.40725071362E+03  0.40838582009E+03  0.00000000000E+00 0. -1.
         22    1    3    3    0    0  0.55700073486E+01 -0.33700457439E+02  0.72539509668E+02  0.80179338213E+02  0.00000000000E+00 0. -1.
         22    1    3    3    0    0  0.71614825048E+01  0.53070704219E+02 -0.20284223798E+02  0.57264615715E+02  0.00000000000E+00 0. -1.
</event>
<event>
 7    1  0.6557591E-006  0.1420070E+03  0.7818608E-02  0.1324448E+00
          2   -1    0    0  502    0  0.00000000000E+00  0.00000000000E+00  0.16250469171E+04  0.16250469171E+04  0.00000000000E+00 0. -1.
          1   -1    0    0  501    0 -0.00000000000E+00 -0.00000000000E+00 -0.33068843284E+03  0.33068843284E+03  0.00000000000E+00 0. -1.
         25    2    1    2    0    0  0.10577697877E+02  0.15605381231E+03  0.38164804971E+03  0.43097969784E+03  0.12499434416E+03 0.  0.
          2    1    1    2  501    0  0.32698011908E+02 -0.13787184354E+03 -0.28913763683E+03  0.32199127047E+03  0.00000000000E+00 0. -1.
          1    1    1    2  502    0 -0.43275709785E+02 -0.18181968765E+02  0.12018480714E+04  0.12027643816E+04  0.00000000000E+00 0. -1.
         22    1    3    3    0    0  0.14566288172E+02  0.10991401339E+03  0.36547814984E+03  0.38192609901E+03  0.00000000000E+00 0.  1.
         22    1    3    3    0    0 -0.39885902955E+01  0.46139798917E+02  0.16169899872E+02  0.49053598834E+02  0.00000000000E+00 0.  1.
</event>
<event>
 7    1  0.6557591E-006  0.1120446E+03  0.7818608E-02  0.1428693E+00
          2   -1    0    0  502    0  0.00000000000E+00  0.00000000000E+00  0.23865411103E+03  0.23865411103E+03  0.00000000000E+00 0. -1.
          1   -1    0    0  501    0 -0.00000000000E+00 -0.00000000000E+00 -0.12575274023E+04  0.12575274023E+04  0.00000000000E+00 0. -1.
         25    2    1    2    0    0  0.74209335828E+02  0.48454155048E+02 -0.68394796034E+03  0.70090246060E+03  0.12499846466E+03 0.  0.
          2    1    1    2  501    0  0.24773057073E+02  0.50470754620E+01 -0.55104484142E+03  0.55162450506E+03  0.00000000000E+00 0. -1.
          1    1    1    2  502    0 -0.98982392901E+02 -0.53501230510E+02  0.21611951051E+03  0.24365454765E+03  0.00000000000E+00 0. -1.
         22    1    3    3    0    0 -0.10193528012E+02  0.28560679339E+01 -0.41879616375E+03  0.41892993676E+03  0.00000000000E+00 0. -1.
         22    1    3    3    0    0  0.84402863840E+02  0.45598087114E+02 -0.26515179658E+03  0.28197252385E+03  0.00000000000E+00 0. -1.
</event>
<event>
 7    1  0.6557591E-006  0.1082829E+03  0.7818608E-02  0.1281176E+00
          2   -1    0    0  502    0  0.00000000000E+00  0.00000000000E+00  0.54663758346E+03  0.54663758346E+03  0.00000000000E+00 0. -1.
          1   -1    0    0  501    0 -0.00000000000E+00 -0.00000000000E+00 -0.32352564612E+03  0.32352564612E+03  0.00000000000E+00 0. -1.
         25    2    1    2    0    0 -0.42153961657E+01  0.40345627047E+02 -0.96476893106E+02  0.16302505665E+03  0.12499535594E+03 0.  0.
          2    1    1    2  501    0  0.99923093758E+02 -0.90993681576E+02 -0.16346455811E+03  0.21209699788E+03  0.00000000000E+00 0. -1.
          1    1    1    2  502    0 -0.95707697592E+02  0.50648054529E+02  0.48305338854E+03  0.49504117505E+03  0.00000000000E+00 0. -1.
         22    1    3    3    0    0 -0.10391689992E+02 -0.34428675193E+02 -0.77795026848E+02  0.85705233788E+02  0.00000000000E+00 0. -1.
         22    1    3    3    0    0  0.61762938261E+01  0.74774302240E+02 -0.18681866258E+02  0.77319822864E+02  0.00000000000E+00 0. -1.
</event>
<event>
 7    1  0.7446503E-006  0.1246988E+03  0.7818608E-02  0.1406541E+00
          2   -1    0    0  502    0  0.00000000000E+00  0.00000000000E+00  0.27505538178E+04  0.27505538178E+04  0.00000000000E+00 0. -1.
          1   -1    0    0  501    0 -0.00000000000E+00 -0.00000000000E+00 -0.11461689035E+04  0.11461689035E+04  0.00000000000E+00 0. -1.
         25    2    1    2    0    0  0.28763636339E+02  0.94894265873E+02 -0.35005229340E+03  0.38469608163E+03  0.12498879407E+03 0.  0.
          2    1    1    2  501    0  0.16244963976E+02  0.21505870374E+02 -0.77713641144E+03  0.77760362866E+03  0.00000000000E+00 0. -1.
          1    1    1    2  502    0 -0.45008600315E+02 -0.11640013625E+03  0.27315736192E+04  0.27344230110E+04  0.00000000000E+00 0. -1.
         22    1    3    3    0    0 -0.24385499041E+02  0.15252850592E+02 -0.22683318490E+03  0.22864950424E+03  0.00000000000E+00 0. -1.
         22    1    3    3    0    0  0.53149135381E+02  0.79641415281E+02 -0.12321910850E+03  0.15604657740E+03  0.00000000000E+00 0. -1.
</event>
<event>
 7    1  0.6557591E-006  0.6064813E+02  0.7818608E-02  0.1450618E+00
          2   -1    0    0  502    0  0.00000000000E+00  0.00000000000E+00  0.21178829888E+04  0.21178829888E+04  0.00000000000E+00 0. -1.
          1   -1    0    0  501    0 -0.00000000000E+00 -0.00000000000E+00 -0.23508500928E+03  0.23508500928E+03  0.00000000000E+00 0. -1.
         25    2    1    2    0    0 -0.89933248417E+02 -0.20276078769E+02  0.14143150544E+04  0.14228179255E+04  0.12499866915E+03 0.  0.
          2    1    1    2  501    0  0.51853854412E+02  0.31308747575E+02 -0.22628500429E+03  0.23425192221E+03  0.00000000000E+00 0. -1.
          1    1    1    2  502    0  0.38079394005E+02 -0.11032668806E+02  0.69476792943E+03  0.69589815045E+03  0.00000000000E+00 0. -1.
         22    1    3    3    0    0 -0.16038023918E+02 -0.56838121754E+02  0.32018173286E+03  0.32558275807E+03  0.00000000000E+00 0.  1.
         22    1    3    3    0    0 -0.73895224499E+02  0.36562042985E+02  0.10941333216E+04  0.10972351674E+04  0.00000000000E+00 0.  1.
</event>
<event>
 7    1  0.6557591E-006  0.1505854E+03  0.7818608E-02  0.1384019E+00
          2   -1    0    0  502    0  0.00000000000E+00  0.00000000000E+00  0.46692721353E+03  0.46692721353E+03  0.00000000000E+00 0. -1.
          1   -1    0    0  501    0 -0.00000000000E+00 -0.00000000000E+00 -0.66717173815E+03  0.66717173815E+03  0.00000000000E+00 0. -1.
         25    2    1    2    0    0 -0.15596458174E+03 -0.74340469055E+02  0.77601671468E+01  0.21339205268E+03  0.12499796740E+03 0.  0.
          2    1    1    2  501    0  0.26363082553E+02  0.42843905505E+01 -0.54879028564E+03  0.54943984724E+03  0.00000000000E+00 0. -1.
          1    1    1    2  502    0  0.12960149919E+03  0.70056078504E+02  0.34078559387E+03  0.37126705175E+03  0.00000000000E+00 0. -1.
         22    1    3    3    0    0 -0.94666733866E+02 -0.90209299500E+02 -0.36942809692E+02  0.13588333012E+03  0.00000000000E+00 0. -1.
         22    1    3    3    0    0 -0.61297847878E+02  0.15868830445E+02  0.44702976839E+02  0.77508722557E+02  0.00000000000E+00 0. -1.
</event>
<event>
 7    1  0.6557591E-006  0.1188603E+03  0.7818608E-02  0.1384761E+00
          2   -1    0    0  502    0  0.00000000000E+00  0.00000000000E+00  0.97306433090E+03  0.97306433090E+03  0.00000000000E+00 0. -1.
          1   -1    0    0  501    0 -0.00000000000E+00 -0.00000000000E+00 -0.39467251269E+02  0.39467251269E+02  0.00000000000E+00 0. -1.
         25    2    1    2    0    0 -0.62163602942E+02 -0.83988177971E+02  0.38782628848E+03  0.42065613890E+03  0.12499611830E+03 0.  0.
          2    1    1    2  501    0  0.50428828821E+02  0.11550961923E+03  0.15552942976E+03  0.20018726841E+03  0.00000000000E+00 0. -1.
          1    1    1    2  502    0  0.11734774121E+02 -0.31521441261E+02  0.39024136140E+03  0.39168817486E+03  0.00000000000E+00 0. -1.
         22    1    3    3    0    0 -0.10017871848E+03 -0.50890857592E+02  0.25924362704E+03  0.28254718753E+03  0.00000000000E+00 0. -1.
         22    1    3    3    0    0  0.38015115535E+02 -0.33097320380E+02  0.12858266144E+03  0.13810895137E+03  0.00000000000E+00 0. -1.
</event>
<event>
 7    1  0.6557591E-006  0.5938416E+02  0.7818608E-02  0.1494893E+00
          2   -1    0    0  502    0  0.00000000000E+00  0.00000000000E+00  0.20060739906E+04  0.20060739906E+04  0.00000000000E+00 0. -1.
          1   -1    0    0  501    0 -0.00000000000E+00 -0.00000000000E+00 -0.17530833253E+03  0.17530833253E+03  0.00000000000E+00 0. -1.
         25    2    1    2    0    0  0.15151653407E+02 -0.48817106288E+02 -0.14666917433E+02  0.13582581457E+03  0.12498340278E+03 0.  0.
          2    1    1    2  501    0  0.28342575392E+02  0.82524053618E+01 -0.97419805370E+02  0.10179401875E+03  0.00000000000E+00 0. -1.
          1    1    1    2  502    0 -0.43494228799E+02  0.40564700927E+02  0.19428523809E+04  0.19437624898E+04  0.00000000000E+00 0. -1.
         22    1    3    3    0    0  0.31281045656E+02  0.45973018633E+01 -0.57409083543E+02  0.65539620651E+02  0.00000000000E+00 0.  1.
         22    1    3    3    0    0 -0.16129392249E+02 -0.53414408152E+02  0.42742166111E+02  0.70286193924E+02  0.00000000000E+00 0.  1.
</event>
<event>
 7    1  0.6557591E-006  0.1368801E+03  0.7818608E-02  0.1307784E+00
          2   -1    0    0  502    0  0.00000000000E+00  0.00000000000E+00  0.39919795637E+03  0.39919795637E+03  0.00000000000E+00 0. -1.
          1   -1    0    0  501    0 -0.00000000000E+00 -0.00000000000E+00 -0.45965458947E+03  0.45965458947E+03  0.00000000000E+00 0. -1.
         25    2    1    2    0    0 -0.27468242833E+02  0.12070679266E+03 -0.24748444962E+02  0.17765856186E+03  0.12500177965E+03 0.  0.
          2    1    1    2  501    0 -0.56001760065E+02 -0.79776706136E+01 -0.34076808210E+03  0.34543121766E+03  0.00000000000E+00 0. -1.
          1    1    1    2  502    0  0.83470002899E+02 -0.11272912205E+03  0.30505989395E+03  0.33576276631E+03  0.00000000000E+00 0. -1.
         22    1    3    3    0    0 -0.58936366223E+02  0.99991821138E+02 -0.55848820552E+02  0.12880586289E+03  0.00000000000E+00 0. -1.
         22    1    3    3    0    0  0.31468123389E+02  0.20714971527E+02  0.31100375590E+02  0.48852698972E+02  0.00000000000E+00 0. -1.
</event>
<event>
 7    1  0.6557591E-006  0.9671240E+02  0.7818608E-02  0.1317514E+00
          2   -1    0    0  502    0  0.00000000000E+00  0.00000000000E+00  0.11002865445E+04  0.11002865445E+04  0.00000000000E+00 0. -1.
          1   -1    0    0  501    0 -0.00000000000E+00 -0.00000000000E+00 -0.16050495742E+03  0.16050495742E+03  0.00000000000E+00 0. -1.
         25    2    1    2    0    0  0.16029162722E+03  0.10599714979E+02  0.37657221744E+03  0.42806271771E+03  0.12500118254E+03 0.  0.
          2    1    1    2  501    0 -0.70990494120E+02 -0.18343572757E+02 -0.12164468142E+03  0.14203367712E+03  0.00000000000E+00 0. -1.
          1    1    1    2  502    0 -0.89301133102E+02  0.77438577778E+01  0.68485405103E+03  0.69069510706E+03  0.00000000000E+00 0. -1.
         22    1    3    3    0    0  0.11583702809E+03  0.35332418840E+02  0.13572125582E+03  0.18189792792E+03  0.00000000000E+00 0.  1.
         22    1    3    3    0    0  0.44454599127E+02 -0.24732703861E+02  0.24085096162E+03  0.24616478980E+03  0.00000000000E+00 0.  1.
</event>
<event>
 7    1  0.6557591E-006  0.8087234E+02  0.7818608E-02  0.1358616E+00
          2   -1    0    0  502    0  0.00000000000E+00  0.00000000000E+00  0.16917379496E+03  0.16917379496E+03  0.00000000000E+00 0. -1.
          1   -1    0    0  501    0 -0.00000000000E+00 -0.00000000000E+00 -0.69279110638E+03  0.69279110638E+03  0.00000000000E+00 0. -1.
         25    2    1    2    0    0  0.30272827994E+02 -0.55357450963E+02 -0.62395551374E+02  0.15329155517E+03  0.12499681821E+03 0.  0.
          2    1    1    2  501    0 -0.80762411121E+02  0.20511744199E+02 -0.57414617990E+03  0.58016130050E+03  0.00000000000E+00 0. -1.
          1    1    1    2  502    0  0.50489583127E+02  0.34845706764E+02  0.11292441986E+03  0.12851204568E+03  0.00000000000E+00 0. -1.
         22    1    3    3    0    0  0.72343869571E+02 -0.18802157583E+02 -0.76000166866E+01  0.75132661659E+02  0.00000000000E+00 0. -1.
         22    1    3    3    0    0 -0.42071041577E+02 -0.36555293380E+02 -0.54795534687E+02  0.78158893513E+02  0.00000000000E+00 0. -1.
</event>
<event>
 7    1  0.6557591E-006  0.2171713E+03  0.7818608E-02  0.1190714E+00
          2   -1    0    0  502    0  0.00000000000E+00  0.00000000000E+00  0.81523726032E+03  0.81523726032E+03  0.00000000000E+00 0. -1.
          1   -1    0    0  501    0 -0.00000000000E+00 -0.00000000000E+00 -0.17650121509E+04  0.17650121509E+04  0.00000000000E+00 0. -1.
         25    2    1    2    0    0  0.90920209767E+02  0.21334611110E+03  0.76912790667E+02  0.27445359977E+03  0.12500461348E+03 0.  0.
          2    1    1    2  501    0 -0.11519338715E+03  0.44615876810E+01 -0.16453910813E+04  0.16494245156E+04  0.00000000000E+00 0. -1.
          1    1    1    2  502    0  0.24273177382E+02 -0.21780769878E+03  0.61870340005E+03  0.65637129586E+03  0.00000000000E+00 0. -1.
         22    1    3    3    0    0 -0.27482207957E+02  0.12623978124E+02  0.57137243674E+01  0.30777966535E+02  0.00000000000E+00 0.  1.
         22    1    3    3    0    0  0.11840241772E+03  0.20072213298E+03  0.71199066299E+02  0.24367563323E+03  0.00000000000E+00 0.  1.
</event>
<event>
 7    1  0.6557591E-006  0.3592974E+02  0.7818608E-02  0.1549703E+00
          2   -1    0    0  502    0  0.00000000000E+00  0.00000000000E+00  0.28933037634E+04  0.28933037634E+04  0.00000000000E+00 0. -1.
          1   -1    0    0  501    0 -0.00000000000E+00 -0.00000000000E+00 -0.79453769895E+03  0.79453769895E+03  0.00000000000E+00 0. -1.
         25    2    1    2    0    0  0.46460579083E+01 -0.41238265903E+01  0.37176144455E+03  0.39226124545E+03  0.12499488482E+03 0.  0.
          2    1    1    2  501    0 -0.32907176243E+02 -0.14513844224E+02 -0.78376130217E+03  0.78458607731E+03  0.00000000000E+00 0. -1.
          1    1    1    2  502    0  0.28261118335E+02  0.18637670814E+02  0.25107659221E+04  0.25109941396E+04  0.00000000000E+00 0. -1.
         22    1    3    3    0    0  0.61722518527E+02  0.15656929174E+02  0.21621866463E+03  0.22540035417E+03  0.00000000000E+00 0.  1.
         22    1    3    3    0    0 -0.57076460619E+02 -0.19780755765E+02  0.15554277992E+03  0.16686089128E+03  0.00000000000E+00 0.  1.
</event>
<event>
 7    1  0.6557591E-006  0.1033754E+03  0.7818608E-02  0.1391490E+00
          2   -1    0    0  502    0  0.00000000000E+00  0.00000000000E+00  0.13189925868E+04  0.13189925868E+04  0.00000000000E+00 0. -1.
          1   -1    0    0  501    0 -0.00000000000E+00 -0.00000000000E+00 -0.43330569123E+03  0.43330569123E+03  0.00000000000E+00 0. -1.
         25    2    1    2    0    0  0.81778928812E+02  0.97390146225E+02  0.11686693030E+03  0.21319434669E+03  0.12498526427E+03 0.  0.
          2    1    1    2  501    0 -0.36188216695E+02 -0.56871444510E+01 -0.38199185887E+03  0.38374433010E+03  0.00000000000E+00 0. -1.
          1    1    1    2  502    0 -0.45590712118E+02 -0.91703001774E+02  0.11508118241E+04  0.11553596012E+04  0.00000000000E+00 0. -1.
         22    1    3    3    0    0  0.47138213179E+02 -0.19422656897E+02  0.60001883057E+02  0.78736755794E+02  0.00000000000E+00 0.  1.
         22    1    3    3    0    0  0.34640715633E+02  0.11681280312E+03  0.56865047238E+02  0.13445759090E+03  0.00000000000E+00 0.  1.
</event>
<event>
 7    1  0.6557591E-006  0.6104431E+02  0.7818608E-02  0.1464220E+00
          2   -1    0    0  502    0  0.00000000000E+00  0.00000000000E+00  0.38470719427E+03  0.38470719427E+03  0.00000000000E+00 0. -1.
          1   -1    0    0  501    0 -0.00000000000E+00 -0.00000000000E+00 -0.94124100279E+02  0.94124100279E+02  0.00000000000E+00 0. -1.
         25    2    1    2    0    0 -0.81005071499E+02  0.32545171444E+02  0.58605121382E+02  0.16334155985E+03  0.12499958051E+03 0.  0.
          2    1    1    2  501    0  0.45369893149E+02 -0.34108878112E+02 -0.20616335872E+02  0.60389370548E+02  0.00000000000E+00 0. -1.
          1    1    1    2  502    0  0.35635178350E+02  0.15637066682E+01  0.25259430848E+03  0.25510036416E+03  0.00000000000E+00 0. -1.
         22    1    3    3    0    0 -0.10830339803E+03 -0.20056972320E+01  0.44467833027E+02  0.11709413743E+03  0.00000000000E+00 0.  1.
         22    1    3    3    0    0  0.27298326535E+02  0.34550868676E+02  0.14137288355E+02  0.46247422413E+02  0.00000000000E+00 0.  1.
</event>
<event>
 7    1  0.6557591E-006  0.4724383E+02  0.7818608E-02  0.1561798E+00
          2   -1    0    0  502    0  0.00000000000E+00  0.00000000000E+00  0.27139050448E+04  0.27139050448E+04  0.00000000000E+00 0. -1.
          1   -1    0    0  501    0 -0.00000000000E+00 -0.00000000000E+00 -0.96183654542E+01  0.96183654542E+01  0.00000000000E+00 0. -1.
         25    2    1    2    0    0 -0.40420782384E+02  0.59654320406E+01  0.17639726033E+04  0.17688678744E+04  0.12499914433E+03 0.  0.
          2    1    1    2  501    0  0.37491213959E+02 -0.29620505662E+02  0.74449548656E+02  0.88462990990E+02  0.00000000000E+00 0. -1.
          1    1    1    2  502    0  0.29295684252E+01  0.23655073621E+02  0.86586452740E+03  0.86619254481E+03  0.00000000000E+00 0. -1.
         22    1    3    3    0    0 -0.20571033692E+01  0.60008808264E+02  0.10875283579E+04  0.10891846574E+04  0.00000000000E+00 0.  1.
         22    1    3    3    0    0 -0.38363679015E+02 -0.54043376223E+02  0.67644424542E+03  0.67968321705E+03  0.00000000000E+00 0.  1.
</event>
<event>
 7    1  0.6557591E-006  0.5374316E+02  0.7818608E-02  0.1528237E+00
          2   -1    0    0  502    0  0.00000000000E+00  0.00000000000E+00  0.11658666228E+04  0.11658666228E+04  0.00000000000E+00 0. -1.
          1   -1    0    0  501    0 -0.00000000000E+00 -0.00000000000E+00 -0.42221967719E+03  0.42221967719E+03  0.00000000000E+00 0. -1.
         25    2    1    2    0    0  0.64521058365E+02 -0.14962647024E+02  0.98108487885E+03  0.99122484675E+03  0.12494922780E+03 0.  0.
          2    1    1    2  501    0 -0.43947269026E+02  0.30911468468E+02 -0.41446374425E+03  0.41793190431E+03  0.00000000000E+00 0. -1.
          1    1    1    2  502    0 -0.20573789339E+02 -0.15948821443E+02  0.17702581104E+03  0.17892954895E+03  0.00000000000E+00 0. -1.
         22    1    3    3    0    0 -0.49973356015E+01  0.33524280671E+02  0.59413919028E+03  0.59510522447E+03  0.00000000000E+00 0.  1.
         22    1    3    3    0    0  0.69518393966E+02 -0.48486927695E+02  0.38694568856E+03  0.39611962228E+03  0.00000000000E+00 0.  1.
</event>
<event>
 7    1  0.6557591E-006  0.1155365E+03  0.7818608E-02  0.1304034E+00
          2   -1    0    0  502    0  0.00000000000E+00  0.00000000000E+00  0.81257195238E+03  0.81257195238E+03  0.00000000000E+00 0. -1.
          1   -1    0    0  501    0 -0.00000000000E+00 -0.00000000000E+00 -0.16845787353E+04  0.16845787353E+04  0.00000000000E+00 0. -1.
         25    2    1    2    0    0 -0.92343785200E+01 -0.52177917759E+02  0.48236533940E+02  0.14408436860E+03  0.12500293285E+03 0.  0.
          2    1    1    2  501    0  0.57806596097E+02  0.10167986067E+03 -0.16328796618E+04  0.16370633423E+04  0.00000000000E+00 0. -1.
          1    1    1    2  502    0 -0.48572217577E+02 -0.49501942910E+02  0.71263634494E+03  0.71600297681E+03  0.00000000000E+00 0. -1.
         22    1    3    3    0    0 -0.67816704036E+01 -0.49273233805E+02  0.89635977488E+02  0.10251073643E+03  0.00000000000E+00 0.  1.
         22    1    3    3    0    0 -0.24527081164E+01 -0.29046839541E+01 -0.41399443548E+02  0.41573632173E+02  0.00000000000E+00 0.  1.
</event>
<event>
 7    1  0.6557591E-006  0.1082504E+03  0.7818608E-02  0.1316587E+00
          2   -1    0    0  502    0  0.00000000000E+00  0.00000000000E+00  0.11583190089E+04  0.11583190089E+04  0.00000000000E+00 0. -1.
          1   -1    0    0  501    0 -0.00000000000E+00 -0.00000000000E+00 -0.12286460401E+03  0.12286460401E+03  0.00000000000E+00 0. -1.
         25    2    1    2    0    0  0.12368651737E+03  0.19894737519E+02  0.83509502379E+03  0.85364091268E+03  0.12499981554E+03 0.  0.
          2    1    1    2  501    0 -0.47296406508E+02  0.46111430563E+02 -0.94829303852E+02  0.11556734386E+03  0.00000000000E+00 0. -1.
          1    1    1    2  502    0 -0.76390110861E+02 -0.66006168082E+02  0.29518868499E+03  0.31197535642E+03  0.00000000000E+00 0. -1.
         22    1    3    3    0    0  0.13763416197E+03  0.18144681784E+02  0.82432311656E+03  0.83593121279E+03  0.00000000000E+00 0. -1.
         22    1    3    3    0    0 -0.13947644599E+02  0.17500557350E+01  0.10771907228E+02  0.17709699892E+02  0.00000000000E+00 0. -1.
</event>
<event>
 7    1  0.6557591E-006  0.7148182E+02  0.7818608E-02  0.1383882E+00
          2   -1    0    0  502    0  0.00000000000E+00  0.00000000000E+00  0.67324075877E+03  0.67324075877E+03  0.00000000000E+00 0. -1.
          1   -1    0    0  501    0 -0.00000000000E+00 -0.00000000000E+00 -0.12473958391E+03  0.12473958391E+03  0.00000000000E+00 0. -1.
         25    2    1    2    0    0  0.30089189083E+02 -0.10114497242E+01 -0.23785745910E+02  0.13076245897E+03  0.12500670637E+03 0.  0.
          2    1    1    2  501    0 -0.42791048979E+02  0.71355699423E+02 -0.70376826457E+01  0.83499932275E+02  0.00000000000E+00 0. -1.
          1    1    1    2  502    0  0.12701859896E+02 -0.70344249699E+02  0.57932460341E+03  0.58371795144E+03  0.00000000000E+00 0. -1.
         22    1    3    3    0    0 -0.54725724416E+00  0.50926637463E+01 -0.72615139204E+02  0.72795557255E+02  0.00000000000E+00 0.  1.
         22    1    3    3    0    0  0.30636446327E+02 -0.61041134704E+01  0.48829393294E+02  0.57966901713E+02  0.00000000000E+00 0.  1.
</event>
<event>
 7    1  0.6557591E-006  0.5262817E+02  0.7818608E-02  0.1560473E+00
          2   -1    0    0  502    0  0.00000000000E+00  0.00000000000E+00  0.82427558981E+03  0.82427558981E+03  0.00000000000E+00 0. -1.
          1   -1    0    0  501    0 -0.00000000000E+00 -0.00000000000E+00 -0.84455259440E+03  0.84455259440E+03  0.00000000000E+00 0. -1.
         25    2    1    2    0    0  0.12599225013E+02  0.43545154554E+02 -0.57908703117E+02  0.14502814425E+03  0.12499929508E+03 0.  0.
          2    1    1    2  501    0  0.21339656631E+02 -0.31942037917E+01 -0.74203694128E+03  0.74235059514E+03  0.00000000000E+00 0. -1.
          1    1    1    2  502    0 -0.33938881644E+02 -0.40350950762E+02  0.77966863980E+03  0.78144944482E+03  0.00000000000E+00 0. -1.
         22    1    3    3    0    0 -0.15985543716E+02  0.82739953477E+02 -0.40404742910E+02  0.93455768998E+02  0.00000000000E+00 0.  1.
         22    1    3    3    0    0  0.28584768729E+02 -0.39194798923E+02 -0.17503960206E+02  0.51572375249E+02  0.00000000000E+00 0.  1.
</event>
<event>
 7    1  0.6557591E-006  0.4329940E+02  0.7818608E-02  0.1580592E+00
          2   -1    0    0  502    0  0.00000000000E+00  0.00000000000E+00  0.53799259326E+03  0.53799259326E+03  0.00000000000E+00 0. -1.
          1   -1    0    0  501    0 -0.00000000000E+00 -0.00000000000E+00 -0.66028559075E+03  0.66028559075E+03  0.00000000000E+00 0. -1.
         25    2    1    2    0    0 -0.23823554164E+02 -0.39530323056E+02 -0.39082373065E+03  0.41291466593E+03  0.12500049891E+03 0.  0.
          2    1    1    2  501    0  0.38117553551E+02  0.21350117702E+02 -0.25631332575E+03  0.26001018513E+03  0.00000000000E+00 0. -1.
          1    1    1    2  502    0 -0.14293999387E+02  0.18180205354E+02  0.52484405891E+03  0.52535333296E+03  0.00000000000E+00 0. -1.
         22    1    3    3    0    0 -0.46258610418E+02 -0.58531191544E+02 -0.36856287959E+03  0.37603770507E+03  0.00000000000E+00 0.  1.
         22    1    3    3    0    0  0.22435056254E+02  0.19000868488E+02 -0.22260851055E+02  0.36876960857E+02  0.00000000000E+00 0.  1.
</event>
<event>
 7    1  0.6557591E-006  0.1432798E+03  0.7818608E-02  0.1351315E+00
          2   -1    0    0  502    0  0.00000000000E+00  0.00000000000E+00  0.59709673796E+03  0.59709673796E+03  0.00000000000E+00 0. -1.
          1   -1    0    0  501    0 -0.00000000000E+00 -0.00000000000E+00 -0.95604912922E+03  0.95604912922E+03  0.00000000000E+00 0. -1.
         25    2    1    2    0    0  0.17003995631E+03 -0.53327288216E+02  0.43378023184E+03  0.48533270764E+03  0.12500064464E+03 0.  0.
          2    1    1    2  501    0 -0.13324928037E+03  0.51530418456E+02 -0.92220366304E+03  0.93320434572E+03  0.00000000000E+00 0. -1.
          1    1    1    2  502    0 -0.36790675941E+02  0.17968697600E+01  0.12947103994E+03  0.13460881383E+03  0.00000000000E+00 0. -1.
         22    1    3    3    0    0  0.13336554903E+03 -0.30629822404E+02  0.41729795117E+03  0.43916071744E+03  0.00000000000E+00 0. -1.
         22    1    3    3    0    0  0.36674407277E+02 -0.22697465812E+02  0.16482280674E+02  0.46171990206E+02  0.00000000000E+00 0. -1.
</event>
<event>
 7    1  0.6557591E-006  0.5770434E+02  0.7818608E-02  0.1519466E+00
          2   -1    0    0  502    0  0.00000000000E+00  0.00000000000E+00  0.71470681690E+03  0.71470681690E+03  0.00000000000E+00 0. -1.
          1   -1    0    0  501    0 -0.00000000000E+00 -0.00000000000E+00 -0.76445327363E+02  0.76445327363E+02  0.00000000000E+00 0. -1.
         25    2    1    2    0    0  0.69089636976E+02 -0.39344680533E+02  0.93843930381E+02  0.17536427855E+03  0.12499826038E+03 0.  0.
          2    1    1    2  501    0 -0.44918320299E+02  0.30609385970E+02 -0.14518126222E+02  0.56261585446E+02  0.00000000000E+00 0. -1.
          1    1    1    2  502    0 -0.24171316677E+02  0.87352945632E+01  0.55893568538E+03  0.55952628027E+03  0.00000000000E+00 0. -1.
         22    1    3    3    0    0  0.95446598173E+02 -0.91853954334E+01  0.30874251528E+02  0.10073551509E+03  0.00000000000E+00 0. -1.
         22    1    3    3    0    0 -0.26356961197E+02 -0.30159285100E+02  0.62969678854E+02  0.74628763464E+02  0.00000000000E+00 0. -1.
</event>
<event>
 7    1  0.1321025E-005  0.6237076E+02  0.7818608E-02  0.1469551E+00
          2   -1    0    0  502    0  0.00000000000E+00  0.00000000000E+00  0.13919929709E+04  0.13919929709E+04  0.00000000000E+00 0. -1.
          1   -1    0    0  501    0 -0.00000000000E+00 -0.00000000000E+00 -0.70754078733E+03  0.70754078733E+03  0.00000000000E+00 0. -1.
         25    2    1    2    0    0  0.28596733803E+02  0.31488162253E+02 -0.33036539670E+03  0.35577634141E+03  0.12500492880E+03 0.  0.
          2    1    1    2  501    0  0.31006798697E+02 -0.12937239955E+02 -0.36298745395E+03  0.36453900405E+03  0.00000000000E+00 0. -1.
          1    1    1    2  502    0 -0.59603532500E+02 -0.18550922298E+02  0.13778050342E+04  0.13792184127E+04  0.00000000000E+00 0. -1.
         22    1    3    3    0    0 -0.97835213001E+01  0.52627422754E+02 -0.54275799444E+02  0.76231393271E+02  0.00000000000E+00 0.  1.
         22    1    3    3    0    0  0.38380255103E+02 -0.21139260501E+02 -0.27608959726E+03  0.27954494814E+03  0.00000000000E+00 0.  1.
</event>
<event>
 7    1  0.6557591E-006  0.1082642E+03  0.7818608E-02  0.1327585E+00
          2   -1    0    0  502    0  0.00000000000E+00  0.00000000000E+00  0.56311945826E+03  0.56311945826E+03  0.00000000000E+00 0. -1.
          1   -1    0    0  501    0 -0.00000000000E+00 -0.00000000000E+00 -0.21577698715E+04  0.21577698715E+04  0.00000000000E+00 0. -1.
         25    2    1    2    0    0  0.29700342466E+02  0.11626176143E+03  0.17979153710E+03  0.24969597691E+03  0.12499670619E+03 0.  0.
          2    1    1    2  501    0 -0.75477070756E+02 -0.77653456625E+02 -0.21188512162E+04  0.21216166769E+04  0.00000000000E+00 0. -1.
          1    1    1    2  502    0  0.45776728290E+02 -0.38608304801E+02  0.34440926577E+03  0.34957667600E+03  0.00000000000E+00 0. -1.
         22    1    3    3    0    0 -0.90562850986E+01 -0.24764342634E+02  0.20137489337E+02  0.33178418327E+02  0.00000000000E+00 0.  1.
         22    1    3    3    0    0  0.38756627565E+02  0.14102610406E+03  0.15965404776E+03  0.21651755858E+03  0.00000000000E+00 0.  1.
</event>
<event>
 7    1  0.6557591E-006  0.6065886E+02  0.7818608E-02  0.1438284E+00
          2   -1    0    0  502    0  0.00000000000E+00  0.00000000000E+00  0.31637643345E+03  0.31637643345E+03  0.00000000000E+00 0. -1.
          1   -1    0    0  501    0 -0.00000000000E+00 -0.00000000000E+00 -0.21851770095E+04  0.21851770095E+04  0.00000000000E+00 0. -1.
         25    2    1    2    0    0 -0.56851188047E+02  0.84203638432E+02  0.32541485607E+02  0.16433515683E+03  0.12499914070E+03 0.  0.
          2    1    1    2  501    0  0.25969486701E+02 -0.34822697378E+02 -0.21151619821E+04  0.21156080084E+04  0.00000000000E+00 0. -1.
          1    1    1    2  502    0  0.30881701346E+02 -0.49380941054E+02  0.21381992046E+03  0.22161027775E+03  0.00000000000E+00 0. -1.
         22    1    3    3    0    0 -0.36603758876E+02 -0.81471254114E+01  0.55558405049E+02  0.67029450154E+02  0.00000000000E+00 0. -1.
         22    1    3    3    0    0 -0.20247429172E+02  0.92350763843E+02 -0.23016919442E+02  0.97305706673E+02  0.00000000000E+00 0. -1.
</event>
<event>
 7    1  0.6557591E-006  0.9976751E+02  0.7818608E-02  0.1370956E+00
          2   -1    0    0  502    0  0.00000000000E+00  0.00000000000E+00  0.11709003755E+04  0.11709003755E+04  0.00000000000E+00 0. -1.
          1   -1    0    0  501    0 -0.00000000000E+00 -0.00000000000E+00 -0.52636301361E+02  0.52636301361E+02  0.00000000000E+00 0. -1.
         25    2    1    2    0    0  0.47716937716E+02  0.53649217173E+02  0.43891439881E+03  0.46198212920E+03  0.12500597413E+03 0.  0.
          2    1    1    2  501    0  0.36985659231E+01  0.44710475440E+02 -0.23051470932E+02  0.50438837379E+02  0.00000000000E+00 0. -1.
          1    1    1    2  502    0 -0.51415503639E+02 -0.98359692614E+02  0.70240114629E+03  0.71111571031E+03  0.00000000000E+00 0. -1.
         22    1    3    3    0    0 -0.23958764410E+02  0.66589585400E+02  0.23657762218E+03  0.24693555149E+03  0.00000000000E+00 0.  1.
         22    1    3    3    0    0  0.71675702126E+02 -0.12940368226E+02  0.20233677663E+03  0.21504657770E+03  0.00000000000E+00 0.  1.
</event>
<event>
 7    1  0.6557591E-006  0.5379407E+02  0.7818608E-02  0.1515028E+00
          2   -1    0    0  502    0  0.00000000000E+00  0.00000000000E+00  0.23666284071E+03  0.23666284071E+03  0.00000000000E+00 0. -1.
          1   -1    0    0  501    0 -0.00000000000E+00 -0.00000000000E+00 -0.12447555432E+04  0.12447555432E+04  0.00000000000E+00 0. -1.
         25    2    1    2    0    0  0.27414683968E+02 -0.10209706128E+02  0.65674059918E+02  0.14419923402E+03  0.12499813578E+03 0.  0.
          2    1    1    2  501    0 -0.53945832552E+02  0.69121705226E-01 -0.12033505288E+04  0.12045591114E+04  0.00000000000E+00 0. -1.
          1    1    1    2  502    0  0.26531148583E+02  0.10140584423E+02  0.12958376642E+03  0.13266003851E+03  0.00000000000E+00 0. -1.
         22    1    3    3    0    0  0.48248751572E+02 -0.57231009906E+02  0.25991279454E+02  0.79239366042E+02  0.00000000000E+00 0.  1.
         22    1    3    3    0    0 -0.20834067603E+02  0.47021303778E+02  0.39682780463E+02  0.64959867974E+02  0.00000000000E+00 0.  1.
</event>
<event>
 7    1  0.6557591E-006  0.5477581E+02  0.7818608E-02  0.1500369E+00
          2   -1    0    0  502    0  0.00000000000E+00  0.00000000000E+00  0.16927544628E+04  0.16927544628E+04  0.00000000000E+00 0. -1.
          1   -1    0    0  501    0 -0.00000000000E+00 -0.00000000000E+00 -0.12339658138E+03  0.12339658138E+03  0.00000000000E+00 0. -1.
         25    2    1    2    0    0 -0.27204390505E+02  0.18325471740E+02  0.67435189362E+02  0.14577220984E+03  0.12500452240E+03 0.  0.
          2    1    1    2  501    0  0.56409620956E+02 -0.84881155733E+01 -0.74401584104E+02  0.93753342125E+02  0.00000000000E+00 0. -1.
          1    1    1    2  502    0 -0.29205230451E+02 -0.98373561666E+01  0.15763242761E+04  0.15766254922E+04  0.00000000000E+00 0. -1.
         22    1    3    3    0    0 -0.61861133502E+02  0.25502404621E+02 -0.29639652126E+01  0.66977291446E+02  0.00000000000E+00 0. -1.
         22    1    3    3    0    0  0.34656742997E+02 -0.71769328807E+01  0.70399154574E+02  0.78794918399E+02  0.00000000000E+00 0. -1.
</event>
<event>
 7    1  0.6557591E-006  0.5508843E+02  0.7818608E-02  0.1510710E+00
          2   -1    0    0  502    0  0.00000000000E+00  0.00000000000E+00  0.46384434097E+03  0.46384434097E+03  0.00000000000E+00 0. -1.
          1   -1    0    0  501    0 -0.00000000000E+00 -0.00000000000E+00 -0.57388912627E+02  0.57388912627E+02  0.00000000000E+00 0. -1.
         25    2    1    2    0    0 -0.25172968577E+02  0.19532902205E+02  0.20394302651E+03  0.24131617042E+03  0.12500209371E+03 0.  0.
          2    1    1    2  501    0 -0.26419834091E+02  0.10837429500E+02 -0.29053273067E+02  0.40737577094E+02  0.00000000000E+00 0. -1.
          1    1    1    2  502    0  0.51592802668E+02 -0.30370331705E+02  0.23156567490E+03  0.23917950608E+03  0.00000000000E+00 0. -1.
         22    1    3    3    0    0 -0.59099323068E+01 -0.25271275755E+01  0.21107561334E+03  0.21117345530E+03  0.00000000000E+00 0. -1.
         22    1    3    3    0    0 -0.19263036270E+02  0.22060029780E+02 -0.71325868360E+01  0.30142715127E+02  0.00000000000E+00 0. -1.
</event>
<event>
 7    1  0.6557591E-006  0.5374840E+02  0.7818608E-02  0.1523006E+00
          2   -1    0    0  502    0  0.00000000000E+00  0.00000000000E+00  0.16535949472E+04  0.16535949472E+04  0.00000000000E+00 0. -1.
          1   -1    0    0  501    0 -0.00000000000E+00 -0.00000000000E+00 -0.57163869830E+02  0.57163869830E+02  0.00000000000E+00 0. -1.
         25    2    1    2    0    0 -0.44931012253E+01  0.36459255554E+02  0.66224618369E+03  0.67494040079E+03  0.12500028615E+03 0.  0.
          2    1    1    2  501    0 -0.24137472441E+02  0.11983566472E+02 -0.46379748939E+02  0.53640512236E+02  0.00000000000E+00 0. -1.
          1    1    1    2  502    0  0.28630573666E+02 -0.48442822026E+02  0.98056464264E+03  0.98217790402E+03  0.00000000000E+00 0. -1.
         22    1    3    3    0    0  0.49828941211E+02 -0.11341836278E+02  0.38627147345E+03  0.38963728239E+03  0.00000000000E+00 0. -1.
         22    1    3    3    0    0 -0.54322042436E+02  0.47801091832E+02  0.27597471024E+03  0.28530311840E+03  0.00000000000E+00 0. -1.
</event>
<event>
 7    1  0.6557591E-006  0.4185052E+02  0.7818608E-02  0.1559392E+00
          2   -1    0    0  502    0  0.00000000000E+00  0.00000000000E+00  0.12431695016E+04  0.12431695016E+04  0.00000000000E+00 0. -1.
          1   -1    0    0  501    0 -0.00000000000E+00 -0.00000000000E+00 -0.30883234964E+03  0.30883234964E+03  0.00000000000E+00 0. -1.
         25    2    1    2    0    0 -0.11124779466E+02 -0.64905036495E+02  0.33258258357E+03  0.36135016670E+03  0.12500537429E+03 0.  0.
          2    1    1    2  501    0 -0.31895039959E+01  0.41634479732E+02 -0.29275855056E+03  0.29572144285E+03  0.00000000000E+00 0. -1.
          1    1    1    2  502    0  0.14314283462E+02  0.23270556762E+02  0.89451311899E+03  0.89493024174E+03  0.00000000000E+00 0. -1.
         22    1    3    3    0    0  0.24085172728E+02 -0.28900050473E+02  0.29775115725E+03  0.30011841014E+03  0.00000000000E+00 0.  1.
         22    1    3    3    0    0 -0.35209952194E+02 -0.36004986022E+02  0.34831426315E+02  0.61231756557E+02  0.00000000000E+00 0.  1.
</event>
<event>
 7    1  0.6557591E-006  0.1961131E+03  0.7818608E-02  0.1169028E+00
          2   -1    0    0  502    0  0.00000000000E+00  0.00000000000E+00  0.29202004596E+04  0.29202004596E+04  0.00000000000E+00 0. -1.
          1   -1    0    0  501    0 -0.00000000000E+00 -0.00000000000E+00 -0.49635571402E+02  0.49635571402E+02  0.00000000000E+00 0. -1.
         25    2    1    2    0    0 -0.15686083841E+03  0.13961826906E+03  0.49773618150E+03  0.55449503508E+03  0.12499941549E+03 0.  0.
          2    1    1    2  501    0  0.21445189201E+03  0.12768854194E+02  0.64472157895E+03  0.67957234493E+03  0.00000000000E+00 0. -1.
          1    1    1    2  502    0 -0.57591053599E+02 -0.15238712326E+03  0.17281071278E+04  0.17357686510E+04  0.00000000000E+00 0. -1.
         22    1    3    3    0    0 -0.14774615704E+03  0.14409808715E+03  0.34931440254E+03  0.40572618533E+03  0.00000000000E+00 0. -1.
         22    1    3    3    0    0 -0.91146813708E+01 -0.44798180897E+01  0.14842177896E+03  0.14876884975E+03  0.00000000000E+00 0. -1.
</event>
<event>
 7    1  0.6557591E-006  0.9818593E+02  0.7818608E-02  0.1389213E+00
          2   -1    0    0  502    0  0.00000000000E+00  0.00000000000E+00  0.39225203572E+03  0.39225203572E+03  0.00000000000E+00 0. -1.
          1   -1    0    0  501    0 -0.00000000000E+00 -0.00000000000E+00 -0.10514651433E+04  0.10514651433E+04  0.00000000000E+00 0. -1.
         25    2    1    2    0    0  0.18889540506E+02 -0.11674773410E+03 -0.94548551532E+02  0.19634482620E+03  0.12500005609E+03 0.  0.
          2    1    1    2  501    0  0.14659933145E+02  0.96318339998E+02 -0.90225721446E+03  0.90750218584E+03  0.00000000000E+00 0. -1.
          1    1    1    2  502    0 -0.33549473650E+02  0.20429394101E+02  0.33759265846E+03  0.33987016693E+03  0.00000000000E+00 0. -1.
         22    1    3    3    0    0  0.36218443229E+02 -0.13530564372E+03 -0.97674965888E+02  0.17076238407E+03  0.00000000000E+00 0.  1.
         22    1    3    3    0    0 -0.17328902724E+02  0.18557909616E+02  0.31264143563E+01  0.25582442136E+02  0.00000000000E+00 0.  1.
</event>
<event>
 7    1  0.6557591E-006  0.9207908E+02  0.7818608E-02  0.1303950E+00
          2   -1    0    0  502    0  0.00000000000E+00  0.00000000000E+00  0.24807555417E+04  0.24807555417E+04  0.00000000000E+00 0. -1.
          1   -1    0    0  501    0 -0.00000000000E+00 -0.00000000000E+00 -0.35071217853E+03  0.35071217853E+03  0.00000000000E+00 0. -1.
         25    2    1    2    0    0  0.68485381183E+02  0.44097817538E+02  0.33667882665E+03  0.36825589577E+03  0.12499963003E+03 0.  0.
          2    1    1    2  501    0  0.17454325396E+02 -0.85319599497E+02 -0.32817443094E+03  0.33953283296E+03  0.00000000000E+00 0. -1.
          1    1    1    2  502    0 -0.85939706579E+02  0.41221781958E+02  0.21215389675E+04  0.21236789915E+04  0.00000000000E+00 0. -1.
         22    1    3    3    0    0  0.91528095927E+02  0.60439551777E+02  0.19447259353E+03  0.22327095960E+03  0.00000000000E+00 0. -1.
         22    1    3    3    0    0 -0.23042714744E+02 -0.16341734239E+02  0.14220623312E+03  0.14498493618E+03  0.00000000000E+00 0. -1.
</event>
<event>
 7    1  0.6557591E-006  0.8712418E+02  0.7818608E-02  0.1463721E+00
          2   -1    0    0  502    0  0.00000000000E+00  0.00000000000E+00  0.36961619306E+03  0.36961619306E+03  0.00000000000E+00 0. -1.
          1   -1    0    0  501    0 -0.00000000000E+00 -0.00000000000E+00 -0.28062565373E+04  0.28062565373E+04  0.00000000000E+00 0. -1.
         25    2    1    2    0    0  0.18913018386E+02 -0.83177861533E+02 -0.12671233617E+04  0.12761276103E+04  0.12499521990E+03 0.  0.
          2    1    1    2  501    0 -0.24797485092E+02 -0.37695017317E+01 -0.15293266825E+04  0.15295323554E+04  0.00000000000E+00 0. -1.
          1    1    1    2  502    0  0.58844667059E+01  0.86947363265E+02  0.35980969998E+03  0.37021276467E+03  0.00000000000E+00 0. -1.
         22    1    3    3    0    0  0.42542348709E+02  0.95851926692E+01 -0.66638112152E+03  0.66780650376E+03  0.00000000000E+00 0. -1.
         22    1    3    3    0    0 -0.23629330323E+02 -0.92763054202E+02 -0.60074224023E+03  0.60832110655E+03  0.00000000000E+00 0. -1.
</event>
<event>
 7    1  0.6557591E-006  0.1063958E+03  0.7818608E-02  0.1335200E+00
          2   -1    0    0  502    0  0.00000000000E+00  0.00000000000E+00  0.38229976287E+04  0.38229976287E+04  0.00000000000E+00 0. -1.
          1   -1    0    0  501    0 -0.00000000000E+00 -0.00000000000E+00 -0.12821840701E+04  0.12821840701E+04  0.00000000000E+00 0. -1.
         25    2    1    2    0    0  0.22094527899E+02  0.11923992511E+03 -0.14958058320E+03  0.22957483855E+03  0.12499571080E+03 0.  0.
          2    1    1    2  501    0  0.32022427365E+02 -0.10135565384E+03 -0.10898058315E+04  0.10949772394E+04  0.00000000000E+00 0. -1.
          1    1    1    2  502    0 -0.54116955264E+02 -0.17884271278E+02  0.37801999733E+04  0.37806296209E+04  0.00000000000E+00 0. -1.
         22    1    3    3    0    0  0.46237023976E+02  0.13580167480E+03 -0.11237236551E+03  0.18222926712E+03  0.00000000000E+00 0. -1.
         22    1    3    3    0    0 -0.24142496077E+02 -0.16561749688E+02 -0.37208217699E+02  0.47345571429E+02  0.00000000000E+00 0. -1.
</event>
<event>
 7    1  0.6557591E-006  0.1692867E+03  0.7818608E-02  0.1403088E+00
          2   -1    0    0  502    0  0.00000000000E+00  0.00000000000E+00  0.12204970282E+03  0.12204970282E+03  0.00000000000E+00 0. -1.
          1   -1    0    0  501    0 -0.00000000000E+00 -0.00000000000E+00 -0.17668645234E+04  0.17668645234E+04  0.00000000000E+00 0. -1.
         25    2    1    2    0    0  0.20333292993E+02  0.16284408562E+03 -0.70110806651E+03  0.73082865031E+03  0.12500542451E+03 0.  0.
          2    1    1    2  501    0  0.20291178477E+02  0.20978985951E+01 -0.98342200540E+03  0.98363355667E+03  0.00000000000E+00 0. -1.
          1    1    1    2  502    0 -0.40624471469E+02 -0.16494198422E+03  0.39715251310E+02  0.17445201927E+03  0.00000000000E+00 0. -1.
         22    1    3    3    0    0  0.52651321491E+02  0.59456375571E+02 -0.45582877665E+03  0.46269546775E+03  0.00000000000E+00 0.  1.
         22    1    3    3    0    0 -0.32318028498E+02  0.10338771005E+03 -0.24527928986E+03  0.26813318256E+03  0.00000000000E+00 0.  1.
</event>
<event>
 7    1  0.6557591E-006  0.4473793E+02  0.7818608E-02  0.1535475E+00
          2   -1    0    0  502    0  0.00000000000E+00  0.00000000000E+00  0.38403875118E+03  0.38403875118E+03  0.00000000000E+00 0. -1.
          1   -1    0    0  501    0 -0.00000000000E+00 -0.00000000000E+00 -0.10618797680E+04  0.10618797680E+04  0.00000000000E+00 0. -1.
         25    2    1    2    0    0  0.24934472633E+02  0.38566500848E+02 -0.34528024710E+02  0.13756932678E+03  0.12499612900E+03 0.  0.
          2    1    1    2  501    0  0.42614050597E+01 -0.44621156779E+02 -0.97464653089E+03  0.97567672278E+03  0.00000000000E+00 0. -1.
          1    1    1    2  502    0 -0.29195877693E+02  0.60546559311E+01  0.33133353877E+03  0.33267246963E+03  0.00000000000E+00 0. -1.
         22    1    3    3    0    0  0.65162391436E+02 -0.49123152839E+01  0.62657195973E+01  0.65646990343E+02  0.00000000000E+00 0. -1.
         22    1    3    3    0    0 -0.40227918803E+02  0.43478816131E+02 -0.40793744307E+02  0.71922336433E+02  0.00000000000E+00 0. -1.
</event>
<event>
 7    1  0.6557591E-006  0.6639681E+02  0.7818608E-02  0.1380552E+00
          2   -1    0    0  502    0  0.00000000000E+00  0.00000000000E+00  0.78219561007E+02  0.78219561007E+02  0.00000000000E+00 0. -1.
          1   -1    0    0  501    0 -0.00000000000E+00 -0.00000000000E+00 -0.77885573649E+03  0.77885573649E+03  0.00000000000E+00 0. -1.
         25    2    1    2    0    0  0.18775357879E+02 -0.55113563062E+02 -0.10267670481E+03  0.17192538903E+03  0.12500325910E+03 0.  0.
          2    1    1    2  501    0  0.49239778344E+02  0.44541904372E+02 -0.61141974435E+03  0.61501434195E+03  0.00000000000E+00 0. -1.
          1    1    1    2  502    0 -0.68015136223E+02  0.10571658690E+02  0.13460273682E+02  0.70135566516E+02  0.00000000000E+00 0. -1.
         22    1    3    3    0    0  0.32675545150E+02 -0.80737829955E+02 -0.27568301693E+02  0.91358085000E+02  0.00000000000E+00 0. -1.
         22    1    3    3    0    0 -0.13900187271E+02  0.25624266893E+02 -0.75108403118E+02  0.80567304031E+02  0.00000000000E+00 0. -1.
</event>
<event>
 7    1  0.6557591E-006  0.1578532E+03  0.7818608E-02  0.1307415E+00
          2   -1    0    0  502    0  0.00000000000E+00  0.00000000000E+00  0.79245074395E+02  0.79245074395E+02  0.00000000000E+00 0. -1.
          1   -1    0    0  501    0 -0.00000000000E+00 -0.00000000000E+00 -0.32086398957E+04  0.32086398957E+04  0.00000000000E+00 0. -1.
         25    2    1    2    0    0  0.15798639056E+03 -0.46972289554E+02 -0.26092938662E+03  0.33298007209E+03  0.12500195206E+03 0.  0.
          2    1    1    2  501    0 -0.27794878873E+02 -0.40616633811E+02 -0.27683206413E+04  0.27687581042E+04  0.00000000000E+00 0. -1.
          1    1    1    2  502    0 -0.13019151169E+03  0.87588923365E+02 -0.10014479333E+03  0.18614679380E+03  0.00000000000E+00 0. -1.
         22    1    3    3    0    0  0.82119041449E+02  0.15603869094E+01 -0.21849272479E+03  0.23342031308E+03  0.00000000000E+00 0. -1.
         22    1    3    3    0    0  0.75867349110E+02 -0.48532676463E+02 -0.42436661834E+02  0.99559759006E+02  0.00000000000E+00 0. -1.
</event>
<event>
 7    1  0.6557591E-006  0.8190650E+02  0.7818608E-02  0.1349620E+00
          2   -1    0    0  502    0  0.00000000000E+00  0.00000000000E+00  0.13684441476E+04  0.13684441476E+04  0.00000000000E+00 0. -1.
          1   -1    0    0  501    0 -0.00000000000E+00 -0.00000000000E+00 -0.36535122937E+03  0.36535122937E+03  0.00000000000E+00 0. -1.
         25    2    1    2    0    0  0.32968663083E+01 -0.23307417223E+02  0.36063249828E+02  0.13221782307E+03  0.12500755867E+03 0.  0.
          2    1    1    2  501    0  0.24047075331E+02  0.82686943968E+02 -0.31057975297E+03  0.32229671964E+03  0.00000000000E+00 0. -1.
          1    1    1    2  502    0 -0.27343941640E+02 -0.59379526744E+02  0.12776094214E+04  0.12792808343E+04  0.00000000000E+00 0. -1.
         22    1    3    3    0    0  0.41291343467E+01 -0.20616794640E+02  0.82783886175E+02  0.85412374876E+02  0.00000000000E+00 0. -1.
         22    1    3    3    0    0 -0.83226803849E+00 -0.26906225833E+01 -0.46720636348E+02  0.46805448195E+02  0.00000000000E+00 0. -1.
</event>
<event>
 7    1  0.6717073E-006  0.1108914E+03  0.7818608E-02  0.1429506E+00
          2   -1    0    0  502    0  0.00000000000E+00  0.00000000000E+00  0.14091782611E+04  0.14091782611E+04  0.00000000000E+00 0. -1.
          1   -1    0    0  501    0 -0.00000000000E+00 -0.00000000000E+00 -0.11841468823E+04  0.11841468823E+04  0.00000000000E+00 0. -1.
         25    2    1    2    0    0 -0.10165408900E+03 -0.51168684800E+01 -0.44764764445E+03  0.47578688246E+03  0.12500003112E+03 0.  0.
          2    1    1    2  501    0 -0.76372493940E+01  0.24211854022E+02 -0.71999975462E+03  0.72044721397E+03  0.00000000000E+00 0. -1.
          1    1    1    2  502    0  0.10929133840E+03 -0.19094985543E+02  0.13926787779E+04  0.13970910470E+04  0.00000000000E+00 0. -1.
         22    1    3    3    0    0 -0.17729182754E+02  0.54180943068E+02 -0.13054413793E+03  0.14244883453E+03  0.00000000000E+00 0.  1.
         22    1    3    3    0    0 -0.83924906248E+02 -0.59297811548E+02 -0.31710350652E+03  0.33333804792E+03  0.00000000000E+00 0.  1.
</event>
<event>
 7    1  0.6557591E-006  0.4935509E+02  0.7818608E-02  0.1523472E+00
          2   -1    0    0  502    0  0.00000000000E+00  0.00000000000E+00  0.75886481894E+02  0.75886481894E+02  0.00000000000E+00 0. -1.
          1   -1    0    0  501    0 -0.00000000000E+00 -0.00000000000E+00 -0.45732916653E+03  0.45732916653E+03  0.00000000000E+00 0. -1.
         25    2    1    2    0    0 -0.58819089610E+02 -0.19378488433E+02 -0.33936224919E+03  0.36691688107E+03  0.12500420119E+03 0.  0.
          2    1    1    2  501    0  0.32726147133E+02  0.32610948876E+02 -0.95108191334E+02  0.10573572127E+03  0.00000000000E+00 0. -1.
          1    1    1    2  502    0  0.26092942477E+02 -0.13232460442E+02  0.53027755895E+02  0.60563046090E+02  0.00000000000E+00 0. -1.
         22    1    3    3    0    0  0.34693245454E+02 -0.94599801798E+01 -0.16437790250E+03  0.16826528857E+03  0.00000000000E+00 0.  1.
         22    1    3    3    0    0 -0.93512335064E+02 -0.99185082535E+01 -0.17498434669E+03  0.19865159250E+03  0.00000000000E+00 0.  1.
</event>
<event>
 7    1  0.6557591E-006  0.6590357E+02  0.7818608E-02  0.1479109E+00
          2   -1    0    0  502    0  0.00000000000E+00  0.00000000000E+00  0.37002016300E+03  0.37002016300E+03  0.00000000000E+00 0. -1.
          1   -1    0    0  501    0 -0.00000000000E+00 -0.00000000000E+00 -0.47108777704E+03  0.47108777704E+03  0.00000000000E+00 0. -1.
         25    2    1    2    0    0  0.51141970484E+02 -0.58542845549E+02 -0.17514168058E+02  0.14822308216E+03  0.12498227911E+03 0.  0.
          2    1    1    2  501    0 -0.58491453661E+02  0.29761682098E+02 -0.38470964167E+03  0.39026723699E+03  0.00000000000E+00 0. -1.
          1    1    1    2  502    0  0.73494831770E+01  0.28781163451E+02  0.30115619568E+03  0.30261762089E+03  0.00000000000E+00 0. -1.
         22    1    3    3    0    0  0.67398725066E+02  0.16411343862E+02 -0.17437622677E+02  0.71526156282E+02  0.00000000000E+00 0.  1.
         22    1    3    3    0    0 -0.16256754582E+02 -0.74954189410E+02 -0.76545380942E-01  0.76696925877E+02  0.00000000000E+00 0.  1.
</event>
<event>
 7    1  0.6557591E-006  0.4989308E+02  0.7818608E-02  0.1474167E+00
          2   -1    0    0  502    0  0.00000000000E+00  0.00000000000E+00  0.11040702721E+04  0.11040702721E+04  0.00000000000E+00 0. -1.
          1   -1    0    0  501    0 -0.00000000000E+00 -0.00000000000E+00 -0.41975995828E+02  0.41975995828E+02  0.00000000000E+00 0. -1.
         25    2    1    2    0    0  0.26007162909E+02  0.55811937094E+02  0.73140590809E+03  0.74456171403E+03  0.12500479498E+03 0.  0.
          2    1    1    2  501    0 -0.39866016507E+02 -0.78797115508E+01 -0.21366121635E+02  0.45911875152E+02  0.00000000000E+00 0. -1.
          1    1    1    2  502    0  0.13858853598E+02 -0.47932225543E+02  0.35205448980E+03  0.35557267873E+03  0.00000000000E+00 0. -1.
         22    1    3    3    0    0  0.96417951474E+01  0.79001258539E+02  0.68870622257E+03  0.69328956726E+03  0.00000000000E+00 0.  1.
         22    1    3    3    0    0  0.16365367762E+02 -0.23189321445E+02  0.42699685515E+02  0.51272146767E+02  0.00000000000E+00 0.  1.
</event>
<event>
 7    1  0.6557591E-006  0.1565853E+03  0.7818608E-02  0.1283316E+00
          2   -1    0    0  502    0  0.00000000000E+00  0.00000000000E+00  0.61568428093E+03  0.61568428093E+03  0.00000000000E+00 0. -1.
          1   -1    0    0  501    0 -0.00000000000E+00 -0.00000000000E+00 -0.47131940798E+03  0.47131940798E+03  0.00000000000E+00 0. -1.
         25    2    1    2    0    0 -0.19239764269E+03  0.89160615643E+02  0.42718397310E+02  0.24983259849E+03  0.12499999001E+03 0.  0.
          2    1    1    2  501    0  0.13992084296E+03 -0.56031806001E+02 -0.35010835993E+03  0.38117354219E+03  0.00000000000E+00 0. -1.
          1    1    1    2  502    0  0.52476799735E+02 -0.33128809642E+02  0.45175483557E+03  0.45599754824E+03  0.00000000000E+00 0. -1.
         22    1    3    3    0    0 -0.61744665225E+02  0.77440533751E+02 -0.25082109245E+02  0.10216923292E+03  0.00000000000E+00 0.  1.
         22    1    3    3    0    0 -0.13065297747E+03  0.11720081892E+02  0.67800506555E+02  0.14766336557E+03  0.00000000000E+00 0.  1.
</event>
<event>
 7    1  0.6557591E-006  0.7195869E+02  0.7818608E-02  0.1462846E+00
          2   -1    0    0  502    0  0.00000000000E+00  0.00000000000E+00  0.10197566302E+04  0.10197566302E+04  0.00000000000E+00 0. -1.
          1   -1    0    0  501    0 -0.00000000000E+00 -0.00000000000E+00 -0.11327337771E+04  0.11327337771E+04  0.00000000000E+00 0. -1.
         25    2    1    2    0    0 -0.79433734726E+02 -0.30638698485E+02  0.13625107108E+03  0.20356410304E+03  0.12500216645E+03 0.  0.
          2    1    1    2  501    0  0.71896434164E+02  0.10214857346E+01 -0.10976258155E+04  0.10999784414E+04  0.00000000000E+00 0. -1.
          1    1    1    2  502    0  0.75373005613E+01  0.29617212751E+02  0.84839759758E+03  0.84894786281E+03  0.00000000000E+00 0. -1.
         22    1    3    3    0    0  0.11181029229E+02 -0.52871115585E+02  0.28722101301E+02  0.61199096243E+02  0.00000000000E+00 0.  1.
         22    1    3    3    0    0 -0.90614763955E+02  0.22232417100E+02  0.10752896978E+03  0.14236500679E+03  0.00000000000E+00 0.  1.
</event>
<event>
 7    1  0.6557591E-006  0.7641857E+02  0.7818608E-02  0.1373231E+00
          2   -1    0    0  502    0  0.00000000000E+00  0.00000000000E+00  0.14330599919E+04  0.14330599919E+04  0.00000000000E+00 0. -1.
          1   -1    0    0  501    0 -0.00000000000E+00 -0.00000000000E+00 -0.60463696125E+02  0.60463696125E+02  0.00000000000E+00 0. -1.
         25    2    1    2    0    0 -0.48997463048E+02 -0.51166642327E+02  0.15229836104E+03  0.20937686657E+03  0.12500041922E+03 0.  0.
          2    1    1    2  501    0 -0.28524355656E+02  0.49904961096E+02 -0.37894940269E+01  0.57606460337E+02  0.00000000000E+00 0. -1.
          1    1    1    2  502    0  0.77521818704E+02  0.12616812308E+01  0.12240874288E+04  0.12265403611E+04  0.00000000000E+00 0. -1.
         22    1    3    3    0    0 -0.81001612587E+02 -0.53385605190E+02  0.14806806117E+03  0.17701817653E+03  0.00000000000E+00 0.  1.
         22    1    3    3    0    0  0.32004149538E+02  0.22189628636E+01  0.42302998708E+01  0.32358690036E+02  0.00000000000E+00 0.  1.
</event>
<event>
 7    1  0.6557591E-006  0.4075000E+02  0.7818608E-02  0.1530460E+00
          2   -1    0    0  502    0  0.00000000000E+00  0.00000000000E+00  0.23144448424E+03  0.23144448424E+03  0.00000000000E+00 0. -1.
          1   -1    0    0  501    0 -0.00000000000E+00 -0.00000000000E+00 -0.14537949408E+04  0.14537949408E+04  0.00000000000E+00 0. -1.
         25    2    1    2    0    0  0.47526139334E+00  0.13855850912E+02  0.15702333152E+03  0.20117932764E+03  0.12499833899E+03 0.  0.
          2    1    1    2  501    0  0.40040617041E+02  0.75704395631E+01 -0.14213357009E+04  0.14219197365E+04  0.00000000000E+00 0. -1.
          1    1    1    2  502    0 -0.40515878435E+02 -0.21426290475E+02  0.41961912769E+02  0.62140360894E+02  0.00000000000E+00 0. -1.
         22    1    3    3    0    0  0.29250846413E+02  0.19886204950E+02  0.16655721829E+03  0.17027148947E+03  0.00000000000E+00 0.  1.
         22    1    3    3    0    0 -0.28775585019E+02 -0.60303540380E+01 -0.95338867713E+01  0.30907838164E+02  0.00000000000E+00 0.  1.
</event>
<event>
 7    1  0.6557591E-006  0.6837116E+02  0.7818608E-02  0.1430226E+00
          2   -1    0    0  502    0  0.00000000000E+00  0.00000000000E+00  0.20333446015E+03  0.20333446015E+03  0.00000000000E+00 0. -1.
          1   -1    0    0  501    0 -0.00000000000E+00 -0.00000000000E+00 -0.25135814631E+04  0.25135814631E+04  0.00000000000E+00 0. -1.
         25    2    1    2    0    0 -0.35471975337E+01  0.80988636154E+02  0.82876695744E+02  0.17048423072E+03  0.12499833772E+03 0.  0.
          2    1    1    2  501    0  0.37058561098E+02 -0.57449383370E+02 -0.24637997646E+04  0.24647480700E+04  0.00000000000E+00 0. -1.
          1    1    1    2  502    0 -0.33511363565E+02 -0.23539252783E+02  0.70676065854E+02  0.81683622558E+02  0.00000000000E+00 0. -1.
         22    1    3    3    0    0  0.17601076008E+02  0.10853870628E+03  0.44215270709E+02  0.11851345409E+03  0.00000000000E+00 0. -1.
         22    1    3    3    0    0 -0.21148273542E+02 -0.27550070126E+02  0.38661425036E+02  0.51970776630E+02  0.00000000000E+00 0. -1.
</event>
<event>
 7    1  0.6557591E-006  0.6052521E+02  0.7818608E-02  0.1536879E+00
          2   -1    0    0  502    0  0.00000000000E+00  0.00000000000E+00  0.25147454404E+04  0.25147454404E+04  0.00000000000E+00 0. -1.
          1   -1    0    0  501    0 -0.00000000000E+00 -0.00000000000E+00 -0.72195473571E+02  0.72195473571E+02  0.00000000000E+00 0. -1.
         25    2    1    2    0    0 -0.59566208604E+02 -0.15432808688E+02  0.15345926109E+04  0.15409041371E+04  0.12499909467E+03 0.  0.
          2    1    1    2  501    0  0.60211472393E+02 -0.63956859002E+01 -0.55616011320E+02  0.82215977286E+02  0.00000000000E+00 0. -1.
          1    1    1    2  502    0 -0.64526378908E+00  0.21828494588E+02  0.96357336728E+03  0.96382079956E+03  0.00000000000E+00 0. -1.
         22    1    3    3    0    0 -0.91555993721E+01 -0.65289291439E+02  0.59534235342E+03  0.59898166446E+03  0.00000000000E+00 0. -1.
         22    1    3    3    0    0 -0.50410609232E+02  0.49856482751E+02  0.93925025744E+03  0.94192247265E+03  0.00000000000E+00 0. -1.
</event>
<event>
 7    1  0.6557591E-006  0.7939222E+02  0.7818608E-02  0.1390337E+00
          2   -1    0    0  502    0  0.00000000000E+00  0.00000000000E+00  0.17385045094E+04  0.17385045094E+04  0.00000000000E+00 0. -1.
          1   -1    0    0  501    0 -0.00000000000E+00 -0.00000000000E+00 -0.26288671691E+04  0.26288671691E+04  0.00000000000E+00 0. -1.
         25    2    1    2    0    0 -0.75630981012E+02  0.10229433324E+03  0.10854942789E+03  0.20878077601E+03  0.12498903246E+03 0.  0.
          2    1    1    2  501    0  0.49334852641E+02 -0.61969059240E+02 -0.25777762698E+04  0.25789929409E+04  0.00000000000E+00 0. -1.
          1    1    1    2  502    0  0.26296128371E+02 -0.40325273999E+02  0.15788641823E+04  0.15795979615E+04  0.00000000000E+00 0. -1.
         22    1    3    3    0    0  0.10789061275E+01 -0.21593981481E+02  0.44773965006E+02  0.49720941433E+02  0.00000000000E+00 0. -1.
         22    1    3    3    0    0 -0.76709887140E+02  0.12388831472E+03  0.63775462881E+02  0.15905983457E+03  0.00000000000E+00 0. -1.
</event>
<event>
 7    1  0.6557591E-006  0.9421084E+02  0.7818608E-02  0.1423908E+00
          2   -1    0    0  502    0  0.00000000000E+00  0.00000000000E+00  0.96167126192E+02  0.96167126192E+02  0.00000000000E+00 0. -1.
          1   -1    0    0  501    0 -0.00000000000E+00 -0.00000000000E+00 -0.39230609045E+03  0.39230609045E+03  0.00000000000E+00 0. -1.
         25    2    1    2    0    0  0.66263552616E+02  0.16732388317E+02 -0.59833631489E+02  0.15451790698E+03  0.12499955558E+03 0.  0.
          2    1    1    2  501    0 -0.97431013669E+02 -0.17764334035E+02 -0.27027107516E+03  0.28784514597E+03  0.00000000000E+00 0. -1.
          1    1    1    2  502    0  0.31167461053E+02  0.10319457183E+01  0.33965742389E+02  0.46110163701E+02  0.00000000000E+00 0. -1.
         22    1    3    3    0    0  0.42126260639E+02 -0.63102798346E+01  0.34271334076E+02  0.54671435013E+02  0.00000000000E+00 0. -1.
         22    1    3    3    0    0  0.24137291977E+02  0.23042668151E+02 -0.94104965565E+02  0.99846471964E+02  0.00000000000E+00 0. -1.
</event>
<event>
 7    1  0.6557591E-006  0.1016970E+03  0.7818608E-02  0.1277594E+00
          2   -1    0    0  502    0  0.00000000000E+00  0.00000000000E+00  0.10398603252E+03  0.10398603252E+03  0.00000000000E+00 0. -1.
          1   -1    0    0  501    0 -0.00000000000E+00 -0.00000000000E+00 -0.11224596846E+04  0.11224596846E+04  0.00000000000E+00 0. -1.
         25    2    1    2    0    0 -0.21867042588E+02 -0.11850131193E+03 -0.26251214480E+03  0.31473577154E+03  0.12500100495E+03 0.  0.
          2    1    1    2  501    0 -0.70637169134E+02  0.76249165217E+02 -0.79574772111E+03  0.80250730870E+03  0.00000000000E+00 0. -1.
          1    1    1    2  502    0  0.92504211721E+02  0.42252146711E+02  0.39786213835E+02  0.10920263687E+03  0.00000000000E+00 0. -1.
         22    1    3    3    0    0 -0.52417528046E+02 -0.88437767085E+02 -0.24964485794E+03  0.26998405692E+03  0.00000000000E+00 0.  1.
         22    1    3    3    0    0  0.30550485459E+02 -0.30063544843E+02 -0.12867286856E+02  0.44751714619E+02  0.00000000000E+00 0.  1.
</event>
<event>
 7    1  0.6557591E-006  0.1661803E+03  0.7818608E-02  0.1279981E+00
          2   -1    0    0  502    0  0.00000000000E+00  0.00000000000E+00  0.92674198532E+03  0.92674198532E+03  0.00000000000E+00 0. -1.
          1   -1    0    0  501    0 -0.00000000000E+00 -0.00000000000E+00 -0.27418721185E+04  0.27418721185E+04  0.00000000000E+00 0. -1.
         25    2    1    2    0    0  0.13772175000E+03 -0.46709595640E+02  0.34282202322E+03  0.39281180023E+03  0.12500041619E+03 0.  0.
          2    1    1    2  501    0 -0.16626458464E+03 -0.64708266470E+01 -0.27126912546E+04  0.27177894743E+04  0.00000000000E+00 0. -1.
          1    1    1    2  502    0  0.28542834632E+02  0.53180422286E+02  0.55473909815E+03  0.55801282936E+03  0.00000000000E+00 0. -1.
         22    1    3    3    0    0  0.44506871413E+02  0.10973041394E+02  0.23364557486E+03  0.23809981917E+03  0.00000000000E+00 0. -1.
         22    1    3    3    0    0  0.93214878592E+02 -0.57682637034E+02  0.10917644836E+03  0.15471198106E+03  0.00000000000E+00 0. -1.
</event>
<event>
 7    1  0.6557591E-006  0.4829845E+02  0.7818608E-02  0.1537726E+00
          2   -1    0    0  502    0  0.00000000000E+00  0.00000000000E+00  0.11532839354E+03  0.11532839354E+03  0.00000000000E+00 0. -1.
          1   -1    0    0  501    0 -0.00000000000E+00 -0.00000000000E+00 -0.29118944537E+03  0.29118944537E+03  0.00000000000E+00 0. -1.
         25    2    1    2    0    0 -0.16096710066E+01  0.54245413876E+02 -0.15852309026E+03  0.20904647320E+03  0.12500280734E+03 0.  0.
          2    1    1    2  501    0  0.24567778126E+02 -0.11708864184E+02 -0.98947058080E+02  0.10262160360E+03  0.00000000000E+00 0. -1.
          1    1    1    2  502    0 -0.22958107119E+02 -0.42536549692E+02  0.81609096499E+02  0.94849762117E+02  0.00000000000E+00 0. -1.
         22    1    3    3    0    0 -0.81750442313E+01  0.90158391428E+02 -0.14328169352E+03  0.16948454381E+03  0.00000000000E+00 0. -1.
         22    1    3    3    0    0  0.65653732247E+01 -0.35912977552E+02 -0.15241396737E+02  0.39561929385E+02  0.00000000000E+00 0. -1.
</event>
<event>
 7    1  0.6557591E-006  0.5155522E+02  0.7818608E-02  0.1466520E+00
          2   -1    0    0  502    0  0.00000000000E+00  0.00000000000E+00  0.53708365860E+03  0.53708365860E+03  0.00000000000E+00 0. -1.
          1   -1    0    0  501    0 -0.00000000000E+00 -0.00000000000E+00 -0.37750808592E+02  0.37750808592E+02  0.00000000000E+00 0. -1.
         25    2    1    2    0    0 -0.70766420063E+01 -0.17999695974E+02  0.22978996272E+03  0.26229822344E+03  0.12499145227E+03 0.  0.
          2    1    1    2  501    0  0.44225513030E+02  0.36588902529E+02  0.21902339974E+02  0.61435789955E+02  0.00000000000E+00 0. -1.
          1    1    1    2  502    0 -0.37148871024E+02 -0.18589206556E+02  0.24764054732E+03  0.25110045380E+03  0.00000000000E+00 0. -1.
         22    1    3    3    0    0  0.54592376351E+02 -0.28618682463E+02  0.89358626438E+02  0.10855561091E+03  0.00000000000E+00 0.  1.
         22    1    3    3    0    0 -0.61669018357E+02  0.10618986490E+02  0.14043133628E+03  0.15374261253E+03  0.00000000000E+00 0.  1.
</event>
<event>
 7    1  0.6557591E-006  0.6568446E+02  0.7818608E-02  0.1402998E+00
          2   -1    0    0  502    0  0.00000000000E+00  0.00000000000E+00  0.75931139397E+03  0.75931139397E+03  0.00000000000E+00 0. -1.
          1   -1    0    0  501    0 -0.00000000000E+00 -0.00000000000E+00 -0.39279711910E+03  0.39279711910E+03  0.00000000000E+00 0. -1.
         25    2    1    2    0    0  0.67492727289E+02  0.94408068660E+02  0.18495069385E+03  0.25159262676E+03  0.12499575601E+03 0.  0.
          2    1    1    2  501    0 -0.45174459101E+02 -0.46764231029E+02 -0.35523941610E+03  0.36114078669E+03  0.00000000000E+00 0. -1.
          1    1    1    2  502    0 -0.22318268188E+02 -0.47643837630E+02  0.53680299713E+03  0.53937509961E+03  0.00000000000E+00 0. -1.
         22    1    3    3    0    0  0.11881678698E+02  0.29756944360E+02  0.15937201029E+03  0.16256102759E+03  0.00000000000E+00 0. -1.
         22    1    3    3    0    0  0.55611048591E+02  0.64651124300E+02  0.25578683556E+02  0.89031599172E+02  0.00000000000E+00 0. -1.
</event>
<event>
 7    1  0.6557591E-006  0.5253947E+02  0.7818608E-02  0.1441446E+00
          2   -1    0    0  502    0  0.00000000000E+00  0.00000000000E+00  0.98623026866E+01  0.98623026866E+01  0.00000000000E+00 0. -1.
          1   -1    0    0  501    0 -0.00000000000E+00 -0.00000000000E+00 -0.18796213717E+04  0.18796213717E+04  0.00000000000E+00 0. -1.
         25    2    1    2    0    0 -0.39475530340E+02  0.39592004024E+02 -0.78700824872E+03  0.79883179574E+03  0.12499764014E+03 0.  0.
          2    1    1    2  501    0  0.46024500093E+02  0.16762325769E+02 -0.83722343529E+03  0.83865506067E+03  0.00000000000E+00 0. -1.
          1    1    1    2  502    0 -0.65489697529E+01 -0.56354329793E+02 -0.24552738495E+03  0.25199681794E+03  0.00000000000E+00 0. -1.
         22    1    3    3    0    0 -0.57493670959E+02  0.75848045156E+02 -0.49946897531E+03  0.50845619817E+03  0.00000000000E+00 0. -1.
         22    1    3    3    0    0  0.18018140619E+02 -0.36256041132E+02 -0.28753927341E+03  0.29037559757E+03  0.00000000000E+00 0. -1.
</event>
<event>
 7    1  0.6557591E-006  0.7933271E+02  0.7818608E-02  0.1478560E+00
          2   -1    0    0  502    0  0.00000000000E+00  0.00000000000E+00  0.63808433091E+02  0.63808433091E+02  0.00000000000E+00 0. -1.
          1   -1    0    0  501    0 -0.00000000000E+00 -0.00000000000E+00 -0.78731805626E+03  0.78731805626E+03  0.00000000000E+00 0. -1.
         25    2    1    2    0    0  0.87236303872E+02  0.13607796515E+02 -0.46134339838E+03  0.48606087673E+03  0.12498839873E+03 0.  0.
          2    1    1    2  501    0 -0.15483296950E+02  0.19337439732E+02 -0.28246009217E+03  0.28354430470E+03  0.00000000000E+00 0. -1.
          1    1    1    2  502    0 -0.71753006922E+02 -0.32945236247E+02  0.20293867373E+02  0.81521307930E+02  0.00000000000E+00 0. -1.
         22    1    3    3    0    0  0.37191203485E+01 -0.47237179822E+02 -0.10842702484E+03  0.11832836824E+03  0.00000000000E+00 0.  1.
         22    1    3    3    0    0  0.83517183523E+02  0.60844976337E+02 -0.35291637354E+03  0.36773250849E+03  0.00000000000E+00 0.  1.
</event>
<event>
 7    1  0.6557591E-006  0.6190094E+02  0.7818608E-02  0.1465855E+00
          2   -1    0    0  502    0  0.00000000000E+00  0.00000000000E+00  0.11831414915E+04  0.11831414915E+04  0.00000000000E+00 0. -1.
          1   -1    0    0  501    0 -0.00000000000E+00 -0.00000000000E+00 -0.98757444266E+03  0.98757444266E+03  0.00000000000E+00 0. -1.
         25    2    1    2    0    0  0.64934777291E+02  0.68850916153E+02 -0.18450580549E+03  0.24212338733E+03  0.12499747389E+03 0.  0.
          2    1    1    2  501    0 -0.45396611678E+02 -0.40097448079E+02 -0.77281287535E+03  0.77518281585E+03  0.00000000000E+00 0. -1.
          1    1    1    2  502    0 -0.19538165613E+02 -0.28753468074E+02  0.11528857297E+04  0.11534097310E+04  0.00000000000E+00 0. -1.
         22    1    3    3    0    0 -0.29004314065E+02  0.37090360111E+02 -0.10482381140E+03  0.11491290826E+03  0.00000000000E+00 0. -1.
         22    1    3    3    0    0  0.93939091356E+02  0.31760556041E+02 -0.79681994082E+02  0.12721047907E+03  0.00000000000E+00 0. -1.
</event>
<event>
 7    1  0.6557591E-006  0.7939641E+02  0.7818608E-02  0.1349998E+00
          2   -1    0    0  502    0  0.00000000000E+00  0.00000000000E+00  0.80788347186E+03  0.80788347186E+03  0.00000000000E+00 0. -1.
          1   -1    0    0  501    0 -0.00000000000E+00 -0.00000000000E+00 -0.32596232819E+03  0.32596232819E+03  0.00000000000E+00 0. -1.
         25    2    1    2    0    0 -0.12377217381E+03  0.32062870721E+02  0.12920377332E+03  0.22060420294E+03  0.12500008250E+03 0.  0.
          2    1    1    2  501    0  0.64734712319E+02  0.18118232567E+02 -0.27381009649E+03  0.28194116810E+03  0.00000000000E+00 0. -1.
          1    1    1    2  502    0  0.59037461489E+02 -0.50181103288E+02  0.62652746683E+03  0.63130042902E+03  0.00000000000E+00 0. -1.
         22    1    3    3    0    0 -0.81118494320E+02  0.77540971910E+02  0.59259032786E+02  0.12690329157E+03  0.00000000000E+00 0. -1.
         22    1    3    3    0    0 -0.42653679488E+02 -0.45478101188E+02  0.69944740536E+02  0.93700911363E+02  0.00000000000E+00 0. -1.
</event>
<event>
 7    1  0.6557591E-006  0.7256847E+02  0.7818608E-02  0.1396574E+00
          2   -1    0    0  502    0  0.00000000000E+00  0.00000000000E+00  0.35423259658E+03  0.35423259658E+03  0.00000000000E+00 0. -1.
          1   -1    0    0  501    0 -0.00000000000E+00 -0.00000000000E+00 -0.88556233988E+03  0.88556233988E+03  0.00000000000E+00 0. -1.
         25    2    1    2    0    0 -0.70983712375E+02 -0.16851807706E+02 -0.61511321850E+01  0.14486354977E+03  0.12499976312E+03 0.  0.
          2    1    1    2  501    0  0.52281936984E+01  0.49833353965E+02 -0.80451348203E+03  0.80607235404E+03  0.00000000000E+00 0. -1.
          1    1    1    2  502    0  0.65755518677E+02 -0.32981546259E+02  0.27933487092E+03  0.28885903265E+03  0.00000000000E+00 0. -1.
         22    1    3    3    0    0  0.21041602020E+02  0.33033450225E+01  0.35864346149E+02  0.41712257534E+02  0.00000000000E+00 0. -1.
         22    1    3    3    0    0 -0.92025314395E+02 -0.20155152728E+02 -0.42015478334E+02  0.10315129224E+03  0.00000000000E+00 0. -1.
</event>
<event>
 7    1  0.6557591E-006  0.1447745E+03  0.7818608E-02  0.1288398E+00
          2   -1    0    0  502    0  0.00000000000E+00  0.00000000000E+00  0.22055961990E+04  0.22055961990E+04  0.00000000000E+00 0. -1.
          1   -1    0    0  501    0 -0.00000000000E+00 -0.00000000000E+00 -0.86752301279E+03  0.86752301279E+03  0.00000000000E+00 0. -1.
         25    2    1    2    0    0  0.28482909517E+02 -0.10929283121E+03  0.26351295409E+03  0.31276191815E+03  0.12499896551E+03 0.  0.
          2    1    1    2  501    0  0.63385777879E+02 -0.87137896659E+01 -0.83876226604E+03  0.84119904059E+03  0.00000000000E+00 0. -1.
          1    1    1    2  502    0 -0.91868687396E+02  0.11800662088E+03  0.19133224981E+04  0.19191582530E+04  0.00000000000E+00 0. -1.
         22    1    3    3    0    0  0.17813527254E+02 -0.13143942464E+03  0.25372157496E+03  0.28630103336E+03  0.00000000000E+00 0.  1.
         22    1    3    3    0    0  0.10669382263E+02  0.22146593430E+02  0.97913791374E+01  0.26460884789E+02  0.00000000000E+00 0.  1.
</event>
<event>
 7    1  0.6557591E-006  0.1030505E+03  0.7818608E-02  0.1277328E+00
          2   -1    0    0  502    0  0.00000000000E+00  0.00000000000E+00  0.48815443343E+03  0.48815443343E+03  0.00000000000E+00 0. -1.
          1   -1    0    0  501    0 -0.00000000000E+00 -0.00000000000E+00 -0.13249754005E+04  0.13249754005E+04  0.00000000000E+00 0. -1.
         25    2    1    2    0    0 -0.42879076913E+02 -0.28743120768E+02  0.18785290542E+02  0.13654064971E+03  0.12500271859E+03 0.  0.
          2    1    1    2  501    0 -0.24246578083E+02  0.10262950953E+03 -0.12577894482E+04  0.12622024436E+04  0.00000000000E+00 0. -1.
          1    1    1    2  502    0  0.67125654997E+02 -0.73886388761E+02  0.40218319056E+03  0.41438674058E+03  0.00000000000E+00 0. -1.
         22    1    3    3    0    0  0.96613198787E+01  0.23596156578E+02  0.49962448885E+02  0.56092477264E+02  0.00000000000E+00 0. -1.
         22    1    3    3    0    0 -0.52540396792E+02 -0.52339277347E+02 -0.31177158343E+02  0.80448172450E+02  0.00000000000E+00 0. -1.
</event>
<event>
 7    1  0.6557591E-006  0.1317739E+03  0.7818608E-02  0.1362088E+00
          2   -1    0    0  502    0  0.00000000000E+00  0.00000000000E+00  0.16842982958E+04  0.16842982958E+04  0.00000000000E+00 0. -1.
          1   -1    0    0  501    0 -0.00000000000E+00 -0.00000000000E+00 -0.28645752746E+03  0.28645752746E+03  0.00000000000E+00 0. -1.
         25    2    1    2    0    0  0.73363365342E+02  0.94006986183E+02  0.91773532243E+03  0.93385411468E+03  0.12500355446E+03 0.  0.
          2    1    1    2  501    0 -0.50073596316E+02 -0.12219890533E+03 -0.26226176256E+03  0.29363441490E+03  0.00000000000E+00 0. -1.
          1    1    1    2  502    0 -0.23289769026E+02  0.28191919144E+02  0.74236720848E+03  0.74326729369E+03  0.00000000000E+00 0. -1.
         22    1    3    3    0    0  0.28234305672E+01  0.43232165961E+02  0.74730711499E+02  0.86380965351E+02  0.00000000000E+00 0. -1.
         22    1    3    3    0    0  0.70539934775E+02  0.50774820222E+02  0.84300461094E+03  0.84747314932E+03  0.00000000000E+00 0. -1.
</event>
<event>
 7    1  0.6557591E-006  0.1463379E+03  0.7818608E-02  0.1350780E+00
          2   -1    0    0  502    0  0.00000000000E+00  0.00000000000E+00  0.83474732119E+03  0.83474732119E+03  0.00000000000E+00 0. -1.
          1   -1    0    0  501    0 -0.00000000000E+00 -0.00000000000E+00 -0.27425251974E+03  0.27425251974E+03  0.00000000000E+00 0. -1.
         25    2    1    2    0    0 -0.82134454930E+02 -0.15512865396E+03  0.78946963632E+02  0.22949571453E+03  0.12499876781E+03 0.  0.
          2    1    1    2  501    0  0.55910257480E+02  0.13013119940E+03 -0.17320988254E+03  0.22374483091E+03  0.00000000000E+00 0. -1.
          1    1    1    2  502    0  0.26224197449E+02  0.24997454560E+02  0.65475772035E+03  0.65575929549E+03  0.00000000000E+00 0. -1.
         22    1    3    3    0    0 -0.38646890547E+02 -0.76578037426E+02 -0.27650831997E+02  0.90124061577E+02  0.00000000000E+00 0.  1.
         22    1    3    3    0    0 -0.43487564383E+02 -0.78550616530E+02  0.10659779563E+03  0.13937165295E+03  0.00000000000E+00 0.  1.
</event>
<event>
 7    1  0.6557591E-006  0.1360760E+03  0.7818608E-02  0.1252375E+00
          2   -1    0    0  502    0  0.00000000000E+00  0.00000000000E+00  0.34460050338E+03  0.34460050338E+03  0.00000000000E+00 0. -1.
          1   -1    0    0  501    0 -0.00000000000E+00 -0.00000000000E+00 -0.14078332217E+04  0.14078332217E+04  0.00000000000E+00 0. -1.
         25    2    1    2    0    0  0.60564343598E+02  0.18383821403E+03  0.17040718763E+03  0.28658200258E+03  0.12500442373E+03 0.  0.
          2    1    1    2  501    0 -0.64275978324E+02 -0.71875059774E+02 -0.13205509074E+04  0.13240665106E+04  0.00000000000E+00 0. -1.
          1    1    1    2  502    0  0.37116347261E+01 -0.11196315425E+03  0.86911001409E+02  0.14178521188E+03  0.00000000000E+00 0. -1.
         22    1    3    3    0    0  0.49664373036E+02  0.11870776414E+03  0.31051446631E+02  0.13237173246E+03  0.00000000000E+00 0.  1.
         22    1    3    3    0    0  0.10899970562E+02  0.65130449889E+02  0.13935574100E+03  0.15421027012E+03  0.00000000000E+00 0.  1.
</event>
<event>
 7    1  0.6557591E-006  0.1005738E+03  0.7818608E-02  0.1286875E+00
          2   -1    0    0  502    0  0.00000000000E+00  0.00000000000E+00  0.19265259885E+04  0.19265259885E+04  0.00000000000E+00 0. -1.
          1   -1    0    0  501    0 -0.00000000000E+00 -0.00000000000E+00 -0.26056169500E+02  0.26056169500E+02  0.00000000000E+00 0. -1.
         25    2    1    2    0    0  0.91151800193E+02  0.89936428829E+02  0.74898157472E+03  0.77006123327E+03  0.12499476711E+03 0.  0.
          2    1    1    2  501    0 -0.10138100992E+03  0.29307236869E+01  0.18046108593E+03  0.20700942454E+03  0.00000000000E+00 0. -1.
          1    1    1    2  502    0  0.10229209729E+02 -0.92867152516E+02  0.97102715831E+03  0.97551150015E+03  0.00000000000E+00 0. -1.
         22    1    3    3    0    0  0.67769787586E+02  0.22731222468E+02  0.60752791457E+03  0.61171857874E+03  0.00000000000E+00 0. -1.
         22    1    3    3    0    0  0.23382012608E+02  0.67205206361E+02  0.14145366015E+03  0.15834265453E+03  0.00000000000E+00 0. -1.
</event>
<event>
 7    1  0.6557591E-006  0.4320059E+02  0.7818608E-02  0.1561898E+00
          2   -1    0    0  502    0  0.00000000000E+00  0.00000000000E+00  0.19339599058E+03  0.19339599058E+03  0.00000000000E+00 0. -1.
          1   -1    0    0  501    0 -0.00000000000E+00 -0.00000000000E+00 -0.19062170919E+04  0.19062170919E+04  0.00000000000E+00 0. -1.
         25    2    1    2    0    0 -0.17603515529E+01 -0.29376601623E+02 -0.71535268154E+02  0.14700620043E+03  0.12500977888E+03 0.  0.
          2    1    1    2  501    0  0.24867861482E+02 -0.77588845613E+01 -0.17937775231E+04  0.17939666700E+04  0.00000000000E+00 0. -1.
          1    1    1    2  502    0 -0.23107509929E+02  0.37135486184E+02  0.15249168997E+03  0.15864021198E+03  0.00000000000E+00 0. -1.
         22    1    3    3    0    0  0.10473135049E+02 -0.59395143756E+02 -0.91017637909E+02  0.10918644637E+03  0.00000000000E+00 0. -1.
         22    1    3    3    0    0 -0.12233486602E+02  0.30018542133E+02  0.19482369755E+02  0.37819754065E+02  0.00000000000E+00 0. -1.
</event>
<event>
 7    1  0.6557591E-006  0.1813057E+03  0.7818608E-02  0.1323658E+00
          2   -1    0    0  502    0  0.00000000000E+00  0.00000000000E+00  0.14853166197E+04  0.14853166197E+04  0.00000000000E+00 0. -1.
          1   -1    0    0  501    0 -0.00000000000E+00 -0.00000000000E+00 -0.53640188225E+03  0.53640188225E+03  0.00000000000E+00 0. -1.
         25    2    1    2    0    0  0.72128175652E+02  0.13903798639E+03  0.28499641474E+03  0.34839918025E+03  0.12499998802E+03 0.  0.
          2    1    1    2  501    0  0.33522977133E+02  0.15716657440E+02 -0.49649553111E+03  0.49787409626E+03  0.00000000000E+00 0. -1.
          1    1    1    2  502    0 -0.10565115279E+03 -0.15475464383E+03  0.11604138538E+04  0.11754452254E+04  0.00000000000E+00 0. -1.
         22    1    3    3    0    0  0.50088594415E+01  0.12730124449E+03  0.22004122220E+03  0.25426135174E+03  0.00000000000E+00 0.  1.
         22    1    3    3    0    0  0.67119316211E+02  0.11736741898E+02  0.64955192538E+02  0.94137828510E+02  0.00000000000E+00 0.  1.
</event>
<event>
 7    1  0.6557591E-006  0.7016491E+02  0.7818608E-02  0.1374230E+00
          2   -1    0    0  502    0  0.00000000000E+00  0.00000000000E+00  0.58086279236E+03  0.58086279236E+03  0.00000000000E+00 0. -1.
          1   -1    0    0  501    0 -0.00000000000E+00 -0.00000000000E+00 -0.45011108116E+02  0.45011108116E+02  0.00000000000E+00 0. -1.
         25    2    1    2    0    0 -0.41027804835E+02 -0.15786127185E+01  0.26003921383E+03  0.29142808684E+03  0.12499665709E+03 0.  0.
          2    1    1    2  501    0 -0.38766957161E+02 -0.58482793144E+02  0.19079410254E+03  0.20328675222E+03  0.00000000000E+00 0. -1.
          1    1    1    2  502    0  0.79794761996E+02  0.60061405862E+02  0.85018367871E+02  0.13115906142E+03  0.00000000000E+00 0. -1.
         22    1    3    3    0    0 -0.11402844169E+02  0.61144141779E+02  0.12371802390E+03  0.13847303119E+03  0.00000000000E+00 0.  1.
         22    1    3    3    0    0 -0.29624960666E+02 -0.62722754497E+02  0.13632118993E+03  0.15295505565E+03  0.00000000000E+00 0.  1.
</event>
<event>
 7    1  0.6557591E-006  0.3634410E+02  0.7818608E-02  0.1596937E+00
          2   -1    0    0  502    0  0.00000000000E+00  0.00000000000E+00  0.16239282119E+03  0.16239282119E+03  0.00000000000E+00 0. -1.
          1   -1    0    0  501    0 -0.00000000000E+00 -0.00000000000E+00 -0.12292885211E+04  0.12292885211E+04  0.00000000000E+00 0. -1.
         25    2    1    2    0    0  0.11886438424E+02 -0.15491565220E+01  0.23936110793E+02  0.12782355373E+03  0.12498894425E+03 0.  0.
          2    1    1    2  501    0 -0.34038292033E+02  0.12998989789E+02 -0.11752597335E+04  0.11758244002E+04  0.00000000000E+00 0. -1.
          1    1    1    2  502    0  0.22151853609E+02 -0.11449833267E+02  0.84427922820E+02  0.88033388279E+02  0.00000000000E+00 0. -1.
         22    1    3    3    0    0  0.21881677653E+02  0.27756251311E+02  0.66428964539E+02  0.75246426051E+02  0.00000000000E+00 0.  1.
         22    1    3    3    0    0 -0.99952392295E+01 -0.29305407833E+02 -0.42492853746E+02  0.52577127679E+02  0.00000000000E+00 0.  1.
</event>
<event>
 7    1  0.6557591E-006  0.2798689E+02  0.7818608E-02  0.1660617E+00
          2   -1    0    0  502    0  0.00000000000E+00  0.00000000000E+00  0.26404775772E+04  0.26404775772E+04  0.00000000000E+00 0. -1.
          1   -1    0    0  501    0 -0.00000000000E+00 -0.00000000000E+00 -0.63571125137E+02  0.63571125137E+02  0.00000000000E+00 0. -1.
         25    2    1    2    0    0  0.49160213438E+01  0.93105452363E+01  0.79739595337E+03  0.80720314791E+03  0.12500304808E+03 0.  0.
          2    1    1    2  501    0 -0.13582180208E+02  0.17787163924E+02 -0.56418992313E+02  0.60695646576E+02  0.00000000000E+00 0. -1.
          1    1    1    2  502    0  0.86661588642E+01 -0.27097709160E+02  0.18359294910E+04  0.18361499078E+04  0.00000000000E+00 0. -1.
         22    1    3    3    0    0 -0.38766262694E+02 -0.32094756779E+02  0.18071822053E+03  0.18759523386E+03  0.00000000000E+00 0. -1.
         22    1    3    3    0    0  0.43682284038E+02  0.41405302015E+02  0.61667773284E+03  0.61960791405E+03  0.00000000000E+00 0. -1.
</event>
<event>
 7    1  0.6557591E-006  0.4883769E+02  0.7818608E-02  0.1546379E+00
          2   -1    0    0  502    0  0.00000000000E+00  0.00000000000E+00  0.11913652577E+04  0.11913652577E+04  0.00000000000E+00 0. -1.
          1   -1    0    0  501    0 -0.00000000000E+00 -0.00000000000E+00 -0.23967510100E+04  0.23967510100E+04  0.00000000000E+00 0. -1.
         25    2    1    2    0    0  0.26502127437E+02 -0.12549382617E+02  0.62890735510E+03  0.64187996901E+03  0.12500233417E+03 0.  0.
          2    1    1    2  501    0 -0.31242115693E+02  0.37548684964E+02 -0.23897238641E+04  0.23902230273E+04  0.00000000000E+00 0. -1.
          1    1    1    2  502    0  0.47399882561E+01 -0.24999302347E+02  0.55543075660E+03  0.55601327141E+03  0.00000000000E+00 0. -1.
         22    1    3    3    0    0  0.65876576607E+02  0.22465899589E+02  0.45081162140E+03  0.45615299843E+03  0.00000000000E+00 0.  1.
         22    1    3    3    0    0 -0.39374449171E+02 -0.35015282207E+02  0.17809573370E+03  0.18572697058E+03  0.00000000000E+00 0.  1.
</event>
<event>
 7    1  0.6557591E-006  0.5511673E+02  0.7818608E-02  0.1559576E+00
          2   -1    0    0  502    0  0.00000000000E+00  0.00000000000E+00  0.14437189933E+03  0.14437189933E+03  0.00000000000E+00 0. -1.
          1   -1    0    0  501    0 -0.00000000000E+00 -0.00000000000E+00 -0.19953079861E+04  0.19953079861E+04  0.00000000000E+00 0. -1.
         25    2    1    2    0    0 -0.11420445005E+02 -0.64625680961E+02 -0.52111033684E+02  0.15047244955E+03  0.12497797021E+03 0.  0.
          2    1    1    2  501    0  0.25054886906E+02  0.49022884823E+02 -0.18924835821E+04  0.18932842098E+04  0.00000000000E+00 0. -1.
          1    1    1    2  502    0 -0.13634441901E+02  0.15602796138E+02  0.93658528986E+02  0.95923226098E+02  0.00000000000E+00 0. -1.
         22    1    3    3    0    0 -0.25946512571E+02  0.27328085607E+01 -0.73765157565E+02  0.78243135340E+02  0.00000000000E+00 0. -1.
         22    1    3    3    0    0  0.14526067566E+02 -0.67358489521E+02  0.21654123881E+02  0.72229314205E+02  0.00000000000E+00 0. -1.
</event>
<event>
 7    1  0.6557591E-006  0.3161467E+03  0.7818608E-02  0.1190775E+00
          2   -1    0    0  502    0  0.00000000000E+00  0.00000000000E+00  0.65830429930E+03  0.65830429930E+03  0.00000000000E+00 0. -1.
          1   -1    0    0  501    0 -0.00000000000E+00 -0.00000000000E+00 -0.15897184990E+04  0.15897184990E+04  0.00000000000E+00 0. -1.
         25    2    1    2    0    0  0.23363022074E+03  0.11638438479E+03 -0.44759833555E+03  0.53300773846E+03  0.12499829682E+03 0.  0.
          2    1    1    2  501    0  0.24026789883E+02  0.75400395784E+02 -0.10559362530E+04  0.10588974817E+04  0.00000000000E+00 0. -1.
          1    1    1    2  502    0 -0.25765701062E+03 -0.19178478057E+03  0.57212038878E+03  0.65611757821E+03  0.00000000000E+00 0. -1.
         22    1    3    3    0    0  0.16263182164E+03  0.12032659738E+03 -0.39751290537E+03  0.44603151164E+03  0.00000000000E+00 0. -1.
         22    1    3    3    0    0  0.70998399100E+02 -0.39422125953E+01 -0.50085430185E+02  0.86976226819E+02  0.00000000000E+00 0. -1.
</event>
<event>
 7    1  0.6557591E-006  0.5463096E+02  0.7818608E-02  0.1466509E+00
          2   -1    0    0  502    0  0.00000000000E+00  0.00000000000E+00  0.72976484231E+03  0.72976484231E+03  0.00000000000E+00 0. -1.
          1   -1    0    0  501    0 -0.00000000000E+00 -0.00000000000E+00 -0.10400741100E+04  0.10400741100E+04  0.00000000000E+00 0. -1.
         25    2    1    2    0    0  0.82392613832E+02  0.38589980275E+02 -0.19597738570E+03  0.24962439133E+03  0.12500988622E+03 0.  0.
          2    1    1    2  501    0 -0.29421312178E+02 -0.25911310900E+02 -0.81574663733E+03  0.81668818160E+03  0.00000000000E+00 0. -1.
          1    1    1    2  502    0 -0.52971301654E+02 -0.12678669374E+02  0.70141475534E+03  0.70352637937E+03  0.00000000000E+00 0. -1.
         22    1    3    3    0    0  0.11333107274E+03  0.30731097805E+02 -0.17724579689E+03  0.21261327554E+03  0.00000000000E+00 0.  1.
         22    1    3    3    0    0 -0.30938458906E+02  0.78588824698E+01 -0.18731588815E+02  0.37011115799E+02  0.00000000000E+00 0.  1.
</event>
<event>
 7    1  0.6557591E-006  0.1500696E+03  0.7818608E-02  0.1280691E+00
          2   -1    0    0  502    0  0.00000000000E+00  0.00000000000E+00  0.24936385098E+03  0.24936385098E+03  0.00000000000E+00 0. -1.
          1   -1    0    0  501    0 -0.00000000000E+00 -0.00000000000E+00 -0.29123926316E+03  0.29123926316E+03  0.00000000000E+00 0. -1.
         25    2    1    2    0    0  0.13851225099E+03  0.45752181494E+02 -0.10643132609E+03  0.21960960188E+03  0.12498737648E+03 0.  0.
          2    1    1    2  501    0 -0.13164829538E+03 -0.11178240573E+03  0.13867655154E+03  0.22148987755E+03  0.00000000000E+00 0. -1.
          1    1    1    2  502    0 -0.68639556078E+01  0.66030224237E+02 -0.74120637632E+02  0.99503634719E+02  0.00000000000E+00 0. -1.
         22    1    3    3    0    0  0.12532782909E+03  0.33261587073E+02 -0.19890011694E+02  0.13118311814E+03  0.00000000000E+00 0.  1.
         22    1    3    3    0    0  0.13184421897E+02  0.12490594421E+02 -0.86541314391E+02  0.88426483738E+02  0.00000000000E+00 0.  1.
</event>
<event>
 7    1  0.6557591E-006  0.9417618E+02  0.7818608E-02  0.1298130E+00
          2   -1    0    0  502    0  0.00000000000E+00  0.00000000000E+00  0.12115273296E+04  0.12115273296E+04  0.00000000000E+00 0. -1.
          1   -1    0    0  501    0 -0.00000000000E+00 -0.00000000000E+00 -0.74730826059E+02  0.74730826059E+02  0.00000000000E+00 0. -1.
         25    2    1    2    0    0 -0.19654026619E+02 -0.12165583416E+02  0.20479793094E+03  0.24104240780E+03  0.12499987064E+03 0.  0.
          2    1    1    2  501    0 -0.86309937721E+02  0.24908381260E+02 -0.15984864730E+02  0.91243348836E+02  0.00000000000E+00 0. -1.
          1    1    1    2  502    0  0.10596396434E+03 -0.12742797843E+02  0.94798343736E+03  0.95397239904E+03  0.00000000000E+00 0. -1.
         22    1    3    3    0    0 -0.50938350319E+02 -0.32382740922E+02  0.19261672088E+03  0.20185281422E+03  0.00000000000E+00 0. -1.
         22    1    3    3    0    0  0.31284323700E+02  0.20217157506E+02  0.12181210052E+02  0.39189593584E+02  0.00000000000E+00 0. -1.
</event>
<event>
 7    1  0.6557591E-006  0.1877949E+03  0.7818608E-02  0.1354307E+00
          2   -1    0    0  502    0  0.00000000000E+00  0.00000000000E+00  0.47227951941E+03  0.47227951941E+03  0.00000000000E+00 0. -1.
          1   -1    0    0  501    0 -0.00000000000E+00 -0.00000000000E+00 -0.21351093991E+04  0.21351093991E+04  0.00000000000E+00 0. -1.
         25    2    1    2    0    0  0.16272634437E+03  0.15551242124E+02 -0.23258792382E+03  0.31055588750E+03  0.12500445061E+03 0.  0.
          2    1    1    2  501    0 -0.18986649821E+03 -0.19301050552E+02 -0.18582121865E+04  0.18679867097E+04  0.00000000000E+00 0. -1.
          1    1    1    2  502    0  0.27140153841E+02  0.37498084289E+01  0.42797023060E+03  0.42884632130E+03  0.00000000000E+00 0. -1.
         22    1    3    3    0    0  0.34684251620E+02 -0.28573897240E+02 -0.43334160079E+01  0.45146909177E+02  0.00000000000E+00 0. -1.
         22    1    3    3    0    0  0.12804209275E+03  0.44125139364E+02 -0.22825450781E+03  0.26540897833E+03  0.00000000000E+00 0. -1.
</event>
<event>
 7    1  0.6557591E-006  0.4694002E+02  0.7818608E-02  0.1556385E+00
          2   -1    0    0  502    0  0.00000000000E+00  0.00000000000E+00  0.33412529495E+03  0.33412529495E+03  0.00000000000E+00 0. -1.
          1   -1    0    0  501    0 -0.00000000000E+00 -0.00000000000E+00 -0.36573821017E+03  0.36573821017E+03  0.00000000000E+00 0. -1.
         25    2    1    2    0    0 -0.22506484736E+02  0.43988151239E+01 -0.16715333692E+02  0.12818374933E+03  0.12500311909E+03 0.  0.
          2    1    1    2  501    0 -0.24810384109E+02  0.94903399035E+00 -0.29071940049E+03  0.29177769902E+03  0.00000000000E+00 0. -1.
          1    1    1    2  502    0  0.47316868845E+02 -0.53478491143E+01  0.27582181896E+03  0.27990205676E+03  0.00000000000E+00 0. -1.
         22    1    3    3    0    0 -0.36343694877E+02  0.56812429678E+02  0.92546837465E+01  0.68074705247E+02  0.00000000000E+00 0. -1.
         22    1    3    3    0    0  0.13837210141E+02 -0.52413614554E+02 -0.25970017439E+02  0.60109044085E+02  0.00000000000E+00 0. -1.
</event>
<event>
 7    1  0.6557591E-006  0.1241648E+03  0.7818608E-02  0.1346724E+00
          2   -1    0    0  502    0  0.00000000000E+00  0.00000000000E+00  0.96299425488E+03  0.96299425488E+03  0.00000000000E+00 0. -1.
          1   -1    0    0  501    0 -0.00000000000E+00 -0.00000000000E+00 -0.22773340868E+03  0.22773340868E+03  0.00000000000E+00 0. -1.
         25    2    1    2    0    0  0.55992702332E+02 -0.14028679548E+03  0.73230546594E+02  0.20929911461E+03  0.12501135436E+03 0.  0.
          2    1    1    2  501    0 -0.40062984637E+02  0.18684163959E+02 -0.15195581525E+03  0.15825520690E+03  0.00000000000E+00 0. -1.
          1    1    1    2  502    0 -0.15929717695E+02  0.12160263153E+03  0.81398611485E+03  0.82317334205E+03  0.00000000000E+00 0. -1.
         22    1    3    3    0    0  0.58724131649E+02 -0.14798537149E+03  0.95446265704E+02  0.18562915571E+03  0.00000000000E+00 0.  1.
         22    1    3    3    0    0 -0.27314293171E+01  0.76985760066E+01 -0.22215719110E+02  0.23669958898E+02  0.00000000000E+00 0.  1.
</event>
<event>
 7    1  0.6557591E-006  0.5260020E+02  0.7818608E-02  0.1508216E+00
          2   -1    0    0  502    0  0.00000000000E+00  0.00000000000E+00  0.84410584557E+02  0.84410584557E+02  0.00000000000E+00 0. -1.
          1   -1    0    0  501    0 -0.00000000000E+00 -0.00000000000E+00 -0.78401839383E+03  0.78401839383E+03  0.00000000000E+00 0. -1.
         25    2    1    2    0    0 -0.22260260267E+02 -0.13816147176E+02 -0.18804381618E+03  0.22731408992E+03  0.12499925424E+03 0.  0.
          2    1    1    2  501    0  0.35600166196E+02  0.41152097327E+02 -0.57140340065E+03  0.57398842603E+03  0.00000000000E+00 0. -1.
          1    1    1    2  502    0 -0.13339905928E+02 -0.27335950151E+02  0.59839407563E+02  0.67126462430E+02  0.00000000000E+00 0. -1.
         22    1    3    3    0    0 -0.38665717030E+02  0.98255907111E+01 -0.29574322273E+01  0.40004078687E+02  0.00000000000E+00 0.  1.
         22    1    3    3    0    0  0.16405456763E+02 -0.23641737887E+02 -0.18508638395E+03  0.18731001123E+03  0.00000000000E+00 0.  1.
</event>
<event>
 7    1  0.6557591E-006  0.4536399E+02  0.7818608E-02  0.1489369E+00
          2   -1    0    0  502    0  0.00000000000E+00  0.00000000000E+00  0.93545910240E+03  0.93545910240E+03  0.00000000000E+00 0. -1.
          1   -1    0    0  501    0 -0.00000000000E+00 -0.00000000000E+00 -0.21987172874E+04  0.21987172874E+04  0.00000000000E+00 0. -1.
         25    2    1    2    0    0  0.93521567420E+01  0.35809042727E+02  0.19697451552E+03  0.23620570927E+03  0.12499770777E+03 0.  0.
          2    1    1    2  501    0 -0.40135411215E+02 -0.12334741026E+01 -0.21781711587E+04  0.21785412480E+04  0.00000000000E+00 0. -1.
          1    1    1    2  502    0  0.30783254473E+02 -0.34575568625E+02  0.71793845816E+03  0.71942943254E+03  0.00000000000E+00 0. -1.
         22    1    3    3    0    0  0.45353377520E+02 -0.25154579598E+02  0.45461705900E+02  0.68967009726E+02  0.00000000000E+00 0. -1.
         22    1    3    3    0    0 -0.36001220778E+02  0.60963622325E+02  0.15151280962E+03  0.16723869954E+03  0.00000000000E+00 0. -1.
</event>
<event>
 7    1  0.6557591E-006  0.4810605E+02  0.7818608E-02  0.1461683E+00
          2   -1    0    0  502    0  0.00000000000E+00  0.00000000000E+00  0.32729653895E+04  0.32729653895E+04  0.00000000000E+00 0. -1.
          1   -1    0    0  501    0 -0.00000000000E+00 -0.00000000000E+00 -0.15443352493E+04  0.15443352493E+04  0.00000000000E+00 0. -1.
         25    2    1    2    0    0  0.39123120887E+01  0.12847350241E+01 -0.54372194500E+02  0.13637528032E+03  0.12499969927E+03 0.  0.
          2    1    1    2  501    0  0.81334626238E+01  0.45378053280E+02 -0.14484150966E+04  0.14491485821E+04  0.00000000000E+00 0. -1.
          1    1    1    2  502    0 -0.12045774713E+02 -0.46662788304E+02  0.32314174314E+04  0.32317767764E+04  0.00000000000E+00 0. -1.
         22    1    3    3    0    0 -0.70467441498E+01  0.33241547735E+02  0.30102068313E+02  0.45395942722E+02  0.00000000000E+00 0. -1.
         22    1    3    3    0    0  0.10959056239E+02 -0.31956812711E+02 -0.84474262813E+02  0.90979337600E+02  0.00000000000E+00 0. -1.
</event>
<event>
 7    1  0.6557591E-006  0.9093188E+02  0.7818608E-02  0.1394032E+00
          2   -1    0    0  502    0  0.00000000000E+00  0.00000000000E+00  0.12398083135E+04  0.12398083135E+04  0.00000000000E+00 0. -1.
          1   -1    0    0  501    0 -0.00000000000E+00 -0.00000000000E+00 -0.41677023827E+02  0.41677023827E+02  0.00000000000E+00 0. -1.
         25    2    1    2    0    0  0.31158249219E+02  0.10696451991E+03  0.49335154534E+03  0.52099327642E+03  0.12500400702E+03 0.  0.
          2    1    1    2  501    0 -0.36023211106E+02 -0.19170631815E+02 -0.86090169653E+01  0.41704916206E+02  0.00000000000E+00 0. -1.
          1    1    1    2  502    0  0.48649618873E+01 -0.87793888095E+02  0.71338876126E+03  0.71878714467E+03  0.00000000000E+00 0. -1.
         22    1    3    3    0    0 -0.24516965923E+02 -0.18029563614E+02  0.80758671205E+02  0.86302431930E+02  0.00000000000E+00 0.  1.
         22    1    3    3    0    0  0.55675215142E+02  0.12499408352E+03  0.41259287414E+03  0.43469084449E+03  0.00000000000E+00 0.  1.
</event>
<event>
 7    1  0.6557591E-006  0.9697900E+02  0.7818608E-02  0.1330038E+00
          2   -1    0    0  502    0  0.00000000000E+00  0.00000000000E+00  0.16056447323E+04  0.16056447323E+04  0.00000000000E+00 0. -1.
          1   -1    0    0  501    0 -0.00000000000E+00 -0.00000000000E+00 -0.28501228946E+04  0.28501228946E+04  0.00000000000E+00 0. -1.
         25    2    1    2    0    0 -0.15076598402E+03 -0.20123789206E+01 -0.19354431436E+03  0.27535466406E+03  0.12500543105E+03 0.  0.
          2    1    1    2  501    0  0.58193358748E+02  0.29894360503E+02 -0.26137703003E+04  0.26145889394E+04  0.00000000000E+00 0. -1.
          1    1    1    2  502    0  0.92572625269E+02 -0.27881981582E+02  0.15628364523E+04  0.15658240235E+04  0.00000000000E+00 0. -1.
         22    1    3    3    0    0 -0.14938229044E+03 -0.37831862932E+02 -0.12666751657E+03  0.19947676131E+03  0.00000000000E+00 0. -1.
         22    1    3    3    0    0 -0.13836935812E+01  0.35819484011E+02 -0.66876797790E+02  0.75877902748E+02  0.00000000000E+00 0. -1.
</event>
<event>
 7    1  0.6557591E-006  0.1296145E+03  0.7818608E-02  0.1272608E+00
          2   -1    0    0  502    0  0.00000000000E+00  0.00000000000E+00  0.11515342979E+04  0.11515342979E+04  0.00000000000E+00 0. -1.
          1   -1    0    0  501    0 -0.00000000000E+00 -0.00000000000E+00 -0.62270150542E+03  0.62270150542E+03  0.00000000000E+00 0. -1.
         25    2    1    2    0    0  0.96712721529E+02 -0.24819825075E+02  0.22332605290E+03  0.27471623093E+03  0.12500042964E+03 0.  0.
          2    1    1    2  501    0 -0.11893759908E+03 -0.55192930588E+02 -0.58785806628E+03  0.60230351000E+03  0.00000000000E+00 0. -1.
          1    1    1    2  502    0  0.22224877548E+02  0.80012755664E+02  0.89336480590E+03  0.89721606242E+03  0.00000000000E+00 0. -1.
         22    1    3    3    0    0  0.95218657969E+02 -0.59303592360E+02  0.11344206238E+03  0.15953874266E+03  0.00000000000E+00 0.  1.
         22    1    3    3    0    0  0.14940635596E+01  0.34483767285E+02  0.10988399052E+03  0.11517748827E+03  0.00000000000E+00 0.  1.
</event>
<event>
 7    1  0.1014103E-005  0.3754598E+02  0.7818608E-02  0.1620983E+00
          2   -1    0    0  502    0  0.00000000000E+00  0.00000000000E+00  0.15340423247E+04  0.15340423247E+04  0.00000000000E+00 0. -1.
          1   -1    0    0  501    0 -0.00000000000E+00 -0.00000000000E+00 -0.15180508702E+04  0.15180508702E+04  0.00000000000E+00 0. -1.
         25    2    1    2    0    0  0.19450887902E+02  0.12880685009E+02 -0.52691500188E+03  0.54204092921E+03  0.12499880258E+03 0.  0.
          2    1    1    2  501    0  0.18033607645E+02 -0.10605575019E+02 -0.98323064517E+03  0.98345319707E+03  0.00000000000E+00 0. -1.
          1    1    1    2  502    0 -0.37484495546E+02 -0.22751099900E+01  0.15261371016E+04  0.15265990686E+04  0.00000000000E+00 0. -1.
         22    1    3    3    0    0  0.45940440521E+02  0.58485689765E+02 -0.31542446219E+03  0.32407358938E+03  0.00000000000E+00 0.  1.
         22    1    3    3    0    0 -0.26489552620E+02 -0.45605004756E+02 -0.21149053968E+03  0.21796733983E+03  0.00000000000E+00 0.  1.
</event>
<event>
 7    1  0.6557591E-006  0.1590507E+03  0.7818608E-02  0.1198323E+00
          2   -1    0    0  502    0  0.00000000000E+00  0.00000000000E+00  0.19841305765E+04  0.19841305765E+04  0.00000000000E+00 0. -1.
          1   -1    0    0  501    0 -0.00000000000E+00 -0.00000000000E+00 -0.12443202255E+04  0.12443202255E+04  0.00000000000E+00 0. -1.
         25    2    1    2    0    0 -0.82898804065E+02  0.50719296729E+02  0.14506472554E+04  0.14592625065E+04  0.12499977828E+03 0.  0.
          2    1    1    2  501    0 -0.13365368060E+02 -0.15889943140E+03 -0.12248399099E+04  0.12351762900E+04  0.00000000000E+00 0. -1.
          1    1    1    2  502    0  0.96264172125E+02  0.10818013467E+03  0.51400300554E+03  0.53401200555E+03  0.00000000000E+00 0. -1.
         22    1    3    3    0    0 -0.16105017423E+02  0.82702063021E+02  0.75986309076E+03  0.76452005828E+03  0.00000000000E+00 0.  1.
         22    1    3    3    0    0 -0.66793786642E+02 -0.31982766292E+02  0.69078416465E+03  0.69474244825E+03  0.00000000000E+00 0.  1.
</event>
<event>
 7    1  0.6557591E-006  0.6496030E+02  0.7818608E-02  0.1404432E+00
          2   -1    0    0  502    0  0.00000000000E+00  0.00000000000E+00  0.44631260915E+04  0.44631260915E+04  0.00000000000E+00 0. -1.
          1   -1    0    0  501    0 -0.00000000000E+00 -0.00000000000E+00 -0.10846150553E+03  0.10846150553E+03  0.00000000000E+00 0. -1.
         25    2    1    2    0    0 -0.80414274240E+01 -0.33678912518E+02  0.35278760238E+03  0.37588208828E+03  0.12501727156E+03 0.  0.
          2    1    1    2  501    0 -0.52169266401E+02  0.67280272767E+01 -0.89491246930E+02  0.10380550075E+03  0.00000000000E+00 0. -1.
          1    1    1    2  502    0  0.60210693825E+02  0.26950885241E+02  0.40913682305E+04  0.40919000080E+04  0.00000000000E+00 0. -1.
         22    1    3    3    0    0  0.11972168686E+02 -0.78754446749E+02  0.19784844091E+03  0.21328291370E+03  0.00000000000E+00 0.  1.
         22    1    3    3    0    0 -0.20013596110E+02  0.45075534231E+02  0.15493916147E+03  0.16259917458E+03  0.00000000000E+00 0.  1.
</event>
<event>
 7    1  0.6557591E-006  0.4016342E+02  0.7818608E-02  0.1569697E+00
          2   -1    0    0  502    0  0.00000000000E+00  0.00000000000E+00  0.11154106757E+04  0.11154106757E+04  0.00000000000E+00 0. -1.
          1   -1    0    0  501    0 -0.00000000000E+00 -0.00000000000E+00 -0.10948331217E+03  0.10948331217E+03  0.00000000000E+00 0. -1.
         25    2    1    2    0    0 -0.47443595327E+02  0.14496510543E+02  0.52493755614E+03  0.54189075266E+03  0.12500042568E+03 0.  0.
          2    1    1    2  501    0  0.38696157881E+02  0.10707287542E+02 -0.96696733671E+02  0.10470098827E+03  0.00000000000E+00 0. -1.
          1    1    1    2  502    0  0.87474374459E+01 -0.25203798084E+02  0.57768654108E+03  0.57830224696E+03  0.00000000000E+00 0. -1.
         22    1    3    3    0    0 -0.28464010820E+02 -0.54707010971E+02  0.27673642520E+03  0.28352443633E+03  0.00000000000E+00 0.  1.
         22    1    3    3    0    0 -0.18979584507E+02  0.69203521513E+02  0.24820113094E+03  0.25836631633E+03  0.00000000000E+00 0.  1.
</event>
<event>
 7    1  0.6557591E-006  0.1244667E+03  0.7818608E-02  0.1305730E+00
          2   -1    0    0  502    0  0.00000000000E+00  0.00000000000E+00  0.39201411485E+03  0.39201411485E+03  0.00000000000E+00 0. -1.
          1   -1    0    0  501    0 -0.00000000000E+00 -0.00000000000E+00 -0.12321384891E+03  0.12321384891E+03  0.00000000000E+00 0. -1.
         25    2    1    2    0    0  0.15274021850E+02 -0.96766151601E+02  0.11620607751E+03  0.19678864402E+03  0.12499973650E+03 0.  0.
          2    1    1    2  501    0  0.37067855985E+02  0.13251567050E+03 -0.15803950858E+02  0.13850701693E+03  0.00000000000E+00 0. -1.
          1    1    1    2  502    0 -0.52341877834E+02 -0.35749518904E+02  0.16839813929E+03  0.17993230281E+03  0.00000000000E+00 0. -1.
         22    1    3    3    0    0 -0.29394326065E+02 -0.50209967062E+02 -0.61079295284E+01  0.58501059822E+02  0.00000000000E+00 0.  1.
         22    1    3    3    0    0  0.44668347915E+02 -0.46556184539E+02  0.12231400704E+03  0.13828758419E+03  0.00000000000E+00 0.  1.
</event>
<event>
 7    1  0.6557591E-006  0.1066100E+03  0.7818608E-02  0.1272698E+00
          2   -1    0    0  502    0  0.00000000000E+00  0.00000000000E+00  0.13697818905E+03  0.13697818905E+03  0.00000000000E+00 0. -1.
          1   -1    0    0  501    0 -0.00000000000E+00 -0.00000000000E+00 -0.12449121880E+04  0.12449121880E+04  0.00000000000E+00 0. -1.
         25    2    1    2    0    0  0.14093104348E+03  0.14004167587E+03 -0.67740529735E+03  0.71692137883E+03  0.12500038617E+03 0.  0.
          2    1    1    2  501    0 -0.52377981703E+02 -0.86209630172E+02 -0.51899824520E+03  0.52871044233E+03  0.00000000000E+00 0. -1.
          1    1    1    2  502    0 -0.88553061781E+02 -0.53832045697E+02  0.88469543638E+02  0.13625855586E+03  0.00000000000E+00 0. -1.
         22    1    3    3    0    0  0.66911020150E+02  0.90807332936E+02 -0.18592115645E+03  0.21746202599E+03  0.00000000000E+00 0. -1.
         22    1    3    3    0    0  0.74020023333E+02  0.49234342934E+02 -0.49148414091E+03  0.49945935284E+03  0.00000000000E+00 0. -1.
</event>
<event>
 7    1  0.1126274E-005  0.1023039E+03  0.7818608E-02  0.1449950E+00
          2   -1    0    0  502    0  0.00000000000E+00  0.00000000000E+00  0.19559553823E+04  0.19559553823E+04  0.00000000000E+00 0. -1.
          1   -1    0    0  501    0 -0.00000000000E+00 -0.00000000000E+00 -0.10113756834E+04  0.10113756834E+04  0.00000000000E+00 0. -1.
         25    2    1    2    0    0 -0.80341548746E+02 -0.23833086977E+02 -0.51837543151E+03  0.53977813290E+03  0.12499825710E+03 0.  0.
          2    1    1    2  501    0 -0.21143370759E+02  0.10525967111E+02 -0.48066234689E+03  0.48124227768E+03  0.00000000000E+00 0. -1.
          1    1    1    2  502    0  0.10148491950E+03  0.13307119866E+02  0.19436174773E+04  0.19463106552E+04  0.00000000000E+00 0. -1.
         22    1    3    3    0    0  0.26566737789E+01 -0.16488022557E+02 -0.36373726349E+03  0.36412046036E+03  0.00000000000E+00 0. -1.
         22    1    3    3    0    0 -0.82998222525E+02 -0.73450644197E+01 -0.15463816802E+03  0.17565767254E+03  0.00000000000E+00 0. -1.
</event>
<event>
 7    1  0.6557591E-006  0.1266654E+03  0.7818608E-02  0.1296543E+00
          2   -1    0    0  502    0  0.00000000000E+00  0.00000000000E+00  0.31632749452E+04  0.31632749452E+04  0.00000000000E+00 0. -1.
          1   -1    0    0  501    0 -0.00000000000E+00 -0.00000000000E+00 -0.46076928448E+02  0.46076928448E+02  0.00000000000E+00 0. -1.
         25    2    1    2    0    0 -0.26559114220E+02  0.17487125979E+03  0.10479780828E+04  0.10701264378E+04  0.12500874731E+03 0.  0.
          2    1    1    2  501    0  0.38305793093E+02 -0.55916333665E+02  0.12363609209E+01  0.67790108005E+02  0.00000000000E+00 0. -1.
          1    1    1    2  502    0 -0.11746678872E+02 -0.11895492613E+03  0.20679835730E+04  0.20714353278E+04  0.00000000000E+00 0. -1.
         22    1    3    3    0    0  0.34157035772E+02  0.47114349622E+02  0.52988295390E+03  0.53306886035E+03  0.00000000000E+00 0.  1.
         22    1    3    3    0    0 -0.60716149993E+02  0.12775691017E+03  0.51809512889E+03  0.53705757749E+03  0.00000000000E+00 0.  1.
</event>
<event>
 7    1  0.6557591E-006  0.4006523E+02  0.7818608E-02  0.1603859E+00
          2   -1    0    0  502    0  0.00000000000E+00  0.00000000000E+00  0.75647815951E+02  0.75647815951E+02  0.00000000000E+00 0. -1.
          1   -1    0    0  501    0 -0.00000000000E+00 -0.00000000000E+00 -0.11635210463E+04  0.11635210463E+04  0.00000000000E+00 0. -1.
         25    2    1    2    0    0 -0.20522192554E+02  0.27876277757E+01 -0.22739934714E+03  0.26031594902E+03  0.12499999592E+03 0.  0.
          2    1    1    2  501    0 -0.16400482964E+02  0.14206366974E+02 -0.91254127593E+03  0.91279919861E+03  0.00000000000E+00 0. -1.
          1    1    1    2  502    0  0.36922675518E+02 -0.16993994750E+02  0.52067392743E+02  0.66053714596E+02  0.00000000000E+00 0. -1.
         22    1    3    3    0    0 -0.22949606029E+02  0.23692394628E+02 -0.10618460034E+01  0.33002143825E+02  0.00000000000E+00 0. -1.
         22    1    3    3    0    0  0.24274134759E+01 -0.20904766852E+02 -0.22633750114E+03  0.22731380520E+03  0.00000000000E+00 0. -1.
</event>
<event>
 7    1  0.6557591E-006  0.1452077E+03  0.7818608E-02  0.1348038E+00
          2   -1    0    0  502    0  0.00000000000E+00  0.00000000000E+00  0.88504712731E+03  0.88504712731E+03  0.00000000000E+00 0. -1.
          1   -1    0    0  501    0 -0.00000000000E+00 -0.00000000000E+00 -0.13784567278E+04  0.13784567278E+04  0.00000000000E+00 0. -1.
         25    2    1    2    0    0  0.51687578155E+02  0.10869167390E+03 -0.15593196567E+03  0.23329286514E+03  0.12500118918E+03 0.  0.
          2    1    1    2  501    0 -0.38006375264E+02 -0.14347416212E+03 -0.11787756818E+04  0.11880830895E+04  0.00000000000E+00 0. -1.
          1    1    1    2  502    0 -0.13681202891E+02  0.34782488225E+02  0.84129804696E+03  0.84212790040E+03  0.00000000000E+00 0. -1.
         22    1    3    3    0    0  0.88876979189E+02  0.83199905382E+02 -0.82293101970E+02  0.14694725692E+03  0.00000000000E+00 0.  1.
         22    1    3    3    0    0 -0.37189401035E+02  0.25491768516E+02 -0.73638863699E+02  0.86345608216E+02  0.00000000000E+00 0.  1.
</event>
<event>
 7    1  0.6557591E-006  0.1147499E+03  0.7818608E-02  0.1267212E+00
          2   -1    0    0  502    0  0.00000000000E+00  0.00000000000E+00  0.37730027307E+03  0.37730027307E+03  0.00000000000E+00 0. -1.
          1   -1    0    0  501    0 -0.00000000000E+00 -0.00000000000E+00 -0.12166099430E+04  0.12166099430E+04  0.00000000000E+00 0. -1.
         25    2    1    2    0    0  0.69859610146E+02  0.14764169157E+02 -0.12327987314E+03  0.18952723916E+03  0.12499720573E+03 0.  0.
          2    1    1    2  501    0  0.16693577634E+02 -0.97403969215E+02 -0.10474075225E+04  0.10520592792E+04  0.00000000000E+00 0. -1.
          1    1    1    2  502    0 -0.86553187779E+02  0.82639800057E+02  0.33137772572E+03  0.35232369771E+03  0.00000000000E+00 0. -1.
         22    1    3    3    0    0 -0.14164428584E+02 -0.33227791222E+01  0.18618436303E+02  0.23628755121E+02  0.00000000000E+00 0.  1.
         22    1    3    3    0    0  0.84024038729E+02  0.18086948279E+02 -0.14189830945E+03  0.16589848404E+03  0.00000000000E+00 0.  1.
</event>
<event>
 7    1  0.6557591E-006  0.4896991E+02  0.7818608E-02  0.1465010E+00
          2   -1    0    0  502    0  0.00000000000E+00  0.00000000000E+00  0.84193572895E+03  0.84193572895E+03  0.00000000000E+00 0. -1.
          1   -1    0    0  501    0 -0.00000000000E+00 -0.00000000000E+00 -0.16855942305E+03  0.16855942305E+03  0.00000000000E+00 0. -1.
         25    2    1    2    0    0 -0.50303840657E+02  0.29408202096E+00 -0.85467806563E+00  0.13474809462E+03  0.12500302260E+03 0.  0.
          2    1    1    2  501    0  0.20308971905E+02 -0.39271060713E+02 -0.95084776837E+02  0.10486079027E+03  0.00000000000E+00 0. -1.
          1    1    1    2  502    0  0.29994868751E+02  0.38976978692E+02  0.76931576080E+03  0.77088626712E+03  0.00000000000E+00 0. -1.
         22    1    3    3    0    0 -0.63975486460E+02 -0.15101701804E+02  0.48223611085E+02  0.81525707181E+02  0.00000000000E+00 0. -1.
         22    1    3    3    0    0  0.13671645804E+02  0.15395783825E+02 -0.49078289151E+02  0.53222387437E+02  0.00000000000E+00 0. -1.
</event>
<event>
 7    1  0.6557591E-006  0.1497987E+03  0.7818608E-02  0.1201586E+00
          2   -1    0    0  502    0  0.00000000000E+00  0.00000000000E+00  0.22823069807E+04  0.22823069807E+04  0.00000000000E+00 0. -1.
          1   -1    0    0  501    0 -0.00000000000E+00 -0.00000000000E+00 -0.84019849896E+03  0.84019849896E+03  0.00000000000E+00 0. -1.
         25    2    1    2    0    0 -0.13578621316E+03 -0.11775098245E+03 -0.35976429624E+03  0.42113991423E+03  0.12500115581E+03 0.  0.
          2    1    1    2  501    0 -0.11194699266E+02  0.14797741365E+03 -0.43492205101E+03  0.45954306294E+03  0.00000000000E+00 0. -1.
          1    1    1    2  502    0  0.14698091243E+03 -0.30226431198E+02  0.22367948290E+04  0.22418225025E+04  0.00000000000E+00 0. -1.
         22    1    3    3    0    0 -0.12169610623E+03 -0.77701220639E+02 -0.34848306896E+03  0.37721064581E+03  0.00000000000E+00 0.  1.
         22    1    3    3    0    0 -0.14090106932E+02 -0.40049761813E+02 -0.11281227278E+02  0.43929268416E+02  0.00000000000E+00 0.  1.
</event>
<event>
 7    1  0.6557591E-006  0.5547895E+02  0.7818608E-02  0.1515151E+00
          2   -1    0    0  502    0  0.00000000000E+00  0.00000000000E+00  0.15810819449E+04  0.15810819449E+04  0.00000000000E+00 0. -1.
          1   -1    0    0  501    0 -0.00000000000E+00 -0.00000000000E+00 -0.19141222323E+04  0.19141222323E+04  0.00000000000E+00 0. -1.
         25    2    1    2    0    0  0.14370908597E+02 -0.57441973238E+02  0.11557566725E+04  0.11640037472E+04  0.12500053704E+03 0.  0.
          2    1    1    2  501    0  0.22656282896E+02  0.15617738493E+02 -0.19080470395E+04  0.19082454574E+04  0.00000000000E+00 0. -1.
          1    1    1    2  502    0 -0.37027191493E+02  0.41824234744E+02  0.41925007965E+03  0.42295497255E+03  0.00000000000E+00 0. -1.
         22    1    3    3    0    0  0.68797587551E+01 -0.56190590209E+02  0.19089213994E+03  0.19910932324E+03  0.00000000000E+00 0. -1.
         22    1    3    3    0    0  0.74911498421E+01 -0.12513830288E+01  0.96486453253E+03  0.96489442397E+03  0.00000000000E+00 0. -1.
</event>
<event>
 7    1  0.6557591E-006  0.8167869E+02  0.7818608E-02  0.1363935E+00
          2   -1    0    0  502    0  0.00000000000E+00  0.00000000000E+00  0.94820162182E+03  0.94820162182E+03  0.00000000000E+00 0. -1.
          1   -1    0    0  501    0 -0.00000000000E+00 -0.00000000000E+00 -0.16074324160E+03  0.16074324160E+03  0.00000000000E+00 0. -1.
         25    2    1    2    0    0 -0.15999763860E+02 -0.24350103551E+02  0.14081864961E+03  0.19053562998E+03  0.12500005691E+03 0.  0.
          2    1    1    2  501    0 -0.21576839564E+02 -0.53935416560E+02 -0.12713452598E+03  0.13977759785E+03  0.00000000000E+00 0. -1.
          1    1    1    2  502    0  0.37576603423E+02  0.78285520111E+02  0.77377425659E+03  0.77863163559E+03  0.00000000000E+00 0. -1.
         22    1    3    3    0    0 -0.42535769688E+02  0.39285360531E+02  0.78901039477E+02  0.97867284041E+02  0.00000000000E+00 0. -1.
         22    1    3    3    0    0  0.26536005829E+02 -0.63635464082E+02  0.61917610137E+02  0.92668345941E+02  0.00000000000E+00 0. -1.
</event>
<event>
 7    1  0.6557591E-006  0.8339931E+02  0.7818608E-02  0.1447665E+00
          2   -1    0    0  502    0  0.00000000000E+00  0.00000000000E+00  0.12491382389E+04  0.12491382389E+04  0.00000000000E+00 0. -1.
          1   -1    0    0  501    0 -0.00000000000E+00 -0.00000000000E+00 -0.17730950358E+03  0.17730950358E+03  0.00000000000E+00 0. -1.
         25    2    1    2    0    0 -0.49089167261E+02  0.36639119697E+02  0.42602503228E+03  0.44819053072E+03  0.12500100905E+03 0.  0.
          2    1    1    2  501    0  0.78025134433E+02 -0.31080545576E+02 -0.15532972301E+03  0.17658211905E+03  0.00000000000E+00 0. -1.
          1    1    1    2  502    0 -0.28935967172E+02 -0.55585741215E+01  0.80113342610E+03  0.80167509276E+03  0.00000000000E+00 0. -1.
         22    1    3    3    0    0  0.17047256336E+02  0.53380688453E+02  0.95743111229E+02  0.11093624383E+03  0.00000000000E+00 0.  1.
         22    1    3    3    0    0 -0.66136423597E+02 -0.16741568756E+02  0.33028192105E+03  0.33725428689E+03  0.00000000000E+00 0.  1.
</event>
<event>
 7    1  0.6557591E-006  0.3627448E+02  0.7818608E-02  0.1549560E+00
          2   -1    0    0  502    0  0.00000000000E+00  0.00000000000E+00  0.74952443325E+03  0.74952443325E+03  0.00000000000E+00 0. -1.
          1   -1    0    0  501    0 -0.00000000000E+00 -0.00000000000E+00 -0.26615794061E+03  0.26615794061E+03  0.00000000000E+00 0. -1.
         25    2    1    2    0    0  0.23113340980E+02 -0.53260005880E+02  0.36360069190E+03  0.38884513765E+03  0.12499689262E+03 0.  0.
          2    1    1    2  501    0  0.55515963930E+01  0.35802236073E+02 -0.25148050887E+03  0.25407689126E+03  0.00000000000E+00 0. -1.
          1    1    1    2  502    0 -0.28664937373E+02  0.17457769807E+02  0.37124630961E+03  0.37276034494E+03  0.00000000000E+00 0. -1.
         22    1    3    3    0    0 -0.34790401339E+02  0.18541780634E+02  0.16832595993E+03  0.17288087934E+03  0.00000000000E+00 0. -1.
         22    1    3    3    0    0  0.57903742319E+02 -0.71801786514E+02  0.19527473197E+03  0.21596425831E+03  0.00000000000E+00 0. -1.
</event>
<event>
 7    1  0.6557591E-006  0.1078430E+03  0.7818608E-02  0.1459504E+00
          2   -1    0    0  502    0  0.00000000000E+00  0.00000000000E+00  0.44358158353E+03  0.44358158353E+03  0.00000000000E+00 0. -1.
          1   -1    0    0  501    0 -0.00000000000E+00 -0.00000000000E+00 -0.93702142582E+03  0.93702142582E+03  0.00000000000E+00 0. -1.
         25    2    1    2    0    0 -0.95157474023E+02  0.66901424191E+02  0.68210754692E+02  0.18386869851E+03  0.12499698322E+03 0.  0.
          2    1    1    2  501    0  0.19242731151E+02  0.81370391093E+01 -0.87009318371E+03  0.87034397938E+03  0.00000000000E+00 0. -1.
          1    1    1    2  502    0  0.75914742872E+02 -0.75038463300E+02  0.30844258673E+03  0.32639033146E+03  0.00000000000E+00 0. -1.
         22    1    3    3    0    0 -0.93834060201E+02 -0.23194840300E+01  0.11875576927E+02  0.94610994009E+02  0.00000000000E+00 0. -1.
         22    1    3    3    0    0 -0.13234138211E+01  0.69220908221E+02  0.56335177764E+02  0.89257704501E+02  0.00000000000E+00 0. -1.
</event>
<event>
 7    1  0.6557591E-006  0.9267560E+02  0.7818608E-02  0.1403809E+00
          2   -1    0    0  502    0  0.00000000000E+00  0.00000000000E+00  0.37668936798E+03  0.37668936798E+03  0.00000000000E+00 0. -1.
          1   -1    0    0  501    0 -0.00000000000E+00 -0.00000000000E+00 -0.33075945434E+03  0.33075945434E+03  0.00000000000E+00 0. -1.
         25    2    1    2    0    0 -0.32695812169E+02 -0.11916963440E+03  0.10682361324E+03  0.20568744979E+03  0.12500249900E+03 0.  0.
          2    1    1    2  501    0  0.87924030356E+01  0.90859517762E+02 -0.27226860970E+03  0.28716363654E+03  0.00000000000E+00 0. -1.
          1    1    1    2  502    0  0.23903409134E+02  0.28310116641E+02  0.21137491010E+03  0.21459773599E+03  0.00000000000E+00 0. -1.
         22    1    3    3    0    0  0.46303926803E+01  0.17498546975E+02 -0.11206988925E+02  0.21289346711E+02  0.00000000000E+00 0.  1.
         22    1    3    3    0    0 -0.37326204849E+02 -0.13666818138E+03  0.11803060217E+03  0.18439810307E+03  0.00000000000E+00 0.  1.
</event>
<event>
 7    1  0.6557591E-006  0.7212748E+02  0.7818608E-02  0.1398909E+00
          2   -1    0    0  502    0  0.00000000000E+00  0.00000000000E+00  0.73631612786E+03  0.73631612786E+03  0.00000000000E+00 0. -1.
          1   -1    0    0  501    0 -0.00000000000E+00 -0.00000000000E+00 -0.68918560102E+03  0.68918560102E+03  0.00000000000E+00 0. -1.
         25    2    1    2    0    0 -0.93291937560E+02 -0.15160320186E+02 -0.39218143457E+02  0.16154505657E+03  0.12500208640E+03 0.  0.
          2    1    1    2  501    0  0.54845518089E+02  0.46318221665E+02 -0.58570276835E+03  0.59008570679E+03  0.00000000000E+00 0. -1.
          1    1    1    2  502    0  0.38446419471E+02 -0.31157901478E+02  0.67205143865E+03  0.67387096553E+03  0.00000000000E+00 0. -1.
         22    1    3    3    0    0 -0.10161376238E+03  0.21413468383E+02 -0.58690523832E+02  0.11928315439E+03  0.00000000000E+00 0.  1.
         22    1    3    3    0    0  0.83218248167E+01 -0.36573788569E+02  0.19472380375E+02  0.42261902182E+02  0.00000000000E+00 0.  1.
</event>
<event>
 7    1  0.6557591E-006  0.6108828E+02  0.7818608E-02  0.1401730E+00
          2   -1    0    0  502    0  0.00000000000E+00  0.00000000000E+00  0.29473112942E+04  0.29473112942E+04  0.00000000000E+00 0. -1.
          1   -1    0    0  501    0 -0.00000000000E+00 -0.00000000000E+00 -0.46885749411E+02  0.46885749411E+02  0.00000000000E+00 0. -1.
         25    2    1    2    0    0  0.22187996751E+02 -0.42141025652E+01  0.60241833615E+03  0.61566505691E+03  0.12500217885E+03 0.  0.
          2    1    1    2  501    0 -0.16303811006E+02  0.61049698803E+02 -0.14897477827E+02  0.64921605208E+02  0.00000000000E+00 0. -1.
          1    1    1    2  502    0 -0.58841857445E+01 -0.56835596238E+02  0.23129046865E+04  0.23136103815E+04  0.00000000000E+00 0. -1.
         22    1    3    3    0    0  0.67230219190E+02  0.22016261593E+02  0.26663032162E+03  0.27585566254E+03  0.00000000000E+00 0.  1.
         22    1    3    3    0    0 -0.45042222439E+02 -0.26230364159E+02  0.33578801453E+03  0.33980939438E+03  0.00000000000E+00 0.  1.
</event>
<event>
 7    1  0.6557591E-006  0.1491127E+03  0.7818608E-02  0.1334015E+00
          2   -1    0    0  502    0  0.00000000000E+00  0.00000000000E+00  0.75089893300E+03  0.75089893300E+03  0.00000000000E+00 0. -1.
          1   -1    0    0  501    0 -0.00000000000E+00 -0.00000000000E+00 -0.18801359052E+03  0.18801359052E+03  0.00000000000E+00 0. -1.
         25    2    1    2    0    0 -0.14179539159E+03 -0.11868175081E+03  0.34519346537E+02  0.22585679869E+03  0.12501366795E+03 0.  0.
          2    1    1    2  501    0  0.22844965320E+02  0.34155400733E+02 -0.78654818754E+02  0.88741559334E+02  0.00000000000E+00 0. -1.
          1    1    1    2  502    0  0.11895042628E+03  0.84526350078E+02  0.60702081470E+03  0.62431416550E+03  0.00000000000E+00 0. -1.
         22    1    3    3    0    0 -0.10760459217E+03 -0.69252582356E+02  0.79622743478E+02  0.15071313711E+03  0.00000000000E+00 0. -1.
         22    1    3    3    0    0 -0.34190799427E+02 -0.49429168455E+02 -0.45103396941E+02  0.75143661578E+02  0.00000000000E+00 0. -1.
</event>
<event>
 7    1  0.6557591E-006  0.2353548E+03  0.7818608E-02  0.1134623E+00
          2   -1    0    0  502    0  0.00000000000E+00  0.00000000000E+00  0.21032839291E+04  0.21032839291E+04  0.00000000000E+00 0. -1.
          1   -1    0    0  501    0 -0.00000000000E+00 -0.00000000000E+00 -0.86163149280E+03  0.86163149280E+03  0.00000000000E+00 0. -1.
         25    2    1    2    0    0 -0.18177614304E+03 -0.28856544939E+02  0.63717930622E+03  0.67490571551E+03  0.12499996074E+03 0.  0.
          2    1    1    2  501    0  0.93638651384E+02 -0.21592512942E+03 -0.81427436094E+03  0.84760521083E+03  0.00000000000E+00 0. -1.
          1    1    1    2  502    0  0.88137491656E+02  0.24478167436E+03  0.14187474911E+04  0.14424044956E+04  0.00000000000E+00 0. -1.
         22    1    3    3    0    0 -0.78488321548E+02 -0.74292661845E+02  0.27175817206E+03  0.29245909168E+03  0.00000000000E+00 0.  1.
         22    1    3    3    0    0 -0.10328782149E+03  0.45436116907E+02  0.36542113416E+03  0.38244662383E+03  0.00000000000E+00 0.  1.
</event>
<event>
 7    1  0.6557591E-006  0.2265397E+02  0.7818608E-02  0.1709653E+00
          2   -1    0    0  502    0  0.00000000000E+00  0.00000000000E+00  0.57944594934E+03  0.57944594934E+03  0.00000000000E+00 0. -1.
          1   -1    0    0  501    0 -0.00000000000E+00 -0.00000000000E+00 -0.70351741764E+03  0.70351741764E+03  0.00000000000E+00 0. -1.
         25    2    1    2    0    0  0.25656193182E+02 -0.12617945053E+02 -0.25270935721E+03  0.28338020822E+03  0.12499948161E+03 0.  0.
          2    1    1    2  501    0 -0.44997853105E+01  0.20725468172E+02 -0.43498668111E+03  0.43550339361E+03  0.00000000000E+00 0. -1.
          1    1    1    2  502    0 -0.21156407871E+02 -0.81075231193E+01  0.56362457002E+03  0.56407976515E+03  0.00000000000E+00 0. -1.
         22    1    3    3    0    0  0.76104274358E+02 -0.15387601944E+02 -0.14885670160E+03  0.16788971523E+03  0.00000000000E+00 0. -1.
         22    1    3    3    0    0 -0.50448081176E+02  0.27696568908E+01 -0.10385265560E+03  0.11549049298E+03  0.00000000000E+00 0. -1.
</event>
<event>
 7    1  0.6557591E-006  0.2782599E+02  0.7818608E-02  0.1625604E+00
          2   -1    0    0  502    0  0.00000000000E+00  0.00000000000E+00  0.94614677452E+03  0.94614677452E+03  0.00000000000E+00 0. -1.
          1   -1    0    0  501    0 -0.00000000000E+00 -0.00000000000E+00 -0.62803206061E+03  0.62803206061E+03  0.00000000000E+00 0. -1.
         25    2    1    2    0    0 -0.22536670619E+02 -0.13966121518E+02  0.91410756252E+01  0.12810845882E+03  0.12500105554E+03 0.  0.
          2    1    1    2  501    0 -0.11601253301E+01  0.27875509454E+02 -0.56799078776E+03  0.56867558845E+03  0.00000000000E+00 0. -1.
          1    1    1    2  502    0  0.23696795949E+02 -0.13909387936E+02  0.87696442605E+03  0.87739478786E+03  0.00000000000E+00 0. -1.
         22    1    3    3    0    0 -0.33459642484E+02  0.43261166782E+02  0.34398161141E+02  0.64608898121E+02  0.00000000000E+00 0.  1.
         22    1    3    3    0    0  0.10922971865E+02 -0.57227288300E+02 -0.25257085516E+02  0.63499560702E+02  0.00000000000E+00 0.  1.
</event>
<event>
 7    1  0.6557591E-006  0.5824570E+02  0.7818608E-02  0.1475722E+00
          2   -1    0    0  502    0  0.00000000000E+00  0.00000000000E+00  0.42403859956E+03  0.42403859956E+03  0.00000000000E+00 0. -1.
          1   -1    0    0  501    0 -0.00000000000E+00 -0.00000000000E+00 -0.25114574472E+03  0.25114574472E+03  0.00000000000E+00 0. -1.
         25    2    1    2    0    0  0.24858564363E+02 -0.37875565904E+01 -0.12046651494E+02  0.12807469444E+03  0.12500284691E+03 0.  0.
          2    1    1    2  501    0  0.34426327720E+02  0.21042017953E+00 -0.17700634077E+03  0.18032321256E+03  0.00000000000E+00 0. -1.
          1    1    1    2  502    0 -0.59284892083E+02  0.35771364108E+01  0.36194584710E+03  0.36678643728E+03  0.00000000000E+00 0. -1.
         22    1    3    3    0    0  0.17561575273E+01 -0.46078957832E+02  0.37144548146E+02  0.59212092524E+02  0.00000000000E+00 0.  1.
         22    1    3    3    0    0  0.23102406836E+02  0.42291401241E+02 -0.49191199640E+02  0.68862601916E+02  0.00000000000E+00 0.  1.
</event>
<event>
 7    1  0.6557591E-006  0.1430056E+03  0.7818608E-02  0.1318861E+00
          2   -1    0    0  502    0  0.00000000000E+00  0.00000000000E+00  0.30490113956E+02  0.30490113956E+02  0.00000000000E+00 0. -1.
          1   -1    0    0  501    0 -0.00000000000E+00 -0.00000000000E+00 -0.20881090600E+04  0.20881090600E+04  0.00000000000E+00 0. -1.
         25    2    1    2    0    0 -0.12269105133E+03  0.12408320992E+03 -0.62847009577E+03  0.66412112920E+03  0.12502990008E+03 0.  0.
          2    1    1    2  501    0  0.26488616850E+02 -0.41213428277E+02 -0.11088181840E+04  0.11098999768E+04  0.00000000000E+00 0. -1.
          1    1    1    2  502    0  0.96202434480E+02 -0.82869781645E+02 -0.32033066626E+03  0.34457806787E+03  0.00000000000E+00 0. -1.
         22    1    3    3    0    0 -0.89579390572E+01  0.97412835676E+02 -0.28133874207E+03  0.29786069398E+03  0.00000000000E+00 0.  1.
         22    1    3    3    0    0 -0.11373311227E+03  0.26670374246E+02 -0.34713135370E+03  0.36626043522E+03  0.00000000000E+00 0.  1.
</event>
<event>
 7    1  0.6557591E-006  0.2686752E+03  0.7818608E-02  0.1201957E+00
          2   -1    0    0  502    0  0.00000000000E+00  0.00000000000E+00  0.16607993219E+04  0.16607993219E+04  0.00000000000E+00 0. -1.
          1   -1    0    0  501    0 -0.00000000000E+00 -0.00000000000E+00 -0.19121738059E+03  0.19121738059E+03  0.00000000000E+00 0. -1.
         25    2    1    2    0    0 -0.20859193451E+02 -0.19475204000E+03  0.13311017429E+04  0.13512290565E+04  0.12499860059E+03 0.  0.
          2    1    1    2  501    0  0.57430301951E+02  0.26860079425E+03 -0.64130477027E+02  0.28205911497E+03  0.00000000000E+00 0. -1.
          1    1    1    2  502    0 -0.36571108501E+02 -0.73848754249E+02  0.20261067541E+03  0.21872853099E+03  0.00000000000E+00 0. -1.
         22    1    3    3    0    0 -0.96588167445E+00 -0.49924587127E+02  0.76258094541E+03  0.76421403784E+03  0.00000000000E+00 0.  1.
         22    1    3    3    0    0 -0.19893311776E+02 -0.14482745287E+03  0.56852079753E+03  0.58701501870E+03  0.00000000000E+00 0.  1.
</event>
<event>
 7    1  0.6557591E-006  0.1682606E+03  0.7818608E-02  0.1334725E+00
          2   -1    0    0  502    0  0.00000000000E+00  0.00000000000E+00  0.51540501772E+03  0.51540501772E+03  0.00000000000E+00 0. -1.
          1   -1    0    0  501    0 -0.00000000000E+00 -0.00000000000E+00 -0.14589395519E+03  0.14589395519E+03  0.00000000000E+00 0. -1.
         25    2    1    2    0    0 -0.15377147658E+03 -0.63354457531E+02  0.16679243511E+03  0.26665362414E+03  0.12499993824E+03 0.  0.
          2    1    1    2  501    0  0.16731779352E+03  0.29795537905E+02 -0.18072211842E+02  0.17090822961E+03  0.00000000000E+00 0. -1.
          1    1    1    2  502    0 -0.13546316933E+02  0.33558919626E+02  0.22079083926E+03  0.22373711916E+03  0.00000000000E+00 0. -1.
         22    1    3    3    0    0 -0.15155499152E+03 -0.20797428201E+02  0.16350973226E+03  0.22391266382E+03  0.00000000000E+00 0.  1.
         22    1    3    3    0    0 -0.22164850596E+01 -0.42557029330E+02  0.32827028486E+01  0.42740960324E+02  0.00000000000E+00 0.  1.
</event>
<event>
 7    1  0.6557591E-006  0.1729295E+03  0.7818608E-02  0.1279347E+00
          2   -1    0    0  502    0  0.00000000000E+00  0.00000000000E+00  0.50731930789E+03  0.50731930789E+03  0.00000000000E+00 0. -1.
          1   -1    0    0  501    0 -0.00000000000E+00 -0.00000000000E+00 -0.28213764353E+03  0.28213764353E+03  0.00000000000E+00 0. -1.
         25    2    1    2    0    0  0.30519213443E+02 -0.21399557391E+03  0.16150329599E+03  0.29737349033E+03  0.12498859984E+03 0.  0.
          2    1    1    2  501    0  0.40737780571E+01  0.16700336859E+03 -0.17761688967E+03  0.24383289418E+03  0.00000000000E+00 0. -1.
          1    1    1    2  502    0 -0.34592991500E+02  0.46992205325E+02  0.24129525804E+03  0.24825056691E+03  0.00000000000E+00 0. -1.
         22    1    3    3    0    0 -0.37158963535E+02 -0.80501174251E+02  0.10491709332E+03  0.13736383839E+03  0.00000000000E+00 0. -1.
         22    1    3    3    0    0  0.67678176978E+02 -0.13349439966E+03  0.56586202670E+02  0.16000965194E+03  0.00000000000E+00 0. -1.
</event>
<event>
 7    1  0.6557591E-006  0.3170210E+03  0.7818608E-02  0.1219562E+00
          2   -1    0    0  502    0  0.00000000000E+00  0.00000000000E+00  0.27842062748E+04  0.27842062748E+04  0.00000000000E+00 0. -1.
          1   -1    0    0  501    0 -0.00000000000E+00 -0.00000000000E+00 -0.13622135812E+04  0.13622135812E+04  0.00000000000E+00 0. -1.
         25    2    1    2    0    0  0.62540271870E+02 -0.27548830783E+03 -0.80015949288E+02  0.31911346924E+03  0.12500304297E+03 0.  0.
          2    1    1    2  501    0  0.53809458665E+02 -0.21340305911E+02 -0.11523834311E+04  0.11538364004E+04  0.00000000000E+00 0. -1.
          1    1    1    2  502    0 -0.11634973054E+03  0.29682861374E+03  0.26543920740E+04  0.26734699865E+04  0.00000000000E+00 0. -1.
         22    1    3    3    0    0 -0.19093620562E+02 -0.18850744226E+03 -0.54066806439E+02  0.19703512807E+03  0.00000000000E+00 0.  1.
         22    1    3    3    0    0  0.81633892432E+02 -0.86980865570E+02 -0.25949142849E+02  0.12207834117E+03  0.00000000000E+00 0.  1.
</event>
<event>
 7    1  0.6557591E-006  0.2623594E+03  0.7818608E-02  0.1152360E+00
          2   -1    0    0  502    0  0.00000000000E+00  0.00000000000E+00  0.11501346412E+04  0.11501346412E+04  0.00000000000E+00 0. -1.
          1   -1    0    0  501    0 -0.00000000000E+00 -0.00000000000E+00 -0.51749328858E+03  0.51749328858E+03  0.00000000000E+00 0. -1.
         25    2    1    2    0    0 -0.88112586082E+02  0.26942168395E+03  0.68593783638E+03  0.75265032515E+03  0.12497969817E+03 0.  0.
          2    1    1    2  501    0 -0.10810695109E+03 -0.10079914437E+03 -0.43185846435E+03  0.45645296977E+03  0.00000000000E+00 0. -1.
          1    1    1    2  502    0  0.19621953717E+03 -0.16862253959E+03  0.37856198058E+03  0.45852463485E+03  0.00000000000E+00 0. -1.
         22    1    3    3    0    0  0.26466406756E+02  0.38840507805E+02  0.63027549031E+02  0.78622691826E+02  0.00000000000E+00 0. -1.
         22    1    3    3    0    0 -0.11457899284E+03  0.23058117615E+03  0.62291028735E+03  0.67402763332E+03  0.00000000000E+00 0. -1.
</event>
<event>
 7    1  0.6557591E-006  0.6959490E+02  0.7818608E-02  0.1513769E+00
          2   -1    0    0  502    0  0.00000000000E+00  0.00000000000E+00  0.11148040156E+04  0.11148040156E+04  0.00000000000E+00 0. -1.
          1   -1    0    0  501    0 -0.00000000000E+00 -0.00000000000E+00 -0.98608559072E+03  0.98608559072E+03  0.00000000000E+00 0. -1.
         25    2    1    2    0    0  0.38531823783E+02 -0.28751845566E+02 -0.33951414857E+03  0.36496121315E+03  0.12496183401E+03 0.  0.
          2    1    1    2  501    0  0.13553449601E+02 -0.17508478375E+02 -0.63255317188E+03  0.63294056440E+03  0.00000000000E+00 0. -1.
          1    1    1    2  502    0 -0.52085273384E+02  0.46260323940E+02  0.11007857453E+04  0.11029878287E+04  0.00000000000E+00 0. -1.
         22    1    3    3    0    0  0.58601045416E+02 -0.23787838287E+02 -0.33839767517E+03  0.34425707013E+03  0.00000000000E+00 0.  1.
         22    1    3    3    0    0 -0.20069221633E+02 -0.49640072788E+01 -0.11164733953E+01  0.20704143017E+02  0.00000000000E+00 0.  1.
</event>
<event>
 7    1  0.6557591E-006  0.1393549E+03  0.7818608E-02  0.1225237E+00
          2   -1    0    0  502    0  0.00000000000E+00  0.00000000000E+00  0.51812157535E+03  0.51812157535E+03  0.00000000000E+00 0. -1.
          1   -1    0    0  501    0 -0.00000000000E+00 -0.00000000000E+00 -0.35715069263E+04  0.35715069263E+04  0.00000000000E+00 0. -1.
         25    2    1    2    0    0  0.16751414588E+03 -0.16272210532E+03 -0.14404261367E+04  0.14645792272E+04  0.12500153940E+03 0.  0.
          2    1    1    2  501    0 -0.35742464598E+02  0.11884142878E+03 -0.21076150907E+04  0.21112655398E+04  0.00000000000E+00 0. -1.
          1    1    1    2  502    0 -0.13177168128E+03  0.43880676541E+02  0.49465587651E+03  0.51378373459E+03  0.00000000000E+00 0. -1.
         22    1    3    3    0    0  0.17636731529E+03 -0.10596624061E+03 -0.11893439968E+04  0.12070101146E+04  0.00000000000E+00 0.  1.
         22    1    3    3    0    0 -0.88531694059E+01 -0.56755864712E+02 -0.25108213996E+03  0.25756911266E+03  0.00000000000E+00 0.  1.
</event>
<event>
 7    1  0.6557591E-006  0.6901581E+02  0.7818608E-02  0.1445105E+00
          2   -1    0    0  502    0  0.00000000000E+00  0.00000000000E+00  0.27971895927E+02  0.27971895927E+02  0.00000000000E+00 0. -1.
          1   -1    0    0  501    0 -0.00000000000E+00 -0.00000000000E+00 -0.13086110751E+04  0.13086110751E+04  0.00000000000E+00 0. -1.
         25    2    1    2    0    0  0.79811731793E+02  0.27019211924E+02 -0.32662943906E+03  0.35973866036E+03  0.12500065180E+03 0.  0.
          2    1    1    2  501    0 -0.13928676272E+02 -0.33507369117E+02 -0.86577674017E+03  0.86653685185E+03  0.00000000000E+00 0. -1.
          1    1    1    2  502    0 -0.65883055521E+02  0.64881571931E+01 -0.88232999903E+02  0.11030745877E+03  0.00000000000E+00 0. -1.
         22    1    3    3    0    0  0.14215982162E+01  0.61012692265E+02 -0.95641185497E+02  0.11345398152E+03  0.00000000000E+00 0. -1.
         22    1    3    3    0    0  0.78390133577E+02 -0.33993480342E+02 -0.23098825357E+03  0.24628467884E+03  0.00000000000E+00 0. -1.
</event>
<event>
 7    1  0.1260731E-005  0.9290323E+02  0.7818608E-02  0.1405962E+00
          2   -1    0    0  502    0  0.00000000000E+00  0.00000000000E+00  0.18145718701E+04  0.18145718701E+04  0.00000000000E+00 0. -1.
          1   -1    0    0  501    0 -0.00000000000E+00 -0.00000000000E+00 -0.76805666856E+03  0.76805666856E+03  0.00000000000E+00 0. -1.
         25    2    1    2    0    0 -0.52508256016E+02  0.34172924419E+02 -0.25617528000E+03  0.29184674120E+03  0.12499536212E+03 0.  0.
          2    1    1    2  501    0 -0.35949542469E+02 -0.53162525118E+01 -0.49217068691E+03  0.49351050363E+03  0.00000000000E+00 0. -1.
          1    1    1    2  502    0  0.88457798485E+02 -0.28856671907E+02  0.17948611684E+04  0.17972712938E+04  0.00000000000E+00 0. -1.
         22    1    3    3    0    0  0.22870038982E+02 -0.27295712476E+02 -0.33653159509E+02  0.48996221768E+02  0.00000000000E+00 0.  1.
         22    1    3    3    0    0 -0.75378294997E+02  0.61468636895E+02 -0.22252212049E+03  0.24285051943E+03  0.00000000000E+00 0.  1.
</event>
<event>
 7    1  0.6557591E-006  0.1094376E+03  0.7818608E-02  0.1300509E+00
          2   -1    0    0  502    0  0.00000000000E+00  0.00000000000E+00  0.18945861291E+03  0.18945861291E+03  0.00000000000E+00 0. -1.
          1   -1    0    0  501    0 -0.00000000000E+00 -0.00000000000E+00 -0.37837747827E+03  0.37837747827E+03  0.00000000000E+00 0. -1.
         25    2    1    2    0    0 -0.52824493093E+02  0.46563703126E+02 -0.19175918981E+02  0.14475096584E+03  0.12500608275E+03 0.  0.
          2    1    1    2  501    0  0.10098802098E+02  0.74948879701E+02 -0.25674387323E+03  0.26765040036E+03  0.00000000000E+00 0. -1.
          1    1    1    2  502    0  0.42725690995E+02 -0.12151258283E+03  0.87000926854E+02  0.15543472498E+03  0.00000000000E+00 0. -1.
         22    1    3    3    0    0 -0.11071505408E+02  0.77156765897E+02  0.19245910928E+02  0.80287918413E+02  0.00000000000E+00 0. -1.
         22    1    3    3    0    0 -0.41752987685E+02 -0.30593062772E+02 -0.38421829909E+02  0.64463047430E+02  0.00000000000E+00 0. -1.
</event>
<event>
 7    1  0.6557591E-006  0.6397716E+02  0.7818608E-02  0.1456220E+00
          2   -1    0    0  502    0  0.00000000000E+00  0.00000000000E+00  0.10254923876E+04  0.10254923876E+04  0.00000000000E+00 0. -1.
          1   -1    0    0  501    0 -0.00000000000E+00 -0.00000000000E+00 -0.53105144653E+03  0.53105144653E+03  0.00000000000E+00 0. -1.
         25    2    1    2    0    0 -0.28957437850E+02  0.17942035134E+02  0.36342033061E+02  0.13455776654E+03  0.12499839734E+03 0.  0.
          2    1    1    2  501    0  0.64077083474E+02 -0.97163625395E+01 -0.47941637404E+03  0.48377715947E+03  0.00000000000E+00 0. -1.
          1    1    1    2  502    0 -0.35119645624E+02 -0.82256725949E+01  0.93751528204E+03  0.93820890811E+03  0.00000000000E+00 0. -1.
         22    1    3    3    0    0  0.36091583544E+02  0.38682688887E+02 -0.74762301102E+01  0.53430766782E+02  0.00000000000E+00 0. -1.
         22    1    3    3    0    0 -0.65049021394E+02 -0.20740653752E+02  0.43818263171E+02  0.81126999758E+02  0.00000000000E+00 0. -1.
</event>
<event>
 7    1  0.6557591E-006  0.1009868E+03  0.7818608E-02  0.1360310E+00
          2   -1    0    0  502    0  0.00000000000E+00  0.00000000000E+00  0.13275829415E+04  0.13275829415E+04  0.00000000000E+00 0. -1.
          1   -1    0    0  501    0 -0.00000000000E+00 -0.00000000000E+00 -0.26618362067E+04  0.26618362067E+04  0.00000000000E+00 0. -1.
         25    2    1    2    0    0  0.43131156177E+02 -0.14117531952E+03 -0.20175454525E+03  0.27950117848E+03  0.12500097907E+03 0.  0.
          2    1    1    2  501    0 -0.23074221440E+02  0.42583080393E+02 -0.24190018414E+04  0.24194866495E+04  0.00000000000E+00 0. -1.
          1    1    1    2  502    0 -0.20056934737E+02  0.98592239129E+02  0.12865031215E+04  0.12904313201E+04  0.00000000000E+00 0. -1.
         22    1    3    3    0    0  0.52877454372E+02 -0.32223892294E+02 -0.16040027254E+02  0.63966294951E+02  0.00000000000E+00 0.  1.
         22    1    3    3    0    0 -0.97462981955E+01 -0.10895142723E+03 -0.18571451799E+03  0.21553488353E+03  0.00000000000E+00 0.  1.
</event>
<event>
 7    1  0.6557591E-006  0.7971646E+02  0.7818608E-02  0.1344212E+00
          2   -1    0    0  502    0  0.00000000000E+00  0.00000000000E+00  0.13055707214E+04  0.13055707214E+04  0.00000000000E+00 0. -1.
          1   -1    0    0  501    0 -0.00000000000E+00 -0.00000000000E+00 -0.20204879846E+03  0.20204879846E+03  0.00000000000E+00 0. -1.
         25    2    1    2    0    0  0.55014207797E+02 -0.48468123865E+02  0.65651137503E+03  0.67232020526E+03  0.12502620035E+03 0.  0.
          2    1    1    2  501    0  0.79898383759E+01  0.79779216709E+02 -0.18382650935E+03  0.20055110689E+03  0.00000000000E+00 0. -1.
          1    1    1    2  502    0 -0.63004046173E+02 -0.31311092844E+02  0.63083705729E+03  0.63474820774E+03  0.00000000000E+00 0. -1.
         22    1    3    3    0    0 -0.25964210482E+01 -0.77743967440E+02  0.29528509782E+03  0.30535905893E+03  0.00000000000E+00 0.  1.
         22    1    3    3    0    0  0.57610628845E+02  0.29275843575E+02  0.36122627721E+03  0.36696114634E+03  0.00000000000E+00 0.  1.
</event>
<event>
 7    1  0.6557591E-006  0.3275935E+02  0.7818608E-02  0.1596328E+00
          2   -1    0    0  502    0  0.00000000000E+00  0.00000000000E+00  0.48885535156E+03  0.48885535156E+03  0.00000000000E+00 0. -1.
          1   -1    0    0  501    0 -0.00000000000E+00 -0.00000000000E+00 -0.77952316046E+02  0.77952316046E+02  0.00000000000E+00 0. -1.
         25    2    1    2    0    0  0.35240422948E+02  0.46230641377E+02  0.44584329132E+02  0.14487338131E+03  0.12498549755E+03 0.  0.
          2    1    1    2  501    0 -0.19962111288E+02 -0.23045219783E+02 -0.18797896472E+02  0.35817997623E+02  0.00000000000E+00 0. -1.
          1    1    1    2  502    0 -0.15278311660E+02 -0.23185421593E+02  0.38511660286E+03  0.38611628867E+03  0.00000000000E+00 0. -1.
         22    1    3    3    0    0 -0.31545685707E+02  0.10890485968E+02 -0.25355914957E+02  0.41912473020E+02  0.00000000000E+00 0.  1.
         22    1    3    3    0    0  0.66786108655E+02  0.35340155408E+02  0.69940244088E+02  0.10296090829E+03  0.00000000000E+00 0.  1.
</event>
<event>
 7    1  0.6557591E-006  0.8762783E+02  0.7818608E-02  0.1353107E+00
          2   -1    0    0  502    0  0.00000000000E+00  0.00000000000E+00  0.86584836634E+03  0.86584836634E+03  0.00000000000E+00 0. -1.
          1   -1    0    0  501    0 -0.00000000000E+00 -0.00000000000E+00 -0.14351004023E+04  0.14351004023E+04  0.00000000000E+00 0. -1.
         25    2    1    2    0    0  0.13278821687E+03  0.15182429348E+02  0.33943119296E+03  0.38561901852E+03  0.12500110395E+03 0.  0.
          2    1    1    2  501    0 -0.57222137534E+02  0.15626107559E+02 -0.14080702323E+04  0.14093191006E+04  0.00000000000E+00 0. -1.
          1    1    1    2  502    0 -0.75566079339E+02 -0.30808536907E+02  0.49938700337E+03  0.50601064952E+03  0.00000000000E+00 0. -1.
         22    1    3    3    0    0  0.14371434429E+03  0.44602825618E+02  0.26317502077E+03  0.30315724693E+03  0.00000000000E+00 0. -1.
         22    1    3    3    0    0 -0.10926127417E+02 -0.29420396270E+02  0.76256172190E+02  0.82461771592E+02  0.00000000000E+00 0. -1.
</event>
